 Gaussian 16, Revision A.03,
 Gaussian 16:  ES64L-G16RevA.03 25-Dec-2016

 -----------------------------------
 #p cam-b3lyp/Def2SVP td=(nstates=5)
 -----------------------------------

 --------------------------------
 TDDFT excited states in gaussian
 --------------------------------
 Symbolic Z-matrix:
 Charge =  0 Multiplicity = 1

                         Standard orientation:
 ---------------------------------------------------------------------
 Center     Atomic      Atomic             Coordinates (Angstroms)
 Number     Number       Type             X           Y           Z
 ---------------------------------------------------------------------
      1         12           0      -15.787858    0.669666    0.378358
      2          6           0      -16.057449   -2.152173   -1.807222
      3          6           0      -16.595061   -1.429099    2.944810
      4          6           0      -16.001619    3.219193    2.252081
      5          6           0      -16.124636    2.695925   -2.437049
      6          7           0      -16.243740   -1.495871    0.435515
      7          6           0      -16.254612   -2.475605   -0.462914
      8          6           0      -16.420304   -3.890521    0.167905
      9          6           0      -17.134253   -3.475988    1.531883
     10          6           0      -16.599071   -2.061236    1.665975
     11          6           0      -18.655071   -3.418279    1.430478
     12          6           0      -15.043880   -4.589065    0.431006
     13          6           0      -15.119697   -6.087622    0.737491
     14          1           0      -14.059003   -6.956559    0.250433
     15          7           0      -15.751920    0.818751    2.347960
     16          6           0      -16.098117   -0.140985    3.239219
     17          6           0      -15.899566    0.455169    4.577822
     18          6           0      -15.591501    1.900285    4.391192
     19          6           0      -15.797822    2.044807    2.972770
     20          6           0      -15.959786   -0.336243    5.848172
     21          6           0      -15.187137    2.982051    5.342194
     22          8           0      -15.194708    4.216841    5.010819
     23          6           0      -14.862498    2.560605    6.716980
     24          7           0      -16.247907    2.671409    0.005513
     25          6           0      -16.213157    3.581463    0.985094
     26          6           0      -16.297477    4.975697    0.438339
     27          6           0      -16.152267    4.838791   -1.145935
     28          6           0      -16.087997    3.294630   -1.244456
     29          6           0      -17.582678    5.747349    0.768224
     30          6           0      -15.032981    5.668337   -1.823779
     31          6           0      -13.678604    5.148160   -1.396958
     32          7           0      -15.868857    0.366391   -1.769317
     33          6           0      -16.035413    1.350798   -2.754140
     34          6           0      -16.137485    0.653327   -4.049202
     35          6           0      -16.039197   -0.698094   -3.723865
     36          6           0      -15.911821   -0.837383   -2.312247
     37          6           0      -16.357314    1.269666   -5.312624
     38          6           0      -16.036890   -2.058052   -4.238031
     39          8           0      -16.020173   -2.559778   -5.362969
     40          6           0      -16.171065   -3.059348   -3.007084
     41          6           0      -15.130496   -4.132271   -3.178438
     42          8           0      -13.914696   -3.863455   -3.095175
     43          8           0      -15.726767   -5.334351   -3.175604
     44          6           0      -14.746956   -6.444945   -3.312368
     45          1           0      -17.067248   -1.938725    3.786986
     46          1           0      -15.970925    4.132110    2.850478
     47          1           0      -16.146036    3.266713   -3.367208
     48          1           0      -17.061220   -4.567742   -0.396917
     49          1           0      -16.799720   -4.088598    2.368854
     50          1           0      -18.990885   -3.546189    0.401503
     51          1           0      -18.934361   -2.432257    1.802298
     52          1           0      -19.116072   -4.136153    2.109383
     53          1           0      -14.631667   -4.227646    1.373088
     54          1           0      -14.362505   -4.426025   -0.404740
     55          1           0      -16.097100   -6.497782    0.481829
     56          1           0      -15.044405   -6.219713    1.816881
     57          1           0      -16.367381   -1.332385    5.680501
     58          1           0      -16.690825    0.151408    6.492755
     59          1           0      -14.994209   -0.376926    6.352491
     60          1           0      -15.727881    2.062341    7.154466
     61          1           0      -14.509328    3.454425    7.230016
     62          1           0      -14.066648    1.816184    6.679444
     63          1           0      -15.486283    5.594830    0.819212
     64          1           0      -17.060538    5.141446   -1.667583
     65          1           0      -17.406101    6.693335    1.280704
     66          1           0      -18.224470    5.095631    1.360389
     67          1           0      -18.221156    5.959600   -0.088929
     68          1           0      -15.090006    6.710017   -1.509779
     69          1           0      -15.080870    5.647055   -2.912588
     70          1           0      -13.513912    5.650741   -0.444529
     71          1           0      -12.916406    5.430132   -2.124115
     72          1           0      -13.708044    4.076496   -1.199082
     73          1           0      -15.679216    0.781289   -6.012367
     74          1           0      -16.173870    2.342914   -5.266907
     75          1           0      -17.408883    1.032235   -5.472887
     76          1           0      -17.183092   -3.461707   -3.039172
     77          1           0      -15.052681   -7.038410   -4.174091
     78          1           0      -14.706150   -6.943227   -2.343630
     79          1           0      -13.735445   -6.161962   -3.605804
     80         12           0       15.957501    0.610801   -0.509065
     81          6           0       15.798009   -2.450954    1.356230
     82          6           0       15.164642    2.238732    2.381578
     83          6           0       15.647414    3.271666   -2.209381
     84          6           0       15.604868   -1.296847   -3.404272
     85          7           0       15.557861   -0.121186    1.539525
     86          6           0       15.586510   -1.299750    2.143277
     87          6           0       15.456584   -1.234055    3.688718
     88          6           0       14.702563    0.178876    3.806788
     89          6           0       15.195229    0.827555    2.514821
     90          6           0       13.189167    0.061225    3.735257
     91          6           0       16.852236   -1.201980    4.405054
     92          6           0       16.806142   -1.448953    5.914563
     93          1           0       17.904177   -2.186746    6.532989
     94          7           0       15.961202    2.510197    0.066146
     95          6           0       15.633493    2.992479    1.283229
     96          6           0       15.778355    4.453424    1.189432
     97          6           0       16.058975    4.806893   -0.228679
     98          6           0       15.875465    3.516975   -0.863130
     99          6           0       15.728109    5.354774    2.388790
    100          6           0       16.418790    6.095527   -0.904075
    101          8           0       16.383978    6.220024   -2.179265
    102          6           0       16.722656    7.233968   -0.024817
    103          7           0       15.456689    0.964289   -2.495660
    104          6           0       15.445291    2.213041   -2.994083
    105          6           0       15.328427    2.198420   -4.499579
    106          6           0       15.507863    0.668563   -4.929587
    107          6           0       15.612990    0.023076   -3.530417
    108          6           0       14.016556    2.736684   -5.070232
    109          6           0       16.615343    0.356015   -5.972898
    110          6           0       17.978383    0.610772   -5.370709
    111          7           0       15.924481   -1.495405   -0.989519
    112          6           0       15.739753   -2.077011   -2.262986
    113          6           0       15.678212   -3.540174   -2.068595
    114          6           0       15.809385   -3.708336   -0.681873
    115          6           0       15.922960   -2.438501   -0.054090
    116          6           0       15.472302   -4.507446   -3.092367
    117          6           0       15.866928   -4.670802    0.394717
    118          8           0       15.908429   -5.898658    0.460938
    119          6           0       15.735132   -3.893638    1.774948
    120          6           0       16.807616   -4.402443    2.698741
    121          8           0       18.008462   -4.205571    2.442179
    122          8           0       16.237655   -4.843608    3.834915
    123          6           0       17.262144   -5.348214    4.787603
    124          1           0       14.699396    2.824782    3.174658
    125          1           0       15.642874    4.152893   -2.855048
    126          1           0       15.594834   -1.965713   -4.267519
    127          1           0       14.849763   -2.017144    4.127250
    128          1           0       15.048206    0.740019    4.671092
    129          1           0       12.873999   -0.943897    3.497464
    130          1           0       12.876948    0.748950    2.960271
    131          1           0       12.738398    0.426987    4.662268
    132          1           0       17.236557   -0.173903    4.394522
    133          1           0       17.531928   -1.893519    3.946331
    134          1           0       15.840033   -1.856513    6.236235
    135          1           0       16.874362   -0.485749    6.426035
    136          1           0       15.343731    4.828823    3.271416
    137          1           0       14.974904    6.122365    2.180581
    138          1           0       16.684228    5.842998    2.589127
    139          1           0       15.865802    7.436080    0.613471
    140          1           0       17.043408    8.038788   -0.689098
    141          1           0       17.549302    6.953599    0.637508
    142          1           0       16.116460    2.786034   -4.954355
    143          1           0       14.595455    0.266041   -5.393612
    144          1           0       14.160158    3.571081   -5.782437
    145          1           0       13.386593    3.044282   -4.246170
    146          1           0       13.394509    1.998468   -5.573519
    147          1           0       16.525741    1.025053   -6.832270
    148          1           0       16.578385   -0.660280   -6.350735
    149          1           0       18.108272    1.689253   -5.501466
    150          1           0       18.744085    0.053199   -5.906303
    151          1           0       17.977088    0.407096   -4.293606
    152          1           0       16.167591   -5.314354   -2.902702
    153          1           0       15.620691   -4.077838   -4.080886
    154          1           0       14.425626   -4.765040   -2.909642
    155          1           0       14.734567   -4.085140    2.164499
    156          1           0       16.983460   -6.375514    5.041914
    157          1           0       17.288394   -4.614000    5.614635
    158          1           0       18.269131   -5.488924    4.412592
 ---------------------------------------------------------------------

 SCF Done:  E(RCAM-B3LYP) =  -4069.81177657     A.U. after   19 cycles

 Excitation energies and oscillator strengths:

 Excited State   1:      Singlet-A      1.6755 eV  739.97 nm  f=0.3677  <S**2>=0.000
     310 -> 316        0.17291
     312 -> 313        0.68329
     310 <- 316        0.10423
 This state for optimization and/or second-order correction.
 Total Energy, E(TD-HF/TD-DFT) =  -4069.75020220
 Copying the excited state density for this state as the 1-particle RhoCI density.

 Excited State   2:      Singlet-A      1.6799 eV  738.06 nm  f=0.4085  <S**2>=0.000
     309 -> 315        0.17482
     311 -> 314        0.68294
     309 <- 315        0.10469

 Excited State   3:      Singlet-A      2.1861 eV  567.15 nm  f=0.1018  <S**2>=0.000
     310 -> 313        0.64246
     312 -> 316       -0.27312

 Excited State   4:      Singlet-A      2.1925 eV  565.50 nm  f=0.0991  <S**2>=0.000
     309 -> 314        0.64069
     311 -> 315       -0.27825

 Excited State   5:      Singlet-A      3.0656 eV  404.43 nm  f=0.0000  <S**2>=0.000
     311 -> 313        0.70711

 The electronic state is 1-A.
 Alpha  occ. eigenvalues --  -46.87796 -46.87661 -19.26354 -19.26278 -19.19165
 Alpha  occ. eigenvalues --  -19.19015 -19.18817 -19.18713 -19.18167 -19.18053
 Alpha  occ. eigenvalues --  -14.42498 -14.42449 -14.41449 -14.41359 -14.39402
 Alpha  occ. eigenvalues --  -14.39352 -14.38600 -14.38586 -10.39094 -10.39074
 Alpha  occ. eigenvalues --  -10.35450 -10.35391 -10.34387 -10.34230 -10.31762
 Alpha  occ. eigenvalues --  -10.31671 -10.31403 -10.31310 -10.31024 -10.30907
 Alpha  occ. eigenvalues --  -10.30569 -10.30507 -10.30398 -10.30361 -10.30207
 Alpha  occ. eigenvalues --  -10.30140 -10.29921 -10.29894 -10.29630 -10.29437
 Alpha  occ. eigenvalues --  -10.29401 -10.29254 -10.28745 -10.28722 -10.28659
 Alpha  occ. eigenvalues --  -10.28531 -10.28406 -10.28364 -10.28142 -10.28113
 Alpha  occ. eigenvalues --  -10.28002 -10.27792 -10.27726 -10.27670 -10.27584
 Alpha  occ. eigenvalues --  -10.27515 -10.27502 -10.27485 -10.27481 -10.27468
 Alpha  occ. eigenvalues --  -10.27465 -10.27451 -10.27402 -10.27373 -10.27155
 Alpha  occ. eigenvalues --  -10.27053 -10.26700 -10.26696 -10.26414 -10.26414
 Alpha  occ. eigenvalues --  -10.26231 -10.26186 -10.26135 -10.26027 -10.26019
 Alpha  occ. eigenvalues --  -10.25934 -10.25851 -10.25842 -10.25437 -10.25392
 Alpha  occ. eigenvalues --  -10.24873 -10.24832 -10.24788 -10.24729 -10.24690
 Alpha  occ. eigenvalues --  -10.24690  -3.16539  -3.16411  -1.91420  -1.91293
 Alpha  occ. eigenvalues --   -1.91007  -1.90881  -1.90849  -1.90718  -1.16648
 Alpha  occ. eigenvalues --   -1.16627  -1.08660  -1.08625  -1.07218  -1.06966
 Alpha  occ. eigenvalues --   -1.06949  -1.06637  -1.04580  -1.04496  -1.03760
 Alpha  occ. eigenvalues --   -1.03663  -1.03233  -1.03039  -1.02411  -1.02112
 Alpha  occ. eigenvalues --   -0.91988  -0.91970  -0.89520  -0.89494  -0.89185
 Alpha  occ. eigenvalues --   -0.89153  -0.88287  -0.88219  -0.87869  -0.87794
 Alpha  occ. eigenvalues --   -0.87685  -0.87672  -0.87274  -0.87120  -0.85001
 Alpha  occ. eigenvalues --   -0.84980  -0.83937  -0.83875  -0.82969  -0.82931
 Alpha  occ. eigenvalues --   -0.82654  -0.82647  -0.81599  -0.81582  -0.80595
 Alpha  occ. eigenvalues --   -0.80444  -0.78797  -0.78636  -0.77217  -0.77145
 Alpha  occ. eigenvalues --   -0.76932  -0.76900  -0.75920  -0.75841  -0.74898
 Alpha  occ. eigenvalues --   -0.74802  -0.72774  -0.72699  -0.71671  -0.71581
 Alpha  occ. eigenvalues --   -0.69908  -0.69756  -0.68871  -0.68829  -0.67640
 Alpha  occ. eigenvalues --   -0.67602  -0.67217  -0.67202  -0.65284  -0.65274
 Alpha  occ. eigenvalues --   -0.64852  -0.64771  -0.64655  -0.64619  -0.64270
 Alpha  occ. eigenvalues --   -0.64203  -0.62294  -0.62281  -0.60442  -0.60339
 Alpha  occ. eigenvalues --   -0.59802  -0.59798  -0.58993  -0.58986  -0.58503
 Alpha  occ. eigenvalues --   -0.58426  -0.57582  -0.57557  -0.57308  -0.57236
 Alpha  occ. eigenvalues --   -0.56309  -0.56205  -0.55974  -0.55889  -0.55520
 Alpha  occ. eigenvalues --   -0.55453  -0.55339  -0.55248  -0.54522  -0.54489
 Alpha  occ. eigenvalues --   -0.53915  -0.53892  -0.53298  -0.53228  -0.53220
 Alpha  occ. eigenvalues --   -0.53143  -0.52913  -0.52904  -0.52756  -0.52668
 Alpha  occ. eigenvalues --   -0.52439  -0.52400  -0.51914  -0.51885  -0.51660
 Alpha  occ. eigenvalues --   -0.51614  -0.51202  -0.51194  -0.50574  -0.50475
 Alpha  occ. eigenvalues --   -0.50032  -0.49980  -0.49918  -0.49866  -0.49513
 Alpha  occ. eigenvalues --   -0.49488  -0.49213  -0.49204  -0.49106  -0.49093
 Alpha  occ. eigenvalues --   -0.48590  -0.48560  -0.48462  -0.48445  -0.48375
 Alpha  occ. eigenvalues --   -0.48339  -0.47694  -0.47595  -0.47296  -0.47118
 Alpha  occ. eigenvalues --   -0.46796  -0.46709  -0.46556  -0.46552  -0.46358
 Alpha  occ. eigenvalues --   -0.46271  -0.46161  -0.46086  -0.45824  -0.45819
 Alpha  occ. eigenvalues --   -0.45207  -0.45202  -0.44576  -0.44516  -0.44506
 Alpha  occ. eigenvalues --   -0.44477  -0.44144  -0.44129  -0.44086  -0.44078
 Alpha  occ. eigenvalues --   -0.44018  -0.43940  -0.43555  -0.43492  -0.43387
 Alpha  occ. eigenvalues --   -0.43384  -0.43026  -0.42933  -0.42903  -0.42696
 Alpha  occ. eigenvalues --   -0.42653  -0.42553  -0.42009  -0.41965  -0.41703
 Alpha  occ. eigenvalues --   -0.41670  -0.41531  -0.41460  -0.41140  -0.40990
 Alpha  occ. eigenvalues --   -0.40867  -0.40824  -0.40723  -0.40699  -0.40571
 Alpha  occ. eigenvalues --   -0.40493  -0.40230  -0.40229  -0.39442  -0.39424
 Alpha  occ. eigenvalues --   -0.38469  -0.38349  -0.37745  -0.37656  -0.37320
 Alpha  occ. eigenvalues --   -0.37266  -0.37261  -0.37201  -0.36774  -0.36710
 Alpha  occ. eigenvalues --   -0.36218  -0.36190  -0.34285  -0.34254  -0.33865
 Alpha  occ. eigenvalues --   -0.33766  -0.33185  -0.33176  -0.31347  -0.31272
 Alpha  occ. eigenvalues --   -0.31035  -0.30973  -0.30026  -0.29958  -0.29449
 Alpha  occ. eigenvalues --   -0.29327  -0.29321  -0.29212  -0.24080  -0.24037
 Alpha  occ. eigenvalues --   -0.21127  -0.21117
 Alpha virt. eigenvalues --   -0.08792  -0.08774  -0.01749  -0.01684  -0.00058
 Alpha virt. eigenvalues --   -0.00029   0.02201   0.02206   0.03121   0.03224
 Alpha virt. eigenvalues --    0.04720   0.04728   0.05103   0.05161   0.06180

 Mulliken charges:
               1
     1  Mg   0.838679
     2  C   -0.002961
     3  C   -0.094114
     4  C   -0.045878
     5  C   -0.063949
     6  N   -0.256785
     7  C   -0.052430
     8  C   -0.014049
     9  C   -0.086989
    10  C    0.046323
    11  C    0.104814
    12  C    0.053470
    13  C   -0.071837
    14  H    0.036202
    15  N   -0.433125
    16  C    0.168414
    17  C   -0.177160
    18  C   -0.004015
    19  C    0.148706
    20  C    0.110181
    21  C    0.012269
    22  O   -0.249662
    23  C    0.062483
    24  N   -0.341123
    25  C    0.041242
    26  C   -0.028178
    27  C   -0.023971
    28  C    0.074826
    29  C    0.076185
    30  C    0.035134
    31  C   -0.004501
    32  N   -0.310458
    33  C    0.080399
    34  C   -0.169715
    35  C    0.008377
    36  C    0.082997
    37  C    0.127312
    38  C    0.046120
    39  O   -0.188409
    40  C   -0.005320
    41  C    0.212887
    42  O   -0.257097
    43  O   -0.304801
    44  C    0.157677
    45  H   -0.017593
    46  H   -0.016870
    47  H   -0.041502
    48  H    0.000958
    49  H   -0.004012
    50  H    0.025480
    51  H    0.016431
    52  H    0.016675
    53  H    0.011202
    54  H    0.044132
    55  H    0.017878
    56  H    0.017960
    57  H    0.005896
    58  H    0.026812
    59  H    0.039540
    60  H    0.037356
    61  H    0.035600
    62  H    0.031497
    63  H    0.016522
    64  H    0.009460
    65  H    0.023180
    66  H    0.012553
    67  H    0.004750
    68  H    0.006339
    69  H    0.004735
    70  H    0.008750
    71  H    0.018129
    72  H    0.029006
    73  H    0.047582
    74  H    0.009099
    75  H    0.046016
    76  H    0.035164
    77  H    0.042970
    78  H    0.046421
    79  H    0.053711
    80  Mg   0.837819
    81  C   -0.016847
    82  C   -0.087793
    83  C   -0.045484
    84  C   -0.064851
    85  N   -0.254576
    86  C   -0.049818
    87  C   -0.015113
    88  C   -0.090488
    89  C    0.045759
    90  C    0.114368
    91  C    0.062523
    92  C   -0.077884
    93  H    0.034874
    94  N   -0.423493
    95  C    0.162933
    96  C   -0.174609
    97  C   -0.007789
    98  C    0.152114
    99  C    0.099362
   100  C    0.015595
   101  O   -0.253144
   102  C    0.061181
   103  N   -0.350049
   104  C    0.037545
   105  C   -0.019858
   106  C   -0.034814
   107  C    0.088903
   108  C    0.073627
   109  C    0.034735
   110  C   -0.007690
   111  N   -0.324101
   112  C    0.078437
   113  C   -0.163119
   114  C    0.002247
   115  C    0.096193
   116  C    0.131492
   117  C    0.042373
   118  O   -0.187900
   119  C    0.000912
   120  C    0.211276
   121  O   -0.251026
   122  O   -0.305638
   123  C    0.152040
   124  H   -0.019650
   125  H   -0.015534
   126  H   -0.040420
   127  H   -0.000667
   128  H   -0.004334
   129  H    0.022463
   130  H    0.014469
   131  H    0.016276
   132  H    0.013924
   133  H    0.037676
   134  H    0.020771
   135  H    0.019592
   136  H    0.008757
   137  H    0.026182
   138  H    0.039796
   139  H    0.038273
   140  H    0.036424
   141  H    0.033888
   142  H    0.014412
   143  H    0.012480
   144  H    0.025181
   145  H    0.011669
   146  H    0.005746
   147  H    0.006307
   148  H    0.003665
   149  H    0.010943
   150  H    0.017935
   151  H    0.030076
   152  H    0.045992
   153  H    0.008538
   154  H    0.046978
   155  H    0.035020
   156  H    0.043886
   157  H    0.049483
   158  H    0.053578
 Sum of Mulliken charges =  -0.00000

 Dipole moment (field-independent basis, Debye):
    X=             -3.8126    Y=              1.9855    Z=              6.5801  Tot=              7.8597
 Quadrupole moment (field-independent basis, Debye-Ang):
   XX=           -517.2009   YY=           -518.0997   ZZ=           -480.7466
   XY=             72.7873   XZ=            -22.3222   YZ=            -17.2349

 Normal termination of Gaussian 16 at Sun Sep 12 17:15:51 2021.
