 Gaussian 16, Revision A.03,
 Gaussian 16:  ES64L-G16RevA.03 25-Dec-2016

 -----------------------------------
 #p cam-b3lyp/Def2SVP td=(nstates=5)
 -----------------------------------

 --------------------------------
 TDDFT excited states in gaussian
 --------------------------------
 Symbolic Z-matrix:
 Charge =  0 Multiplicity = 1

                         Standard orientation:
 ---------------------------------------------------------------------
 Center     Atomic      Atomic             Coordinates (Angstroms)
 Number     Number       Type             X           Y           Z
 ---------------------------------------------------------------------
      1         12           0       -5.046801   -1.190545   -0.158910
      2          6           0       -5.562192    2.328397    0.245612
      3          6           0       -5.820362   -0.773975   -3.456050
      4          6           0       -5.042536   -4.348660   -0.446851
      5          6           0       -5.430634   -1.493856    3.291646
      6          7           0       -5.601763    0.599583   -1.337089
      7          6           0       -5.705337    1.898842   -1.075614
      8          6           0       -5.905656    2.771588   -2.350588
      9          6           0       -6.528167    1.666610   -3.316768
     10          6           0       -5.920047    0.424755   -2.689147
     11          6           0       -8.047708    1.567237   -3.229473
     12          6           0       -4.552381    3.325469   -2.910582
     13          6           0       -4.683661    4.442832   -3.949629
     14          1           0       -3.691925    5.507563   -3.962101
     15          7           0       -4.902848   -2.330311   -1.766100
     16          6           0       -5.248196   -1.992804   -3.031845
     17          6           0       -4.953096   -3.178497   -3.864750
     18          6           0       -4.586538   -4.296329   -2.951414
     19          6           0       -4.858208   -3.702871   -1.667132
     20          6           0       -4.985713   -3.160888   -5.362206
     21          6           0       -4.082880   -5.683379   -3.197487
     22          8           0       -4.048622   -6.568164   -2.275232
     23          6           0       -3.708607   -6.009789   -4.585442
     24          7           0       -5.429513   -2.739693    1.186938
     25          6           0       -5.301275   -4.019623    0.820443
     26          6           0       -5.347030   -4.934830    2.007978
     27          6           0       -5.289939   -3.991817    3.295309
     28          6           0       -5.304416   -2.617392    2.581854
     29          6           0       -6.575415   -5.850564    2.100249
     30          6           0       -4.168653   -4.276036    4.326016
     31          6           0       -2.820481   -3.960391    3.717824
     32          7           0       -5.252179    0.169680    1.519975
     33          6           0       -5.421949   -0.175194    2.868647
     34          6           0       -5.623398    1.081120    3.613737
     35          6           0       -5.573026    2.074771    2.638049
     36          6           0       -5.380206    1.475036    1.360774
     37          6           0       -5.878126    1.190686    5.009281
     38          6           0       -5.661857    3.501796    2.374301
     39          8           0       -5.726762    4.511204    3.077420
     40          6           0       -5.780262    3.714057    0.800531
     41          6           0       -4.802127    4.789060    0.412034
     42          8           0       -3.572236    4.598276    0.503331
     43          8           0       -5.454036    5.774549   -0.223866
     44          6           0       -4.536531    6.859830   -0.662617
     45          1           0       -6.272474   -0.804232   -4.449338
     46          1           0       -4.937756   -5.434910   -0.485835
     47          1           0       -5.472499   -1.503731    4.382335
     48          1           0       -6.606216    3.598106   -2.230139
     49          1           0       -6.180708    1.781297   -4.343336
     50          1           0       -8.441557    2.184094   -2.421827
     51          1           0       -8.260289    0.514411   -3.042767
     52          1           0       -8.506951    1.799784   -4.190615
     53          1           0       -4.075655    2.559010   -3.521594
     54          1           0       -3.907770    3.662611   -2.098093
     55          1           0       -5.691310    4.859245   -3.961974
     56          1           0       -4.559490    4.004619   -4.939958
     57          1           0       -5.448345   -2.250811   -5.742043
     58          1           0       -5.658681   -3.958832   -5.675429
     59          1           0       -3.998579   -3.321011   -5.796094
     60          1           0       -4.573162   -5.867696   -5.234213
     61          1           0       -3.287428   -7.014047   -4.555063
     62          1           0       -2.952084   -5.300870   -4.923166
     63          1           0       -4.488809   -5.605486    2.018126
     64          1           0       -6.208321   -4.042741    3.880676
     65          1           0       -6.327941   -6.910987    2.154691
     66          1           0       -7.216303   -5.642013    1.244059
     67          1           0       -7.246176   -5.633232    2.931070
     68          1           0       -4.159828   -5.331673    4.595272
     69          1           0       -4.273274   -3.700084    5.245572
     70          1           0       -2.583418   -4.869442    3.166228
     71          1           0       -2.084013   -3.775376    4.500509
     72          1           0       -2.890737   -3.148688    2.993470
     73          1           0       -5.260833    2.014108    5.368298
     74          1           0       -5.641677    0.262483    5.529026
     75          1           0       -6.946643    1.405376    5.003265
     76          1           0       -6.810615    4.006283    0.600284
     77          1           0       -4.913958    7.790310   -0.238365
     78          1           0       -4.469877    6.789184   -1.748421
     79          1           0       -3.529071    6.837286   -0.245657
     80         12           0        5.498127   -0.302184    0.285436
     81          6           0        4.098365    2.998287    0.448528
     82          6           0        5.654922    0.093350   -3.098878
     83          6           0        6.308656   -3.361907    0.065094
     84          6           0        4.191525   -0.863095    3.467236
     85          7           0        4.921680    1.374796   -1.036566
     86          6           0        4.457677    2.602269   -0.856654
     87          6           0        4.449397    3.480752   -2.136409
     88          6           0        4.404148    2.308165   -3.232704
     89          6           0        5.065827    1.193165   -2.425473
     90          6           0        2.992959    1.868985   -3.586268
     91          6           0        5.750320    4.346980   -2.275210
     92          6           0        5.677180    5.452577   -3.330704
     93          1           0        6.366477    6.712773   -3.067567
     94          7           0        6.369823   -1.296469   -1.194476
     95          6           0        6.351589   -0.983059   -2.506992
     96          6           0        7.121834   -2.038266   -3.183332
     97          6           0        7.456744   -3.088537   -2.183601
     98          6           0        6.690156   -2.622988   -1.045307
     99          6           0        7.536319   -1.947217   -4.623240
    100          6           0        8.313649   -4.316545   -2.246115
    101          8           0        8.272210   -5.213793   -1.331754
    102          6           0        9.133671   -4.482905   -3.454986
    103          7           0        5.104024   -1.954985    1.483459
    104          6           0        5.619865   -3.161212    1.188747
    105          6           0        5.431692   -4.129168    2.332451
    106          6           0        4.894686   -3.249851    3.555562
    107          6           0        4.775346   -1.881132    2.850039
    108          6           0        4.465190   -5.284732    2.073775
    109          6           0        5.695228   -3.329207    4.884282
    110          6           0        7.059448   -2.703544    4.703052
    111          7           0        4.513669    0.889633    1.794891
    112          6           0        4.026151    0.449852    3.045092
    113          6           0        3.334707    1.595877    3.670352
    114          6           0        3.448883    2.624484    2.723044
    115          6           0        4.143609    2.146981    1.578995
    116          6           0        2.670640    1.580698    4.929286
    117          6           0        3.130391    4.002598    2.426255
    118          8           0        2.628616    4.933158    3.055557
    119          6           0        3.426250    4.269563    0.887555
    120          6           0        4.209411    5.549277    0.780364
    121          8           0        5.358842    5.627964    1.248589
    122          8           0        3.562174    6.394357   -0.042610
    123          6           0        4.305683    7.673974   -0.189588
    124          1           0        5.537630    0.024104   -4.180692
    125          1           0        6.660780   -4.395835    0.087104
    126          1           0        3.842919   -0.928879    4.500110
    127          1           0        3.582419    4.121869   -2.241704
    128          1           0        5.005817    2.557544   -4.102855
    129          1           0        2.254536    2.337777   -2.952947
    130          1           0        2.977405    0.794996   -3.454532
    131          1           0        2.798191    2.045237   -4.648031
    132          1           0        6.548106    3.728388   -2.706044
    133          1           0        6.030200    4.768369   -1.329313
    134          1           0        4.648281    5.639122   -3.661610
    135          1           0        6.189913    5.106760   -4.231564
    136          1           0        7.004888   -1.141536   -5.144633
    137          1           0        7.190057   -2.863154   -5.114185
    138          1           0        8.618625   -1.868041   -4.745804
    139          1           0        8.488110   -4.498806   -4.329893
    140          1           0        9.742455   -5.371119   -3.275202
    141          1           0        9.784153   -3.607392   -3.559714
    142          1           0        6.373807   -4.583705    2.613373
    143          1           0        3.875899   -3.541247    3.850502
    144          1           0        4.925916   -6.280023    2.219393
    145          1           0        4.078968   -5.188008    1.067784
    146          1           0        3.556203   -5.269390    2.672691
    147          1           0        5.866496   -4.372256    5.161516
    148          1           0        5.193902   -2.852074    5.719754
    149          1           0        7.645461   -3.513706    4.258853
    150          1           0        7.471609   -2.398615    5.662839
    151          1           0        7.023444   -1.885074    3.974713
    152          1           0        2.946713    2.494786    5.437951
    153          1           0        2.942730    0.702926    5.511753
    154          1           0        1.628702    1.547889    4.599805
    155          1           0        2.465375    4.333518    0.375500
    156          1           0        3.615324    8.477856    0.084034
    157          1           0        4.695815    7.675604   -1.224739
    158          1           0        5.126313    7.858172    0.493859
 ---------------------------------------------------------------------

 SCF Done:  E(RCAM-B3LYP) =  -4069.81097368     A.U. after   19 cycles

 Excitation energies and oscillator strengths:

 Excited State   1:      Singlet-A      1.6563 eV  748.55 nm  f=0.0337  <S**2>=0.000
     309 -> 315       -0.11469
     310 -> 316        0.12411
     311 -> 313       -0.46484
     312 -> 314        0.50607
 This state for optimization and/or second-order correction.
 Total Energy, E(TD-HF/TD-DFT) =  -4069.75010522
 Copying the excited state density for this state as the 1-particle RhoCI density.

 Excited State   2:      Singlet-A      1.6982 eV  730.10 nm  f=0.6907  <S**2>=0.000
     309 -> 315        0.13269
     310 -> 316        0.12104
     311 -> 313        0.50411
     312 -> 314        0.46317

 Excited State   3:      Singlet-A      2.1832 eV  567.91 nm  f=0.0154  <S**2>=0.000
     309 -> 313        0.30828
     310 -> 314        0.56519
     311 -> 315       -0.12904
     312 -> 316       -0.23808

 Excited State   4:      Singlet-A      2.1949 eV  564.87 nm  f=0.1645  <S**2>=0.000
     309 -> 313        0.56159
     310 -> 314       -0.30501
     311 -> 315       -0.24680
     312 -> 316        0.13473

 Excited State   5:      Singlet-A      2.4901 eV  497.90 nm  f=0.0000  <S**2>=0.000
     312 -> 313        0.70705

 The electronic state is 1-A.
 Alpha  occ. eigenvalues --  -46.87801 -46.87458 -19.26178 -19.26098 -19.18910
 Alpha  occ. eigenvalues --  -19.18902 -19.18825 -19.18542 -19.18104 -19.17725
 Alpha  occ. eigenvalues --  -14.42458 -14.42303 -14.41457 -14.41158 -14.39407
 Alpha  occ. eigenvalues --  -14.39150 -14.38581 -14.38380 -10.38972 -10.38833
 Alpha  occ. eigenvalues --  -10.35461 -10.35224 -10.34325 -10.33901 -10.31562
 Alpha  occ. eigenvalues --  -10.31548 -10.31403 -10.31095 -10.30917 -10.30832
 Alpha  occ. eigenvalues --  -10.30564 -10.30503 -10.30227 -10.30179 -10.30134
 Alpha  occ. eigenvalues --  -10.29969 -10.29920 -10.29680 -10.29626 -10.29263
 Alpha  occ. eigenvalues --  -10.29247 -10.29183 -10.28769 -10.28600 -10.28542
 Alpha  occ. eigenvalues --  -10.28535 -10.28358 -10.28184 -10.28135 -10.27975
 Alpha  occ. eigenvalues --  -10.27781 -10.27770 -10.27736 -10.27585 -10.27532
 Alpha  occ. eigenvalues --  -10.27516 -10.27480 -10.27471 -10.27398 -10.27360
 Alpha  occ. eigenvalues --  -10.27324 -10.27268 -10.27258 -10.27204 -10.27103
 Alpha  occ. eigenvalues --  -10.26751 -10.26732 -10.26541 -10.26439 -10.26284
 Alpha  occ. eigenvalues --  -10.26247 -10.26241 -10.26029 -10.26004 -10.25877
 Alpha  occ. eigenvalues --  -10.25801 -10.25741 -10.25559 -10.25452 -10.25227
 Alpha  occ. eigenvalues --  -10.24813 -10.24790 -10.24773 -10.24629 -10.24598
 Alpha  occ. eigenvalues --  -10.24483  -3.16544  -3.16208  -1.91426  -1.91090
 Alpha  occ. eigenvalues --   -1.91012  -1.90854  -1.90679  -1.90515  -1.16525
 Alpha  occ. eigenvalues --   -1.16392  -1.08553  -1.08320  -1.07227  -1.06797
 Alpha  occ. eigenvalues --   -1.06690  -1.06527  -1.04586  -1.04294  -1.03767
 Alpha  occ. eigenvalues --   -1.03460  -1.03234  -1.02833  -1.02412  -1.01900
 Alpha  occ. eigenvalues --   -0.91953  -0.91747  -0.89537  -0.89305  -0.89207
 Alpha  occ. eigenvalues --   -0.88979  -0.88305  -0.88041  -0.87852  -0.87684
 Alpha  occ. eigenvalues --   -0.87550  -0.87490  -0.87286  -0.86940  -0.84998
 Alpha  occ. eigenvalues --   -0.84822  -0.83956  -0.83696  -0.82987  -0.82769
 Alpha  occ. eigenvalues --   -0.82654  -0.82473  -0.81545  -0.81373  -0.80581
 Alpha  occ. eigenvalues --   -0.80235  -0.78801  -0.78435  -0.77232  -0.76962
 Alpha  occ. eigenvalues --   -0.76935  -0.76710  -0.75909  -0.75638  -0.74904
 Alpha  occ. eigenvalues --   -0.74614  -0.72773  -0.72487  -0.71672  -0.71383
 Alpha  occ. eigenvalues --   -0.69944  -0.69596  -0.68884  -0.68645  -0.67635
 Alpha  occ. eigenvalues --   -0.67393  -0.67244  -0.67032  -0.65294  -0.65079
 Alpha  occ. eigenvalues --   -0.64843  -0.64615  -0.64569  -0.64454  -0.64283
 Alpha  occ. eigenvalues --   -0.64018  -0.62243  -0.62054  -0.60453  -0.60153
 Alpha  occ. eigenvalues --   -0.59814  -0.59607  -0.58984  -0.58784  -0.58493
 Alpha  occ. eigenvalues --   -0.58209  -0.57535  -0.57298  -0.57283  -0.57028
 Alpha  occ. eigenvalues --   -0.56302  -0.55995  -0.55926  -0.55673  -0.55520
 Alpha  occ. eigenvalues --   -0.55329  -0.55255  -0.55045  -0.54494  -0.54285
 Alpha  occ. eigenvalues --   -0.53910  -0.53739  -0.53301  -0.53225  -0.53033
 Alpha  occ. eigenvalues --   -0.52948  -0.52889  -0.52773  -0.52702  -0.52508
 Alpha  occ. eigenvalues --   -0.52470  -0.52238  -0.51882  -0.51626  -0.51615
 Alpha  occ. eigenvalues --   -0.51482  -0.51181  -0.50974  -0.50600  -0.50321
 Alpha  occ. eigenvalues --   -0.50061  -0.49932  -0.49809  -0.49691  -0.49521
 Alpha  occ. eigenvalues --   -0.49308  -0.49196  -0.49096  -0.48995  -0.48889
 Alpha  occ. eigenvalues --   -0.48567  -0.48469  -0.48424  -0.48345  -0.48186
 Alpha  occ. eigenvalues --   -0.48130  -0.47699  -0.47409  -0.47297  -0.46936
 Alpha  occ. eigenvalues --   -0.46806  -0.46568  -0.46521  -0.46382  -0.46358
 Alpha  occ. eigenvalues --   -0.46144  -0.46075  -0.45867  -0.45783  -0.45586
 Alpha  occ. eigenvalues --   -0.45214  -0.45020  -0.44548  -0.44528  -0.44324
 Alpha  occ. eigenvalues --   -0.44268  -0.44159  -0.44102  -0.43994  -0.43931
 Alpha  occ. eigenvalues --   -0.43892  -0.43722  -0.43456  -0.43398  -0.43345
 Alpha  occ. eigenvalues --   -0.43186  -0.43019  -0.42714  -0.42708  -0.42661
 Alpha  occ. eigenvalues --   -0.42590  -0.42379  -0.42025  -0.41787  -0.41689
 Alpha  occ. eigenvalues --   -0.41552  -0.41424  -0.41285  -0.41142  -0.40893
 Alpha  occ. eigenvalues --   -0.40844  -0.40794  -0.40588  -0.40558  -0.40534
 Alpha  occ. eigenvalues --   -0.40312  -0.40271  -0.40072  -0.39488  -0.39269
 Alpha  occ. eigenvalues --   -0.38494  -0.38179  -0.37775  -0.37490  -0.37337
 Alpha  occ. eigenvalues --   -0.37274  -0.37083  -0.37010  -0.36653  -0.36543
 Alpha  occ. eigenvalues --   -0.36160  -0.36019  -0.34284  -0.34044  -0.33674
 Alpha  occ. eigenvalues --   -0.33618  -0.33176  -0.32967  -0.31355  -0.31101
 Alpha  occ. eigenvalues --   -0.31034  -0.30767  -0.29962  -0.29627  -0.29449
 Alpha  occ. eigenvalues --   -0.29304  -0.29123  -0.28962  -0.24081  -0.23826
 Alpha  occ. eigenvalues --   -0.21131  -0.20912
 Alpha virt. eigenvalues --   -0.08772  -0.08577  -0.01757  -0.01487  -0.00060
 Alpha virt. eigenvalues --    0.00170   0.02230   0.02473   0.03096   0.03415
 Alpha virt. eigenvalues --    0.04702   0.04912   0.05194   0.05423   0.06148

 Mulliken charges:
               1
     1  Mg   0.838474
     2  C   -0.002768
     3  C   -0.094561
     4  C   -0.045880
     5  C   -0.064212
     6  N   -0.256647
     7  C   -0.052672
     8  C   -0.013799
     9  C   -0.086906
    10  C    0.046012
    11  C    0.104835
    12  C    0.053638
    13  C   -0.071409
    14  H    0.035465
    15  N   -0.433078
    16  C    0.168115
    17  C   -0.177534
    18  C   -0.004159
    19  C    0.148579
    20  C    0.110285
    21  C    0.012222
    22  O   -0.249650
    23  C    0.062585
    24  N   -0.341076
    25  C    0.041033
    26  C   -0.028132
    27  C   -0.023979
    28  C    0.074835
    29  C    0.076159
    30  C    0.035198
    31  C   -0.004393
    32  N   -0.310665
    33  C    0.080555
    34  C   -0.169392
    35  C    0.009060
    36  C    0.083208
    37  C    0.127018
    38  C    0.047227
    39  O   -0.186708
    40  C   -0.005741
    41  C    0.213227
    42  O   -0.255641
    43  O   -0.305282
    44  C    0.156954
    45  H   -0.017860
    46  H   -0.016958
    47  H   -0.041480
    48  H    0.001269
    49  H   -0.004588
    50  H    0.025667
    51  H    0.016499
    52  H    0.016471
    53  H    0.010134
    54  H    0.044413
    55  H    0.018332
    56  H    0.017171
    57  H    0.005538
    58  H    0.026800
    59  H    0.038699
    60  H    0.037260
    61  H    0.035717
    62  H    0.030972
    63  H    0.016301
    64  H    0.009639
    65  H    0.023154
    66  H    0.012658
    67  H    0.004776
    68  H    0.006277
    69  H    0.004789
    70  H    0.008659
    71  H    0.016650
    72  H    0.029493
    73  H    0.048921
    74  H    0.008775
    75  H    0.046097
    76  H    0.035040
    77  H    0.043303
    78  H    0.045200
    79  H    0.055812
    80  Mg   0.837402
    81  C   -0.016306
    82  C   -0.088098
    83  C   -0.045702
    84  C   -0.065135
    85  N   -0.254364
    86  C   -0.049518
    87  C   -0.015034
    88  C   -0.090604
    89  C    0.045536
    90  C    0.114131
    91  C    0.062667
    92  C   -0.077391
    93  H    0.034446
    94  N   -0.423330
    95  C    0.162503
    96  C   -0.175341
    97  C   -0.008229
    98  C    0.151785
    99  C    0.099683
   100  C    0.015177
   101  O   -0.253653
   102  C    0.061381
   103  N   -0.350043
   104  C    0.037325
   105  C   -0.019687
   106  C   -0.034744
   107  C    0.089322
   108  C    0.073757
   109  C    0.034805
   110  C   -0.007573
   111  N   -0.324490
   112  C    0.078921
   113  C   -0.162712
   114  C    0.004008
   115  C    0.095725
   116  C    0.131118
   117  C    0.045203
   118  O   -0.184720
   119  C   -0.000166
   120  C    0.211010
   121  O   -0.251839
   122  O   -0.304893
   123  C    0.152290
   124  H   -0.020873
   125  H   -0.016021
   126  H   -0.040749
   127  H    0.000034
   128  H   -0.005198
   129  H    0.024459
   130  H    0.013891
   131  H    0.014282
   132  H    0.013627
   133  H    0.037857
   134  H    0.020352
   135  H    0.018961
   136  H    0.008001
   137  H    0.025191
   138  H    0.039181
   139  H    0.037795
   140  H    0.035882
   141  H    0.033642
   142  H    0.013978
   143  H    0.012023
   144  H    0.024693
   145  H    0.012100
   146  H    0.005410
   147  H    0.005801
   148  H    0.003346
   149  H    0.010779
   150  H    0.017614
   151  H    0.030393
   152  H    0.046195
   153  H    0.007125
   154  H    0.050279
   155  H    0.039751
   156  H    0.043857
   157  H    0.048487
   158  H    0.053234
 Sum of Mulliken charges =  -0.00000

 Dipole moment (field-independent basis, Debye):
    X=             -2.2381    Y=             -2.0140    Z=             -7.9326  Tot=              8.4848
 Quadrupole moment (field-independent basis, Debye-Ang):
   XX=           -505.0941   YY=           -543.1187   ZZ=           -455.5090
   XY=             10.9094   XZ=             -2.7699   YZ=            -53.1137

 Normal termination of Gaussian 16 at Fri Sep 10 22:13:17 2021.
