 Gaussian 16, Revision A.03,
 Gaussian 16:  ES64L-G16RevA.03 25-Dec-2016

 -----------------------------------
 #p cam-b3lyp/Def2SVP td=(nstates=5)
 -----------------------------------

 --------------------------------
 TDDFT excited states in gaussian
 --------------------------------
 Symbolic Z-matrix:
 Charge =  0 Multiplicity = 1

                         Standard orientation:
 ---------------------------------------------------------------------
 Center     Atomic      Atomic             Coordinates (Angstroms)
 Number     Number       Type             X           Y           Z
 ---------------------------------------------------------------------
      1         12           0       -4.285656    0.670484   -0.996486
      2          6           0       -4.960054   -2.534289    0.448101
      3          6           0       -5.842605    2.051388    1.707599
      4          6           0       -4.106779    3.476496   -2.463089
      5          6           0       -3.822734   -0.963052   -4.039991
      6          7           0       -5.237899   -0.231395    0.786908
      7          6           0       -5.376508   -1.469601    1.250379
      8          6           0       -5.937466   -1.526454    2.702779
      9          6           0       -6.683025   -0.117641    2.740000
     10          6           0       -5.850856    0.624868    1.709418
     11          6           0       -8.127167   -0.179519    2.253044
     12          6           0       -4.800490   -1.601475    3.776739
     13          6           0       -5.257848   -1.986550    5.186666
     14          1           0       -4.381622   -2.809277    6.006846
     15          7           0       -4.436666    2.504133   -0.276916
     16          6           0       -5.094881    2.882095    0.845217
     17          6           0       -4.913814    4.345935    0.950426
     18          6           0       -4.258021    4.814480   -0.301970
     19          6           0       -4.264759    3.605408   -1.085217
     20          6           0       -5.298955    5.137671    2.162272
     21          6           0       -3.721403    6.143879   -0.729605
     22          8           0       -3.403375    6.390578   -1.943101
     23          6           0       -3.660138    7.191457    0.305706
     24          7           0       -4.221004    1.219042   -3.009578
     25          6           0       -4.084681    2.499330   -3.371881
     26          6           0       -3.779452    2.623142   -4.835249
     27          6           0       -3.493769    1.140312   -5.354242
     28          6           0       -3.781115    0.371240   -4.041143
     29          6           0       -4.877642    3.262459   -5.696215
     30          6           0       -2.143109    0.894661   -6.072429
     31          6           0       -1.004122    1.045261   -5.089002
     32          7           0       -4.194224   -1.390851   -1.669970
     33          6           0       -4.015045   -1.840677   -2.986111
     34          6           0       -4.131448   -3.310315   -2.959964
     35          6           0       -4.388401   -3.614053   -1.624463
     36          6           0       -4.455933   -2.408589   -0.869090
     37          6           0       -4.058451   -4.172298   -4.089606
     38          6           0       -4.646062   -4.674908   -0.664227
     39          8           0       -4.621081   -5.905863   -0.704485
     40          6           0       -5.147218   -4.010853    0.693603
     41          6           0       -4.373395   -4.640027    1.819945
     42          8           0       -3.145619   -4.449797    1.937178
     43          8           0       -5.230257   -5.165754    2.708732
     44          6           0       -4.527787   -5.780332    3.866741
     45          1           0       -6.511950    2.583953    2.386049
     46          1           0       -3.931027    4.415880   -2.991394
     47          1           0       -3.606020   -1.546436   -4.936736
     48          1           0       -6.651375   -2.330341    2.883122
     49          1           0       -6.596611    0.362896    3.714341
     50          1           0       -8.366181   -1.158737    1.838405
     51          1           0       -8.208397    0.589450    1.484551
     52          1           0       -8.816038    0.114685    3.045305
     53          1           0       -4.423444   -0.597543    3.971718
     54          1           0       -4.010714   -2.281512    3.455600
     55          1           0       -6.269046   -2.394405    5.180184
     56          1           0       -5.336810   -1.076015    5.780713
     57          1           0       -5.906410    4.549179    2.848726
     58          1           0       -5.963406    5.932973    1.825066
     59          1           0       -4.432261    5.570090    2.662458
     60          1           0       -4.661310    7.366716    0.700027
     61          1           0       -3.167805    8.045013   -0.158945
     62          1           0       -3.060991    6.827768    1.140991
     63          1           0       -2.894034    3.235892   -4.999562
     64          1           0       -4.242018    0.807643   -6.074053
     65          1           0       -4.543643    4.138935   -6.252037
     66          1           0       -5.715985    3.508395   -5.045072
     67          1           0       -5.348836    2.588120   -6.410820
     68          1           0       -1.990185    1.635711   -6.856269
     69          1           0       -2.072425   -0.091983   -6.530455
     70          1           0       -0.834365    2.121294   -5.076048
     71          1           0       -0.120674    0.514914   -5.446023
     72          1           0       -1.304874    0.750701   -4.083384
     73          1           0       -3.439130   -5.017306   -3.788988
     74          1           0       -3.635851   -3.658753   -4.952904
     75          1           0       -5.111648   -4.418219   -4.224346
     76          1           0       -6.215071   -4.214493    0.766688
     77          1           0       -4.865139   -6.814646    3.934714
     78          1           0       -4.713151   -5.130413    4.722106
     79          1           0       -3.451851   -5.921508    3.758249
     80         12           0        4.431115    0.405479    1.240959
     81          6           0        4.995595   -1.109013   -1.963215
     82          6           0        3.172689   -2.593205    2.269956
     83          6           0        3.508729    1.825824    3.924107
     84          6           0        4.652045    3.503712   -0.339506
     85          7           0        4.171247   -1.526889    0.196621
     86          6           0        4.478856   -2.001563   -1.001054
     87          6           0        4.293123   -3.535255   -1.152211
     88          6           0        3.204480   -3.761011    0.006560
     89          6           0        3.554004   -2.576033    0.904530
     90          6           0        1.772150   -3.591463   -0.472024
     91          6           0        5.614947   -4.328996   -0.861057
     92          6           0        5.590078   -5.798297   -1.287998
     93          1           0        6.820698   -6.395471   -1.799286
     94          7           0        3.940030   -0.369155    3.000888
     95          6           0        3.467272   -1.610321    3.240265
     96          6           0        3.242014   -1.681941    4.692255
     97          6           0        3.464357   -0.328086    5.268779
     98          6           0        3.629634    0.450282    4.057621
     99          6           0        2.932597   -2.966158    5.405330
    100          6           0        3.506813    0.183844    6.676720
    101          8           0        3.477682    1.438279    6.938247
    102          6           0        3.489226   -0.828133    7.743070
    103          7           0        3.913534    2.367999    1.691505
    104          6           0        3.601964    2.729621    2.948520
    105          6           0        3.534978    4.232206    3.083126
    106          6           0        4.106044    4.812741    1.706741
    107          6           0        4.330953    3.487074    0.946877
    108          6           0        2.146426    4.815484    3.344054
    109          6           0        5.285463    5.818949    1.802756
    110          6           0        6.522856    5.116522    2.313484
    111          7           0        4.943265    1.109893   -0.736300
    112          6           0        4.946923    2.446753   -1.191144
    113          6           0        5.250498    2.414030   -2.636550
    114          6           0        5.380717    1.048100   -2.929420
    115          6           0        5.153033    0.282472   -1.754052
    116          6           0        5.323792    3.545553   -3.497010
    117          6           0        5.648528    0.079289   -3.967865
    118          8           0        5.996113    0.142734   -5.146385
    119          6           0        5.286415   -1.366520   -3.415706
    120          6           0        6.426038   -2.289900   -3.749082
    121          8           0        7.545292   -2.124495   -3.232830
    122          8           0        5.953838   -3.338064   -4.448186
    123          6           0        7.045162   -4.287844   -4.792782
    124          1           0        2.552684   -3.416803    2.625167
    125          1           0        3.300520    2.372596    4.846694
    126          1           0        4.835126    4.432810   -0.883508
    127          1           0        3.891034   -3.852217   -2.107002
    128          1           0        3.373144   -4.698669    0.529731
    129          1           0        1.727161   -3.229864   -1.488564
    130          1           0        1.318700   -2.878141    0.203701
    131          1           0        1.217870   -4.525228   -0.340898
    132          1           0        5.728040   -4.450498    0.223930
    133          1           0        6.459551   -3.838182   -1.304186
    134          1           0        4.749133   -6.019086   -1.956600
    135          1           0        5.399040   -6.413044   -0.405051
    136          1           0        2.668420   -3.764099    4.700428
    137          1           0        2.016487   -2.798943    5.982085
    138          1           0        3.728864   -3.271602    6.087479
    139          1           0        2.591476   -1.434700    7.650509
    140          1           0        3.615465   -0.273171    8.674715
    141          1           0        4.340851   -1.502466    7.599506
    142          1           0        4.162055    4.575941    3.896602
    143          1           0        3.337896    5.368271    1.148914
    144          1           0        2.095201    5.424896    4.266041
    145          1           0        1.436360    4.000320    3.387101
    146          1           0        1.744823    5.429460    2.539717
    147          1           0        5.054431    6.605398    2.525441
    148          1           0        5.516354    6.304966    0.860703
    149          1           0        6.380512    5.123408    3.398275
    150          1           0        7.419079    5.664414    2.029514
    151          1           0        6.542598    4.069252    1.990243
    152          1           0        6.194302    3.404261   -4.123706
    153          1           0        5.386947    4.472341   -2.930577
    154          1           0        4.371046    3.451204   -4.024879
    155          1           0        4.355792   -1.675881   -3.893011
    156          1           0        7.027211   -4.414411   -5.879681
    157          1           0        6.862322   -5.188913   -4.177651
    158          1           0        8.065273   -3.957709   -4.635131
 ---------------------------------------------------------------------

 SCF Done:  E(RCAM-B3LYP) =  -4069.81282022     A.U. after   19 cycles

 Excitation energies and oscillator strengths:

 Excited State   1:      Singlet-A      1.6711 eV  741.95 nm  f=0.3437  <S**2>=0.000
     310 -> 316        0.16516
     311 -> 313        0.17520
     312 -> 314        0.66317
 This state for optimization and/or second-order correction.
 Total Energy, E(TD-HF/TD-DFT) =  -4069.75141019
 Copying the excited state density for this state as the 1-particle RhoCI density.

 Excited State   2:      Singlet-A      1.6758 eV  739.84 nm  f=0.3282  <S**2>=0.000
     309 -> 315        0.16869
     311 -> 313        0.66281
     312 -> 314       -0.17543
     309 <- 315        0.10149

 Excited State   3:      Singlet-A      2.1842 eV  567.65 nm  f=0.1010  <S**2>=0.000
     310 -> 314        0.63881
     312 -> 316       -0.26817

 Excited State   4:      Singlet-A      2.1926 eV  565.47 nm  f=0.0963  <S**2>=0.000
     309 -> 313        0.63679
     311 -> 315       -0.27587

 Excited State   5:      Singlet-A      2.3333 eV  531.37 nm  f=0.0000  <S**2>=0.000
     312 -> 313        0.70707

 The electronic state is 1-A.
 Alpha  occ. eigenvalues --  -46.87930 -46.87421 -19.26614 -19.26155 -19.19373
 Alpha  occ. eigenvalues --  -19.18963 -19.18946 -19.18566 -19.18381 -19.17856
 Alpha  occ. eigenvalues --  -14.42587 -14.42217 -14.41570 -14.41135 -14.39535
 Alpha  occ. eigenvalues --  -14.39116 -14.38735 -14.38369 -10.39413 -10.38892
 Alpha  occ. eigenvalues --  -10.35577 -10.35247 -10.34605 -10.34031 -10.32035
 Alpha  occ. eigenvalues --  -10.31573 -10.31556 -10.31054 -10.30992 -10.30739
 Alpha  occ. eigenvalues --  -10.30720 -10.30649 -10.30304 -10.30191 -10.30109
 Alpha  occ. eigenvalues --  -10.30045 -10.29923 -10.29777 -10.29705 -10.29380
 Alpha  occ. eigenvalues --  -10.29198 -10.29189 -10.28914 -10.28742 -10.28517
 Alpha  occ. eigenvalues --  -10.28339 -10.28331 -10.28262 -10.28163 -10.27943
 Alpha  occ. eigenvalues --  -10.27858 -10.27769 -10.27725 -10.27647 -10.27585
 Alpha  occ. eigenvalues --  -10.27559 -10.27546 -10.27510 -10.27383 -10.27373
 Alpha  occ. eigenvalues --  -10.27343 -10.27267 -10.27255 -10.27239 -10.27206
 Alpha  occ. eigenvalues --  -10.26897 -10.26841 -10.26535 -10.26367 -10.26365
 Alpha  occ. eigenvalues --  -10.26300 -10.26167 -10.26135 -10.26016 -10.26009
 Alpha  occ. eigenvalues --  -10.25707 -10.25661 -10.25486 -10.25379 -10.25257
 Alpha  occ. eigenvalues --  -10.24996 -10.24915 -10.24647 -10.24642 -10.24614
 Alpha  occ. eigenvalues --  -10.24484  -3.16672  -3.16171  -1.91554  -1.91140
 Alpha  occ. eigenvalues --   -1.91054  -1.90983  -1.90642  -1.90479  -1.16964
 Alpha  occ. eigenvalues --   -1.16448  -1.08853  -1.08468  -1.07346  -1.06986
 Alpha  occ. eigenvalues --   -1.06824  -1.06749  -1.04723  -1.04217  -1.03887
 Alpha  occ. eigenvalues --   -1.03421  -1.03371  -1.02817  -1.02546  -1.01880
 Alpha  occ. eigenvalues --   -0.92143  -0.91749  -0.89610  -0.89341  -0.89305
 Alpha  occ. eigenvalues --   -0.88740  -0.88368  -0.88058  -0.88026  -0.87809
 Alpha  occ. eigenvalues --   -0.87572  -0.87407  -0.87403  -0.86913  -0.85137
 Alpha  occ. eigenvalues --   -0.84671  -0.84019  -0.83734  -0.83077  -0.82806
 Alpha  occ. eigenvalues --   -0.82766  -0.82360  -0.81802  -0.81373  -0.80767
 Alpha  occ. eigenvalues --   -0.80214  -0.78932  -0.78408  -0.77345  -0.77099
 Alpha  occ. eigenvalues --   -0.76897  -0.76614  -0.76096  -0.75504  -0.75000
 Alpha  occ. eigenvalues --   -0.74633  -0.72910  -0.72457  -0.71809  -0.71314
 Alpha  occ. eigenvalues --   -0.69951  -0.69601  -0.69025  -0.68520  -0.67793
 Alpha  occ. eigenvalues --   -0.67385  -0.67381  -0.66928  -0.65450  -0.65022
 Alpha  occ. eigenvalues --   -0.64967  -0.64769  -0.64533  -0.64395  -0.64363
 Alpha  occ. eigenvalues --   -0.64014  -0.62524  -0.62070  -0.60562  -0.60144
 Alpha  occ. eigenvalues --   -0.59956  -0.59454  -0.59131  -0.58760  -0.58657
 Alpha  occ. eigenvalues --   -0.58203  -0.57815  -0.57441  -0.57342  -0.57051
 Alpha  occ. eigenvalues --   -0.56473  -0.56219  -0.55966  -0.55673  -0.55659
 Alpha  occ. eigenvalues --   -0.55481  -0.55232  -0.55077  -0.54690  -0.54314
 Alpha  occ. eigenvalues --   -0.54055  -0.53533  -0.53436  -0.53386  -0.53108
 Alpha  occ. eigenvalues --   -0.53017  -0.52901  -0.52895  -0.52651  -0.52476
 Alpha  occ. eigenvalues --   -0.52397  -0.52251  -0.52084  -0.51784  -0.51682
 Alpha  occ. eigenvalues --   -0.51364  -0.51351  -0.50972  -0.50684  -0.50276
 Alpha  occ. eigenvalues --   -0.50114  -0.50038  -0.49771  -0.49674  -0.49637
 Alpha  occ. eigenvalues --   -0.49386  -0.49259  -0.49214  -0.48947  -0.48785
 Alpha  occ. eigenvalues --   -0.48747  -0.48611  -0.48565  -0.48282  -0.48219
 Alpha  occ. eigenvalues --   -0.48130  -0.47834  -0.47433  -0.47337  -0.46923
 Alpha  occ. eigenvalues --   -0.46901  -0.46720  -0.46504  -0.46464  -0.46308
 Alpha  occ. eigenvalues --   -0.46213  -0.46052  -0.46019  -0.45901  -0.45589
 Alpha  occ. eigenvalues --   -0.45293  -0.45053  -0.44765  -0.44633  -0.44303
 Alpha  occ. eigenvalues --   -0.44292  -0.44216  -0.44187  -0.44178  -0.43894
 Alpha  occ. eigenvalues --   -0.43796  -0.43705  -0.43703  -0.43516  -0.43334
 Alpha  occ. eigenvalues --   -0.43175  -0.43112  -0.42973  -0.42732  -0.42728
 Alpha  occ. eigenvalues --   -0.42672  -0.42375  -0.42117  -0.41856  -0.41752
 Alpha  occ. eigenvalues --   -0.41681  -0.41438  -0.41279  -0.41169  -0.41002
 Alpha  occ. eigenvalues --   -0.40954  -0.40700  -0.40655  -0.40522  -0.40425
 Alpha  occ. eigenvalues --   -0.40402  -0.40228  -0.39916  -0.39471  -0.39273
 Alpha  occ. eigenvalues --   -0.38557  -0.38164  -0.37921  -0.37430  -0.37419
 Alpha  occ. eigenvalues --   -0.37359  -0.37050  -0.36979  -0.36897  -0.36581
 Alpha  occ. eigenvalues --   -0.36354  -0.36003  -0.34430  -0.34090  -0.34013
 Alpha  occ. eigenvalues --   -0.33658  -0.33336  -0.32937  -0.31474  -0.31179
 Alpha  occ. eigenvalues --   -0.31124  -0.30730  -0.30245  -0.29761  -0.29593
 Alpha  occ. eigenvalues --   -0.29479  -0.29114  -0.28992  -0.24220  -0.23791
 Alpha  occ. eigenvalues --   -0.21262  -0.20873
 Alpha virt. eigenvalues --   -0.08916  -0.08561  -0.01877  -0.01457  -0.00203
 Alpha virt. eigenvalues --    0.00199   0.02029   0.02400   0.02841   0.03504
 Alpha virt. eigenvalues --    0.04570   0.04789   0.05038   0.05369   0.05985

 Mulliken charges:
               1
     1  Mg   0.838978
     2  C   -0.003871
     3  C   -0.093766
     4  C   -0.045573
     5  C   -0.063758
     6  N   -0.256923
     7  C   -0.052459
     8  C   -0.014177
     9  C   -0.087128
    10  C    0.046532
    11  C    0.104693
    12  C    0.053407
    13  C   -0.071429
    14  H    0.034050
    15  N   -0.433237
    16  C    0.168852
    17  C   -0.176765
    18  C   -0.003798
    19  C    0.149021
    20  C    0.110032
    21  C    0.012122
    22  O   -0.249231
    23  C    0.062427
    24  N   -0.341265
    25  C    0.041664
    26  C   -0.028308
    27  C   -0.024092
    28  C    0.075023
    29  C    0.076054
    30  C    0.034963
    31  C   -0.004920
    32  N   -0.310117
    33  C    0.079872
    34  C   -0.170643
    35  C    0.007655
    36  C    0.082241
    37  C    0.127600
    38  C    0.044612
    39  O   -0.189740
    40  C   -0.004883
    41  C    0.213248
    42  O   -0.260407
    43  O   -0.303844
    44  C    0.158390
    45  H   -0.017217
    46  H   -0.016376
    47  H   -0.041051
    48  H    0.000762
    49  H   -0.003576
    50  H    0.025446
    51  H    0.016740
    52  H    0.017040
    53  H    0.012413
    54  H    0.042270
    55  H    0.018216
    56  H    0.019136
    57  H    0.006317
    58  H    0.027144
    59  H    0.040200
    60  H    0.037835
    61  H    0.035613
    62  H    0.031237
    63  H    0.017087
    64  H    0.009658
    65  H    0.023712
    66  H    0.012329
    67  H    0.005117
    68  H    0.007460
    69  H    0.004996
    70  H    0.008905
    71  H    0.020789
    72  H    0.027632
    73  H    0.045984
    74  H    0.009770
    75  H    0.046386
    76  H    0.035635
    77  H    0.043377
    78  H    0.047065
    79  H    0.050827
    80  Mg   0.837391
    81  C   -0.016944
    82  C   -0.086502
    83  C   -0.046459
    84  C   -0.064918
    85  N   -0.254951
    86  C   -0.049175
    87  C   -0.015248
    88  C   -0.090151
    89  C    0.044637
    90  C    0.113275
    91  C    0.062398
    92  C   -0.077548
    93  H    0.033160
    94  N   -0.423647
    95  C    0.162372
    96  C   -0.173195
    97  C   -0.008924
    98  C    0.152787
    99  C    0.099286
   100  C    0.015005
   101  O   -0.254546
   102  C    0.061456
   103  N   -0.350181
   104  C    0.037558
   105  C   -0.019568
   106  C   -0.035020
   107  C    0.088723
   108  C    0.074160
   109  C    0.034966
   110  C   -0.007533
   111  N   -0.323980
   112  C    0.078051
   113  C   -0.163483
   114  C    0.001871
   115  C    0.096095
   116  C    0.131650
   117  C    0.041551
   118  O   -0.189232
   119  C    0.001375
   120  C    0.211306
   121  O   -0.251211
   122  O   -0.305598
   123  C    0.152201
   124  H   -0.013565
   125  H   -0.017067
   126  H   -0.040828
   127  H   -0.000775
   128  H   -0.003869
   129  H    0.019558
   130  H    0.018535
   131  H    0.025677
   132  H    0.013519
   133  H    0.036583
   134  H    0.021738
   135  H    0.020164
   136  H    0.011225
   137  H    0.025864
   138  H    0.038755
   139  H    0.037878
   140  H    0.035272
   141  H    0.034076
   142  H    0.013841
   143  H    0.012684
   144  H    0.023421
   145  H    0.010880
   146  H    0.004579
   147  H    0.005202
   148  H    0.003785
   149  H    0.010403
   150  H    0.017555
   151  H    0.030631
   152  H    0.045297
   153  H    0.008350
   154  H    0.046533
   155  H    0.034393
   156  H    0.043151
   157  H    0.050114
   158  H    0.053198
 Sum of Mulliken charges =  -0.00000

 Dipole moment (field-independent basis, Debye):
    X=             -5.5419    Y=              0.2553    Z=              4.3571  Tot=              7.0543
 Quadrupole moment (field-independent basis, Debye-Ang):
   XX=           -519.4054   YY=           -499.1314   ZZ=           -501.1693
   XY=            -24.2993   XZ=             -2.9149   YZ=             -2.3440

 Normal termination of Gaussian 16 at Fri Sep 10 08:22:00 2021.
