 Gaussian 16, Revision A.03,
 Gaussian 16:  ES64L-G16RevA.03 25-Dec-2016

 -----------------------------------
 #p cam-b3lyp/Def2SVP td=(nstates=5)
 -----------------------------------

 --------------------------------
 TDDFT excited states in gaussian
 --------------------------------
 Symbolic Z-matrix:
 Charge =  0 Multiplicity = 1

                         Standard orientation:
 ---------------------------------------------------------------------
 Center     Atomic      Atomic             Coordinates (Angstroms)
 Number     Number       Type             X           Y           Z
 ---------------------------------------------------------------------
      1         12           0        4.921637   -1.166611    0.375014
      2          6           0        5.534664    1.953047   -1.269414
      3          6           0        5.762641    0.379240    3.298389
      4          6           0        4.828216   -4.008843    1.778441
      5          6           0        5.238139   -2.701037   -2.738027
      6          7           0        5.549390    0.907248    0.828535
      7          6           0        5.687177    2.021774    0.117186
      8          6           0        5.934817    3.286685    0.992428
      9          6           0        6.540335    2.581758    2.287968
     10          6           0        5.885041    1.218713    2.151508
     11          6           0        8.054560    2.406335    2.234586
     12          6           0        4.608245    4.050094    1.322800
     13          6           0        4.790197    5.460824    1.890328
     14          1           0        3.830944    6.491974    1.524387
     15          7           0        4.770892   -1.647979    2.285095
     16          6           0        5.147389   -0.890530    3.343305
     17          6           0        4.831188   -1.687543    4.548074
     18          6           0        4.416197   -3.045629    4.099210
     19          6           0        4.683758   -2.962246    2.686116
     20          6           0        4.889514   -1.134731    5.939026
     21          6           0        3.875689   -4.234038    4.829735
     22          8           0        3.799591   -5.389193    4.287148
     23          6           0        3.515280   -4.027649    6.244144
     24          7           0        5.235361   -3.107596   -0.326263
     25          6           0        5.075267   -4.165563    0.476270
     26          6           0        5.073765   -5.447019   -0.303350
     27          6           0        5.023109   -5.027562   -1.843234
     28          6           0        5.090498   -3.489974   -1.671328
     29          6           0        6.272621   -6.375839   -0.066600
     30          6           0        3.876671   -5.624698   -2.697358
     31          6           0        2.548920   -5.066375   -2.236436
     32          7           0        5.139125   -0.507422   -1.681492
     33          6           0        5.275830   -1.318932   -2.817025
     34          6           0        5.502017   -0.421360   -3.964750
     35          6           0        5.497673    0.857380   -3.410989
     36          6           0        5.308613    0.762960   -2.002574
     37          6           0        5.736368   -0.828690   -5.307730
     38          6           0        5.633368    2.280101   -3.678026
     39          8           0        5.716447    2.967055   -4.697185
     40          6           0        5.784511    3.038964   -2.286225
     41          6           0        4.845486    4.214204   -2.305014
     42          8           0        3.609099    4.045082   -2.315497
     43          8           0        5.537052    5.339614   -2.068937
     44          6           0        4.659772    6.540427   -2.044825
     45          1           0        6.230306    0.692251    4.233939
     46          1           0        4.691819   -5.004505    2.205631
     47          1           0        5.261328   -3.103151   -3.752532
     48          1           0        6.657541    3.990689    0.579546
     49          1           0        6.213771    3.068958    3.206508
     50          1           0        8.452946    2.678492    1.257273
     51          1           0        8.232536    1.350106    2.437560
     52          1           0        8.536634    2.952697    3.045678
     53          1           0        4.119268    3.570621    2.170779
     54          1           0        3.960372    4.094736    0.446676
     55          1           0        5.809859    5.819580    1.747179
     56          1           0        4.669724    5.411746    2.972583
     57          1           0        5.385359   -0.165169    5.964186
     58          1           0        5.543609   -1.789349    6.514651
     59          1           0        3.905494   -1.094957    6.406417
     60          1           0        4.394478   -3.691490    6.794194
     61          1           0        3.063943   -4.961028    6.578731
     62          1           0        2.785986   -3.219596    6.308394
     63          1           0        4.195912   -6.047185   -0.067552
     64          1           0        5.929586   -5.316237   -2.375814
     65          1           0        5.992810   -7.376118    0.264840
     66          1           0        6.933752   -5.895674    0.654259
     67          1           0        6.935474   -6.494024   -0.923381
     68          1           0        3.831897   -6.705689   -2.569301
     69          1           0        3.982897   -5.421079   -3.762960
     70          1           0        2.294220   -5.708285   -1.393874
     71          1           0        1.805216   -5.149825   -3.029627
     72          1           0        2.655488   -4.051639   -1.852455
     73          1           0        5.137902   -0.168628   -5.935524
     74          1           0        5.463680   -1.873027   -5.458077
     75          1           0        6.810751   -0.662422   -5.384612
     76          1           0        6.826331    3.348561   -2.209516
     77          1           0        5.057535    7.243286   -2.776951
     78          1           0        4.609330    6.866521   -1.005824
     79          1           0        3.645213    6.403815   -2.420783
     80         12           0       -5.594734   -0.139218   -0.312352
     81          6           0       -2.928877    2.209730    0.192345
     82          6           0       -7.570198    1.931302    1.543730
     83          6           0       -7.827708   -2.392948   -0.356647
     84          6           0       -3.168858   -2.507410   -1.120124
     85          7           0       -5.187863    1.792854    0.684536
     86          6           0       -4.155245    2.619253    0.756051
     87          6           0       -4.475271    3.994148    1.401657
     88          6           0       -5.752074    3.559222    2.273142
     89          6           0       -6.227740    2.374178    1.435239
     90          6           0       -5.390024    3.050006    3.658411
     91          6           0       -4.851205    5.082157    0.335394
     92          6           0       -4.874046    6.518513    0.862755
     93          1           0       -4.438293    7.592946   -0.025048
     94          7           0       -7.543540   -0.023430    0.044475
     95          6           0       -8.178873    0.894898    0.802311
     96          6           0       -9.603986    0.531929    0.763842
     97          6           0       -9.737357   -0.770619    0.056524
     98          6           0       -8.342187   -1.130881   -0.097736
     99          6           0      -10.686373    1.427725    1.292424
    100          6           0      -10.924414   -1.567103   -0.393691
    101          8           0      -10.811921   -2.784862   -0.777434
    102          6           0      -12.234890   -0.909813   -0.283653
    103          7           0       -5.505152   -2.209762   -0.477186
    104          6           0       -6.627480   -2.948795   -0.523402
    105          6           0       -6.325914   -4.374438   -0.919625
    106          6           0       -4.790527   -4.380402   -1.366985
    107          6           0       -4.429934   -2.911669   -1.053603
    108          6           0       -6.543152   -5.427082    0.167182
    109          6           0       -4.472223   -4.933669   -2.783056
    110          6           0       -5.039021   -4.010298   -3.837343
    111          7           0       -3.457390   -0.131007   -0.628162
    112          6           0       -2.635921   -1.238424   -0.932970
    113          6           0       -1.239583   -0.756106   -0.939135
    114          6           0       -1.344553    0.604275   -0.612269
    115          6           0       -2.708167    0.941110   -0.396408
    116          6           0       -0.084784   -1.554349   -1.174404
    117          6           0       -0.610913    1.829518   -0.390324
    118          8           0        0.563726    2.173474   -0.515348
    119          6           0       -1.592348    2.894650    0.264415
    120          6           0       -1.429715    4.193318   -0.476878
    121          8           0       -1.761515    4.284775   -1.671931
    122          8           0       -1.115788    5.164682    0.399634
    123          6           0       -0.954949    6.474283   -0.286597
    124          1           0       -8.209179    2.391992    2.297633
    125          1           0       -8.567691   -3.185304   -0.491053
    126          1           0       -2.363086   -3.162064   -1.459011
    127          1           0       -3.698683    4.383901    2.048782
    128          1           0       -6.505480    4.342499    2.288079
    129          1           0       -4.322047    2.953288    3.785699
    130          1           0       -5.871133    2.085232    3.752197
    131          1           0       -5.841189    3.687476    4.424181
    132          1           0       -5.907815    4.965557    0.062041
    133          1           0       -4.202816    5.020404   -0.516902
    134          1           0       -4.385610    6.606312    1.840855
    135          1           0       -5.911904    6.801091    1.055127
    136          1           0      -10.273548    2.240684    1.902400
    137          1           0      -11.277965    0.833058    1.996886
    138          1           0      -11.344966    1.801990    0.505754
    139          1           0      -12.412374   -0.629273    0.751852
    140          1           0      -12.947812   -1.601798   -0.736172
    141          1           0      -12.209267    0.020603   -0.861820
    142          1           0       -6.937815   -4.680111   -1.759401
    143          1           0       -4.174826   -5.003871   -0.702131
    144          1           0       -7.248742   -6.224791   -0.132623
    145          1           0       -6.891566   -4.927576    1.061402
    146          1           0       -5.639360   -5.923131    0.516899
    147          1           0       -4.954638   -5.903430   -2.928002
    148          1           0       -3.411529   -5.071286   -2.964652
    149          1           0       -6.083611   -4.328024   -3.907882
    150          1           0       -4.520406   -4.145960   -4.784264
    151          1           0       -5.033561   -2.969566   -3.493113
    152          1           0        0.557328   -0.986144   -1.834211
    153          1           0       -0.348426   -2.517212   -1.607012
    154          1           0        0.295302   -1.653006   -0.154071
    155          1           0       -1.320620    2.987072    1.316655
    156          1           0        0.040915    6.848958   -0.030558
    157          1           0       -1.820259    7.086089    0.030718
    158          1           0       -0.907515    6.470306   -1.369267
 ---------------------------------------------------------------------

 SCF Done:  E(RCAM-B3LYP) =  -4069.80960136     A.U. after   19 cycles

 Excitation energies and oscillator strengths:

 Excited State   1:      Singlet-A      1.6652 eV  744.55 nm  f=0.3297  <S**2>=0.000
     309 -> 315        0.13480
     310 -> 316       -0.10530
     311 -> 313        0.54043
     312 -> 314       -0.42334
 This state for optimization and/or second-order correction.
 Total Energy, E(TD-HF/TD-DFT) =  -4069.74840547
 Copying the excited state density for this state as the 1-particle RhoCI density.

 Excited State   2:      Singlet-A      1.6868 eV  735.02 nm  f=0.4626  <S**2>=0.000
     309 -> 315        0.10830
     310 -> 316        0.13801
     311 -> 313        0.42263
     312 -> 314        0.53931

 Excited State   3:      Singlet-A      2.1788 eV  569.05 nm  f=0.0010  <S**2>=0.000
     309 -> 313       -0.43909
     310 -> 314        0.47252
     311 -> 315        0.18292
     312 -> 316       -0.19592

 Excited State   4:      Singlet-A      2.1925 eV  565.50 nm  f=0.1747  <S**2>=0.000
     309 -> 313        0.46877
     310 -> 314        0.43481
     311 -> 315       -0.20337
     312 -> 316       -0.19084

 Excited State   5:      Singlet-A      2.4043 eV  515.68 nm  f=0.0000  <S**2>=0.000
     312 -> 313        0.70536

 The electronic state is 1-A.
 Alpha  occ. eigenvalues --  -46.87500 -46.87308 -19.26081 -19.25623 -19.18814
 Alpha  occ. eigenvalues --  -19.18572 -19.18480 -19.18169 -19.17747 -19.17665
 Alpha  occ. eigenvalues --  -14.42353 -14.41954 -14.41198 -14.41017 -14.39192
 Alpha  occ. eigenvalues --  -14.38945 -14.38426 -14.38080 -10.38778 -10.38268
 Alpha  occ. eigenvalues --  -10.35252 -10.35122 -10.33896 -10.33870 -10.31562
 Alpha  occ. eigenvalues --  -10.31202 -10.31146 -10.30896 -10.30877 -10.30399
 Alpha  occ. eigenvalues --  -10.30226 -10.30182 -10.30084 -10.30062 -10.30002
 Alpha  occ. eigenvalues --  -10.29848 -10.29727 -10.29507 -10.29296 -10.29229
 Alpha  occ. eigenvalues --  -10.29187 -10.28841 -10.28601 -10.28561 -10.28231
 Alpha  occ. eigenvalues --  -10.28196 -10.28062 -10.28030 -10.27865 -10.27827
 Alpha  occ. eigenvalues --  -10.27625 -10.27524 -10.27381 -10.27348 -10.27339
 Alpha  occ. eigenvalues --  -10.27321 -10.27299 -10.27277 -10.27262 -10.27236
 Alpha  occ. eigenvalues --  -10.27188 -10.27153 -10.27138 -10.26901 -10.26816
 Alpha  occ. eigenvalues --  -10.26583 -10.26564 -10.26299 -10.26151 -10.26076
 Alpha  occ. eigenvalues --  -10.26019 -10.25973 -10.25959 -10.25819 -10.25776
 Alpha  occ. eigenvalues --  -10.25739 -10.25618 -10.25463 -10.25266 -10.25197
 Alpha  occ. eigenvalues --  -10.24697 -10.24693 -10.24608 -10.24525 -10.24365
 Alpha  occ. eigenvalues --  -10.24361  -3.16250  -3.16040  -1.91133  -1.90921
 Alpha  occ. eigenvalues --   -1.90721  -1.90558  -1.90509  -1.90352  -1.16355
 Alpha  occ. eigenvalues --   -1.15946  -1.08312  -1.08102  -1.06891  -1.06826
 Alpha  occ. eigenvalues --   -1.06607  -1.05825  -1.04342  -1.04083  -1.03504
 Alpha  occ. eigenvalues --   -1.03319  -1.02875  -1.02778  -1.01952  -1.01945
 Alpha  occ. eigenvalues --   -0.91796  -0.91462  -0.89338  -0.89202  -0.89031
 Alpha  occ. eigenvalues --   -0.88669  -0.88074  -0.87962  -0.87640  -0.87536
 Alpha  occ. eigenvalues --   -0.87432  -0.87206  -0.86972  -0.86887  -0.84866
 Alpha  occ. eigenvalues --   -0.84496  -0.83727  -0.83662  -0.82793  -0.82651
 Alpha  occ. eigenvalues --   -0.82511  -0.82200  -0.81407  -0.81098  -0.80273
 Alpha  occ. eigenvalues --   -0.80135  -0.78484  -0.78387  -0.77014  -0.76850
 Alpha  occ. eigenvalues --   -0.76748  -0.76484  -0.75686  -0.75460  -0.74652
 Alpha  occ. eigenvalues --   -0.74558  -0.72547  -0.72351  -0.71429  -0.71245
 Alpha  occ. eigenvalues --   -0.69686  -0.69622  -0.68687  -0.68419  -0.67430
 Alpha  occ. eigenvalues --   -0.67209  -0.67065  -0.66712  -0.65123  -0.64784
 Alpha  occ. eigenvalues --   -0.64608  -0.64485  -0.64411  -0.64182  -0.64048
 Alpha  occ. eigenvalues --   -0.63904  -0.62070  -0.61783  -0.60186  -0.60065
 Alpha  occ. eigenvalues --   -0.59661  -0.59305  -0.58824  -0.58547  -0.58244
 Alpha  occ. eigenvalues --   -0.58056  -0.57317  -0.57070  -0.57061  -0.56846
 Alpha  occ. eigenvalues --   -0.56045  -0.55884  -0.55687  -0.55439  -0.55292
 Alpha  occ. eigenvalues --   -0.55130  -0.55072  -0.54971  -0.54296  -0.54064
 Alpha  occ. eigenvalues --   -0.53782  -0.53373  -0.53075  -0.52983  -0.52916
 Alpha  occ. eigenvalues --   -0.52774  -0.52712  -0.52538  -0.52465  -0.52380
 Alpha  occ. eigenvalues --   -0.52255  -0.52124  -0.51739  -0.51520  -0.51483
 Alpha  occ. eigenvalues --   -0.51124  -0.51003  -0.50760  -0.50345  -0.50251
 Alpha  occ. eigenvalues --   -0.49848  -0.49767  -0.49724  -0.49523  -0.49345
 Alpha  occ. eigenvalues --   -0.49061  -0.49037  -0.48926  -0.48752  -0.48638
 Alpha  occ. eigenvalues --   -0.48377  -0.48217  -0.48177  -0.48123  -0.48059
 Alpha  occ. eigenvalues --   -0.48015  -0.47429  -0.47292  -0.46964  -0.46893
 Alpha  occ. eigenvalues --   -0.46558  -0.46422  -0.46404  -0.46107  -0.46045
 Alpha  occ. eigenvalues --   -0.45962  -0.45920  -0.45709  -0.45636  -0.45355
 Alpha  occ. eigenvalues --   -0.45058  -0.44875  -0.44367  -0.44311  -0.44170
 Alpha  occ. eigenvalues --   -0.44115  -0.43969  -0.43925  -0.43813  -0.43758
 Alpha  occ. eigenvalues --   -0.43639  -0.43554  -0.43378  -0.43226  -0.43031
 Alpha  occ. eigenvalues --   -0.42955  -0.42746  -0.42675  -0.42604  -0.42416
 Alpha  occ. eigenvalues --   -0.42408  -0.42082  -0.41816  -0.41642  -0.41446
 Alpha  occ. eigenvalues --   -0.41323  -0.41247  -0.41070  -0.40830  -0.40720
 Alpha  occ. eigenvalues --   -0.40592  -0.40572  -0.40491  -0.40464  -0.40346
 Alpha  occ. eigenvalues --   -0.40190  -0.40108  -0.39662  -0.39290  -0.39245
 Alpha  occ. eigenvalues --   -0.38213  -0.38137  -0.37523  -0.37247  -0.37117
 Alpha  occ. eigenvalues --   -0.37051  -0.36948  -0.36745  -0.36514  -0.36169
 Alpha  occ. eigenvalues --   -0.36019  -0.35606  -0.34085  -0.33811  -0.33551
 Alpha  occ. eigenvalues --   -0.33012  -0.32998  -0.32661  -0.31131  -0.31010
 Alpha  occ. eigenvalues --   -0.30812  -0.30559  -0.29612  -0.29512  -0.29161
 Alpha  occ. eigenvalues --   -0.29030  -0.29011  -0.28845  -0.23873  -0.23596
 Alpha  occ. eigenvalues --   -0.20958  -0.20682
 Alpha virt. eigenvalues --   -0.08622  -0.08325  -0.01531  -0.01317   0.00132
 Alpha virt. eigenvalues --    0.00372   0.02419   0.02665   0.03385   0.03592
 Alpha virt. eigenvalues --    0.04863   0.05121   0.05483   0.05842   0.06232

 Mulliken charges:
               1
     1  Mg   0.836944
     2  C    0.007643
     3  C   -0.093940
     4  C   -0.047320
     5  C   -0.065806
     6  N   -0.256214
     7  C   -0.047739
     8  C   -0.016962
     9  C   -0.087485
    10  C    0.048004
    11  C    0.105230
    12  C    0.054503
    13  C   -0.069185
    14  H    0.030730
    15  N   -0.432526
    16  C    0.168794
    17  C   -0.177957
    18  C   -0.005213
    19  C    0.148052
    20  C    0.110652
    21  C    0.011127
    22  O   -0.251437
    23  C    0.062908
    24  N   -0.340783
    25  C    0.040448
    26  C   -0.027757
    27  C   -0.024255
    28  C    0.075005
    29  C    0.076595
    30  C    0.036920
    31  C   -0.009037
    32  N   -0.311534
    33  C    0.080987
    34  C   -0.170372
    35  C    0.007542
    36  C    0.088353
    37  C    0.127107
    38  C    0.049729
    39  O   -0.188663
    40  C   -0.008308
    41  C    0.208795
    42  O   -0.243242
    43  O   -0.306781
    44  C    0.158995
    45  H   -0.018945
    46  H   -0.018804
    47  H   -0.043471
    48  H   -0.000546
    49  H   -0.005151
    50  H    0.024934
    51  H    0.015651
    52  H    0.015153
    53  H    0.012248
    54  H    0.055541
    55  H    0.015856
    56  H    0.016070
    57  H    0.005383
    58  H    0.025543
    59  H    0.038128
    60  H    0.037021
    61  H    0.034179
    62  H    0.030874
    63  H    0.014647
    64  H    0.009108
    65  H    0.022021
    66  H    0.012832
    67  H    0.004043
    68  H    0.005436
    69  H    0.004610
    70  H    0.007686
    71  H    0.015289
    72  H    0.032800
    73  H    0.048158
    74  H    0.007735
    75  H    0.045196
    76  H    0.033257
    77  H    0.040741
    78  H    0.043855
    79  H    0.053229
    80  Mg   0.837666
    81  C   -0.016560
    82  C   -0.087914
    83  C   -0.045712
    84  C   -0.065408
    85  N   -0.254259
    86  C   -0.050233
    87  C   -0.014734
    88  C   -0.090414
    89  C    0.045372
    90  C    0.114655
    91  C    0.062657
    92  C   -0.077448
    93  H    0.034805
    94  N   -0.423364
    95  C    0.162570
    96  C   -0.175016
    97  C   -0.008114
    98  C    0.151938
    99  C    0.099548
   100  C    0.015340
   101  O   -0.253591
   102  C    0.061288
   103  N   -0.350144
   104  C    0.037357
   105  C   -0.019729
   106  C   -0.034845
   107  C    0.089060
   108  C    0.073688
   109  C    0.034768
   110  C   -0.007562
   111  N   -0.324447
   112  C    0.079734
   113  C   -0.162360
   114  C    0.004199
   115  C    0.096811
   116  C    0.118901
   117  C    0.041931
   118  O   -0.175161
   119  C   -0.001031
   120  C    0.216426
   121  O   -0.248963
   122  O   -0.307444
   123  C    0.153256
   124  H   -0.020337
   125  H   -0.015951
   126  H   -0.040512
   127  H   -0.001513
   128  H   -0.004678
   129  H    0.021480
   130  H    0.014343
   131  H    0.015493
   132  H    0.013896
   133  H    0.038632
   134  H    0.019829
   135  H    0.019214
   136  H    0.008309
   137  H    0.025595
   138  H    0.039438
   139  H    0.037975
   140  H    0.036020
   141  H    0.033807
   142  H    0.014131
   143  H    0.012817
   144  H    0.024758
   145  H    0.011456
   146  H    0.005859
   147  H    0.005884
   148  H    0.003283
   149  H    0.010786
   150  H    0.017607
   151  H    0.030609
   152  H    0.055698
   153  H    0.010828
   154  H    0.048053
   155  H    0.032593
   156  H    0.040404
   157  H    0.047703
   158  H    0.056122
 Sum of Mulliken charges =  -0.00000

 Dipole moment (field-independent basis, Debye):
    X=             -1.3023    Y=              1.9991    Z=              6.5915  Tot=              7.0101
 Quadrupole moment (field-independent basis, Debye-Ang):
   XX=           -485.7614   YY=           -483.8904   ZZ=           -506.1940
   XY=            -29.3542   XZ=              4.6370   YZ=             48.7214

 Normal termination of Gaussian 16 at Fri Sep 10 19:10:04 2021.
