 Gaussian 16, Revision A.03,
 Gaussian 16:  ES64L-G16RevA.03 25-Dec-2016

 -----------------------------------
 #p cam-b3lyp/Def2SVP td=(nstates=5)
 -----------------------------------

 --------------------------------
 TDDFT excited states in gaussian
 --------------------------------
 Symbolic Z-matrix:
 Charge =  0 Multiplicity = 1

                         Standard orientation:
 ---------------------------------------------------------------------
 Center     Atomic      Atomic             Coordinates (Angstroms)
 Number     Number       Type             X           Y           Z
 ---------------------------------------------------------------------
      1         12           0        6.295023   -1.140970    0.398418
      2          6           0        6.789760    2.190305   -0.814040
      3          6           0        7.073539    0.033784    3.505979
      4          6           0        6.309120   -4.145839    1.411921
      5          6           0        6.672906   -2.235474   -2.888667
      6          7           0        6.842539    0.876560    1.126732
      7          6           0        6.938241    2.080061    0.570318
      8          6           0        7.136483    3.226034    1.607053
      9          6           0        7.767325    2.378756    2.801272
     10          6           0        7.164794    1.022102    2.481317
     11          6           0        9.287203    2.269339    2.734186
     12          6           0        5.781365    3.888130    2.027784
     13          6           0        5.908674    5.216893    2.778474
     14          1           0        4.911009    6.250491    2.546769
     15          7           0        6.161030   -1.877001    2.226848
     16          6           0        6.507282   -1.253052    3.378405
     17          6           0        6.220688   -2.214327    4.464911
     18          6           0        5.858386   -3.515512    3.837418
     19          6           0        6.123875   -3.235219    2.449495
     20          6           0        6.256523   -1.849257    5.917216
     21          6           0        5.363067   -4.809959    4.400623
     22          8           0        5.331731   -5.884902    3.709183
     23          6           0        4.993708   -4.806939    5.827720
     24          7           0        6.683440   -2.958419   -0.552185
     25          6           0        6.563200   -4.118851    0.101974
     26          6           0        6.611459   -5.284599   -0.840704
     27          6           0        6.546223   -4.666646   -2.311633
     28          6           0        6.554568   -3.164050   -1.936926
     29          6           0        7.844756   -6.190638   -0.722036
     30          6           0        5.424270   -5.188014   -3.244271
     31          6           0        4.075698   -4.746417   -2.721351
     32          7           0        6.489043   -0.206860   -1.551156
     33          6           0        6.657757   -0.854687   -2.783442
     34          6           0        6.850502    0.195210   -3.800612
     35          6           0        6.796715    1.388030   -3.082190
     36          6           0        6.610095    1.100394   -1.699898
     37          6           0        7.101518   -0.021076   -5.184319
     38          6           0        6.878121    2.837713   -3.157364
     39          8           0        6.935802    3.656530   -4.075898
     40          6           0        6.998820    3.410258   -1.676334
     41          6           0        6.015531    4.541245   -1.544730
     42          8           0        4.786530    4.328396   -1.584970
     43          8           0        6.663307    5.650685   -1.157338
     44          6           0        5.740699    6.803640   -0.979450
     45          1           0        7.528012    0.237280    4.477567
     46          1           0        6.210524   -5.193838    1.702464
     47          1           0        6.712408   -2.498182   -3.947381
     48          1           0        7.832125    4.005431    1.295530
     49          1           0        7.421503    2.727007    3.774334
     50          1           0        9.675793    2.683694    1.804009
     51          1           0        9.505275    1.203003    2.796352
     52          1           0        9.747262    2.721019    3.613451
     53          1           0        5.310304    3.282189    2.801733
     54          1           0        5.133074    4.024163    1.161447
     55          1           0        6.913995    5.629763    2.690291
     56          1           0        5.789160    5.020056    3.843919
     57          1           0        6.714882   -0.873572    6.073715
     58          1           0        6.934652   -2.549299    6.404855
     59          1           0        5.271267   -1.909110    6.379839
     60          1           0        5.858887   -4.513783    6.422761
     61          1           0        4.578105   -5.792862    6.032851
     62          1           0        4.233969   -4.042718    5.994191
     63          1           0        5.756994   -5.943508   -0.691857
     64          1           0        7.463577   -4.847588   -2.872343
     65          1           0        7.603117   -7.235920   -0.527868
     66          1           0        8.486359   -5.785775    0.060091
     67          1           0        8.512444   -6.168893   -1.582929
     68          1           0        5.420773   -6.277351   -3.260979
     69          1           0        5.523618   -4.840866   -4.272798
     70          1           0        3.844963   -5.503665   -1.972907
     71          1           0        3.336471   -4.751883   -3.523053
     72          1           0        4.143003   -3.788342   -2.205553
     73          1           0        6.478819    0.693388   -5.722610
     74          1           0        6.869131   -1.045766   -5.473474
     75          1           0        8.168824    0.194421   -5.232021
     76          1           0        8.027958    3.746091   -1.552991
     77          1           0        6.111958    7.612000   -1.609494
     78          1           0        5.676849    6.986773    0.093299
     79          1           0        4.732460    6.679893   -1.376288
     80         12           0       -6.890135   -0.254979   -0.358883
     81          6           0       -4.563811    2.477664   -0.358326
     82          6           0       -8.333858    1.168949    2.383872
     83          6           0       -8.664919   -2.868007   -0.059546
     84          6           0       -4.615699   -2.009094   -2.332640
     85          7           0       -6.419750    1.586197    0.772976
     86          6           0       -5.551594    2.578108    0.643487
     87          6           0       -5.803039    3.780860    1.592028
     88          6           0       -6.613343    3.011935    2.745739
     89          6           0       -7.191675    1.866989    1.916699
     90          6           0       -5.715446    2.418657    3.818651
     91          6           0       -6.678258    4.897637    0.922096
     92          6           0       -6.705527    6.230505    1.673419
     93          1           0       -6.764979    7.465965    0.897164
     94          7           0       -8.579749   -0.552531    0.638733
     95          6           0       -9.020809    0.132273    1.714738
     96          6           0      -10.302656   -0.485949    2.087351
     97          6           0      -10.502097   -1.696398    1.244882
     98          6           0       -9.218836   -1.765805    0.575177
     99          6           0      -11.235697    0.119861    3.095257
    100          6           0      -11.652188   -2.643130    1.080042
    101          8           0      -11.520378   -3.763120    0.470878
    102          6           0      -12.913133   -2.262933    1.733458
    103          7           0       -6.585987   -2.236667   -0.909113
    104          6           0       -7.539847   -3.163374   -0.710904
    105          6           0       -7.209585   -4.448832   -1.431278
    106          6           0       -5.949272   -4.111440   -2.356137
    107          6           0       -5.702877   -2.649119   -1.924511
    108          6           0       -6.880105   -5.645549   -0.539273
    109          6           0       -6.085550   -4.421729   -3.871990
    110          6           0       -7.110627   -3.502884   -4.496762
    111          7           0       -5.028393    0.194153   -1.359014
    112          6           0       -4.228036   -0.693872   -2.110614
    113          6           0       -3.004861    0.040576   -2.493837
    114          6           0       -3.169317    1.307795   -1.914527
    115          6           0       -4.398257    1.352977   -1.202369
    116          6           0       -1.913416   -0.491464   -3.236673
    117          6           0       -2.577805    2.614104   -1.734610
    118          8           0       -1.583238    3.186023   -2.178999
    119          6           0       -3.395416    3.388971   -0.613234
    120          6           0       -3.685363    4.773988   -1.123319
    121          8           0       -4.430903    4.943066   -2.104230
    122          8           0       -3.213846    5.675515   -0.242816
    123          6           0       -3.487275    7.064269   -0.699335
    124          1           0       -8.717765    1.407453    3.376149
    125          1           0       -9.289641   -3.764008   -0.079359
    126          1           0       -3.903282   -2.454683   -3.030197
    127          1           0       -4.907035    4.230154    2.003227
    128          1           0       -7.410371    3.631439    3.148628
    129          1           0       -4.669789    2.510784    3.565152
    130          1           0       -5.996109    1.376244    3.893768
    131          1           0       -5.945437    2.863512    4.791038
    132          1           0       -7.736666    4.617147    0.998615
    133          1           0       -6.374757    5.061513   -0.093606
    134          1           0       -5.916909    6.291593    2.433210
    135          1           0       -7.634416    6.287086    2.246109
    136          1           0      -10.746446    0.917445    3.667869
    137          1           0      -11.450638   -0.655498    3.838544
    138          1           0      -12.175810    0.454204    2.651349
    139          1           0      -12.745608   -2.146508    2.801556
    140          1           0      -13.639950   -3.018027    1.427761
    141          1           0      -13.221686   -1.282193    1.354544
    142          1           0       -8.033506   -4.762094   -2.060668
    143          1           0       -5.058544   -4.682271   -2.055125
    144          1           0       -7.531335   -6.520532   -0.724687
    145          1           0       -6.950616   -5.331105    0.493532
    146          1           0       -5.852799   -6.000194   -0.603175
    147          1           0       -6.451946   -5.440762   -4.018521
    148          1           0       -5.151333   -4.333985   -4.416540
    149          1           0       -8.058319   -4.001351   -4.272054
    150          1           0       -6.950828   -3.424260   -5.570227
    151          1           0       -7.123563   -2.528463   -3.994778
    152          1           0       -1.632265    0.262307   -3.960055
    153          1           0       -2.181193   -1.428177   -3.721064
    154          1           0       -1.184640   -0.637617   -2.434932
    155          1           0       -2.781259    3.404833    0.287944
    156          1           0       -2.526128    7.586919   -0.725902
    157          1           0       -4.256643    7.459439   -0.009633
    158          1           0       -3.829263    7.198520   -1.718878
 ---------------------------------------------------------------------

 SCF Done:  E(RCAM-B3LYP) =  -4069.81061230     A.U. after   19 cycles

 Excitation energies and oscillator strengths:

 Excited State   1:      Singlet-A      1.6670 eV  743.75 nm  f=0.1803  <S**2>=0.000
     309 -> 315       -0.11074
     310 -> 316        0.13133
     311 -> 313        0.52554
     312 -> 314       -0.44165
 This state for optimization and/or second-order correction.
 Total Energy, E(TD-HF/TD-DFT) =  -4069.74935069
 Copying the excited state density for this state as the 1-particle RhoCI density.

 Excited State   2:      Singlet-A      1.6885 eV  734.29 nm  f=0.5873  <S**2>=0.000
     309 -> 315        0.13558
     310 -> 316        0.11343
     311 -> 313        0.44097
     312 -> 314        0.52452

 Excited State   3:      Singlet-A      2.1853 eV  567.36 nm  f=0.0165  <S**2>=0.000
     309 -> 314       -0.30594
     310 -> 313        0.56561
     311 -> 316       -0.23986
     312 -> 315        0.12928

 Excited State   4:      Singlet-A      2.1929 eV  565.39 nm  f=0.1698  <S**2>=0.000
     309 -> 314        0.56305
     310 -> 313        0.30395
     311 -> 316       -0.13253
     312 -> 315       -0.24585

 Excited State   5:      Singlet-A      2.6628 eV  465.62 nm  f=0.0000  <S**2>=0.000
     312 -> 313        0.70667

 The electronic state is 1-A.
 Alpha  occ. eigenvalues --  -46.87624 -46.87517 -19.26158 -19.25957 -19.18963
 Alpha  occ. eigenvalues --  -19.18687 -19.18649 -19.18587 -19.17939 -19.17780
 Alpha  occ. eigenvalues --  -14.42362 -14.42278 -14.41288 -14.41217 -14.39236
 Alpha  occ. eigenvalues --  -14.39208 -14.38443 -14.38403 -10.38895 -10.38729
 Alpha  occ. eigenvalues --  -10.35324 -10.35268 -10.34155 -10.33964 -10.31584
 Alpha  occ. eigenvalues --  -10.31359 -10.31219 -10.31158 -10.30893 -10.30733
 Alpha  occ. eigenvalues --  -10.30386 -10.30335 -10.30240 -10.30197 -10.30069
 Alpha  occ. eigenvalues --  -10.30018 -10.29757 -10.29742 -10.29458 -10.29300
 Alpha  occ. eigenvalues --  -10.29242 -10.29098 -10.28606 -10.28565 -10.28558
 Alpha  occ. eigenvalues --  -10.28342 -10.28250 -10.28182 -10.28032 -10.27943
 Alpha  occ. eigenvalues --  -10.27829 -10.27615 -10.27561 -10.27533 -10.27419
 Alpha  occ. eigenvalues --  -10.27401 -10.27392 -10.27356 -10.27352 -10.27335
 Alpha  occ. eigenvalues --  -10.27335 -10.27314 -10.27254 -10.27217 -10.26913
 Alpha  occ. eigenvalues --  -10.26845 -10.26584 -10.26483 -10.26316 -10.26314
 Alpha  occ. eigenvalues --  -10.26106 -10.26079 -10.26032 -10.25943 -10.25863
 Alpha  occ. eigenvalues --  -10.25794 -10.25654 -10.25612 -10.25333 -10.25286
 Alpha  occ. eigenvalues --  -10.24695 -10.24643 -10.24631 -10.24626 -10.24624
 Alpha  occ. eigenvalues --  -10.24544  -3.16366  -3.16268  -1.91248  -1.91150
 Alpha  occ. eigenvalues --   -1.90835  -1.90739  -1.90677  -1.90575  -1.16449
 Alpha  occ. eigenvalues --   -1.16301  -1.08384  -1.08382  -1.07092  -1.06842
 Alpha  occ. eigenvalues --   -1.06744  -1.06283  -1.04405  -1.04355  -1.03597
 Alpha  occ. eigenvalues --   -1.03519  -1.03062  -1.02892  -1.02240  -1.01962
 Alpha  occ. eigenvalues --   -0.91820  -0.91773  -0.89381  -0.89357  -0.89036
 Alpha  occ. eigenvalues --   -0.89006  -0.88153  -0.88091  -0.87687  -0.87609
 Alpha  occ. eigenvalues --   -0.87545  -0.87503  -0.87128  -0.86985  -0.84875
 Alpha  occ. eigenvalues --   -0.84803  -0.83805  -0.83746  -0.82844  -0.82810
 Alpha  occ. eigenvalues --   -0.82525  -0.82471  -0.81429  -0.81358  -0.80403
 Alpha  occ. eigenvalues --   -0.80291  -0.78638  -0.78486  -0.77062  -0.77013
 Alpha  occ. eigenvalues --   -0.76764  -0.76748  -0.75726  -0.75696  -0.74751
 Alpha  occ. eigenvalues --   -0.74669  -0.72606  -0.72544  -0.71503  -0.71443
 Alpha  occ. eigenvalues --   -0.69797  -0.69638  -0.68699  -0.68697  -0.67467
 Alpha  occ. eigenvalues --   -0.67448  -0.67078  -0.67041  -0.65137  -0.65098
 Alpha  occ. eigenvalues --   -0.64668  -0.64625  -0.64509  -0.64435  -0.64124
 Alpha  occ. eigenvalues --   -0.64068  -0.62111  -0.62051  -0.60297  -0.60202
 Alpha  occ. eigenvalues --   -0.59665  -0.59624  -0.58842  -0.58812  -0.58321
 Alpha  occ. eigenvalues --   -0.58268  -0.57360  -0.57350  -0.57125  -0.57085
 Alpha  occ. eigenvalues --   -0.56136  -0.56048  -0.55727  -0.55725  -0.55358
 Alpha  occ. eigenvalues --   -0.55304  -0.55166  -0.55097  -0.54335  -0.54312
 Alpha  occ. eigenvalues --   -0.53793  -0.53708  -0.53141  -0.53082  -0.53044
 Alpha  occ. eigenvalues --   -0.52999  -0.52753  -0.52704  -0.52604  -0.52550
 Alpha  occ. eigenvalues --   -0.52314  -0.52275  -0.51720  -0.51676  -0.51530
 Alpha  occ. eigenvalues --   -0.51432  -0.51026  -0.51009  -0.50452  -0.50359
 Alpha  occ. eigenvalues --   -0.49911  -0.49858  -0.49771  -0.49737  -0.49358
 Alpha  occ. eigenvalues --   -0.49342  -0.49053  -0.49022  -0.48941  -0.48915
 Alpha  occ. eigenvalues --   -0.48398  -0.48393  -0.48316  -0.48262  -0.48233
 Alpha  occ. eigenvalues --   -0.48172  -0.47529  -0.47456  -0.47132  -0.46983
 Alpha  occ. eigenvalues --   -0.46636  -0.46571  -0.46431  -0.46370  -0.46193
 Alpha  occ. eigenvalues --   -0.46125  -0.45970  -0.45927  -0.45643  -0.45605
 Alpha  occ. eigenvalues --   -0.45077  -0.45064  -0.44376  -0.44375  -0.44360
 Alpha  occ. eigenvalues --   -0.44317  -0.44000  -0.43982  -0.43939  -0.43919
 Alpha  occ. eigenvalues --   -0.43821  -0.43775  -0.43397  -0.43275  -0.43240
 Alpha  occ. eigenvalues --   -0.43223  -0.42849  -0.42772  -0.42719  -0.42557
 Alpha  occ. eigenvalues --   -0.42425  -0.42380  -0.41855  -0.41835  -0.41517
 Alpha  occ. eigenvalues --   -0.41485  -0.41359  -0.41336  -0.40973  -0.40850
 Alpha  occ. eigenvalues --   -0.40714  -0.40687  -0.40603  -0.40582  -0.40425
 Alpha  occ. eigenvalues --   -0.40363  -0.40118  -0.40044  -0.39340  -0.39308
 Alpha  occ. eigenvalues --   -0.38334  -0.38229  -0.37559  -0.37535  -0.37174
 Alpha  occ. eigenvalues --   -0.37135  -0.37074  -0.37064  -0.36595  -0.36457
 Alpha  occ. eigenvalues --   -0.36071  -0.35958  -0.34109  -0.34103  -0.33673
 Alpha  occ. eigenvalues --   -0.33438  -0.33026  -0.32992  -0.31216  -0.31147
 Alpha  occ. eigenvalues --   -0.30859  -0.30829  -0.29794  -0.29683  -0.29285
 Alpha  occ. eigenvalues --   -0.29176  -0.29132  -0.29028  -0.23904  -0.23890
 Alpha  occ. eigenvalues --   -0.20970  -0.20959
 Alpha virt. eigenvalues --   -0.08636  -0.08603  -0.01588  -0.01545   0.00103
 Alpha virt. eigenvalues --    0.00116   0.02396   0.02407   0.03315   0.03361
 Alpha virt. eigenvalues --    0.04855   0.04891   0.05365   0.05423   0.06291

 Mulliken charges:
               1
     1  Mg   0.839215
     2  C   -0.001714
     3  C   -0.094209
     4  C   -0.046265
     5  C   -0.064376
     6  N   -0.256648
     7  C   -0.052210
     8  C   -0.014057
     9  C   -0.086973
    10  C    0.046312
    11  C    0.104934
    12  C    0.053412
    13  C   -0.071551
    14  H    0.036514
    15  N   -0.432987
    16  C    0.168213
    17  C   -0.177523
    18  C   -0.004435
    19  C    0.148545
    20  C    0.110338
    21  C    0.011908
    22  O   -0.250259
    23  C    0.062645
    24  N   -0.341125
    25  C    0.040985
    26  C   -0.027976
    27  C   -0.023966
    28  C    0.074920
    29  C    0.076307
    30  C    0.035265
    31  C   -0.004421
    32  N   -0.310837
    33  C    0.081011
    34  C   -0.169115
    35  C    0.008930
    36  C    0.084031
    37  C    0.127004
    38  C    0.047691
    39  O   -0.187421
    40  C   -0.005889
    41  C    0.212148
    42  O   -0.252921
    43  O   -0.305761
    44  C    0.157226
    45  H   -0.018088
    46  H   -0.017452
    47  H   -0.041740
    48  H    0.000877
    49  H   -0.004441
    50  H    0.025416
    51  H    0.016187
    52  H    0.016163
    53  H    0.010860
    54  H    0.046366
    55  H    0.017375
    56  H    0.017045
    57  H    0.005614
    58  H    0.026340
    59  H    0.038861
    60  H    0.037203
    61  H    0.035066
    62  H    0.031174
    63  H    0.015947
    64  H    0.009337
    65  H    0.022741
    66  H    0.012574
    67  H    0.004516
    68  H    0.005865
    69  H    0.004806
    70  H    0.008219
    71  H    0.017066
    72  H    0.029729
    73  H    0.048784
    74  H    0.008703
    75  H    0.045683
    76  H    0.034544
    77  H    0.042201
    78  H    0.045358
    79  H    0.056188
    80  Mg   0.837436
    81  C   -0.016781
    82  C   -0.087977
    83  C   -0.045667
    84  C   -0.065064
    85  N   -0.254413
    86  C   -0.049968
    87  C   -0.014937
    88  C   -0.090445
    89  C    0.045486
    90  C    0.114508
    91  C    0.062621
    92  C   -0.077590
    93  H    0.034782
    94  N   -0.423397
    95  C    0.162569
    96  C   -0.175039
    97  C   -0.008126
    98  C    0.151858
    99  C    0.099550
   100  C    0.015317
   101  O   -0.253587
   102  C    0.061300
   103  N   -0.350077
   104  C    0.037269
   105  C   -0.019702
   106  C   -0.034849
   107  C    0.089187
   108  C    0.073744
   109  C    0.034773
   110  C   -0.007611
   111  N   -0.324306
   112  C    0.078661
   113  C   -0.163339
   114  C    0.003366
   115  C    0.096031
   116  C    0.132087
   117  C    0.042693
   118  O   -0.182576
   119  C    0.000631
   120  C    0.212029
   121  O   -0.251192
   122  O   -0.305631
   123  C    0.152142
   124  H   -0.020282
   125  H   -0.015934
   126  H   -0.040406
   127  H   -0.000833
   128  H   -0.004701
   129  H    0.022223
   130  H    0.014282
   131  H    0.015505
   132  H    0.013829
   133  H    0.037978
   134  H    0.020353
   135  H    0.019245
   136  H    0.008347
   137  H    0.025614
   138  H    0.039392
   139  H    0.038003
   140  H    0.036027
   141  H    0.033768
   142  H    0.014154
   143  H    0.012389
   144  H    0.024813
   145  H    0.011526
   146  H    0.005620
   147  H    0.005960
   148  H    0.003560
   149  H    0.010779
   150  H    0.017813
   151  H    0.030325
   152  H    0.047798
   153  H    0.007526
   154  H    0.047845
   155  H    0.035297
   156  H    0.044062
   157  H    0.048556
   158  H    0.053799
 Sum of Mulliken charges =  -0.00000

 Dipole moment (field-independent basis, Debye):
    X=             -0.0539    Y=              0.2353    Z=              7.8134  Tot=              7.8171
 Quadrupole moment (field-independent basis, Debye-Ang):
   XX=           -480.2004   YY=           -505.2511   ZZ=           -487.1279
   XY=            -25.6405   XZ=             -0.8891   YZ=             58.5325

 Normal termination of Gaussian 16 at Sat Sep 11 12:54:27 2021.
