 Gaussian 16, Revision A.03,
 Gaussian 16:  ES64L-G16RevA.03 25-Dec-2016

 -----------------------------------
 #p cam-b3lyp/Def2SVP td=(nstates=5)
 -----------------------------------

 --------------------------------
 TDDFT excited states in gaussian
 --------------------------------
 Symbolic Z-matrix:
 Charge =  0 Multiplicity = 1

                         Standard orientation:
 ---------------------------------------------------------------------
 Center     Atomic      Atomic             Coordinates (Angstroms)
 Number     Number       Type             X           Y           Z
 ---------------------------------------------------------------------
      1         12           0       -6.447978   -1.038127    0.190439
      2          6           0       -7.224311    2.443530   -0.105506
      3          6           0       -7.325318   -1.360246   -3.091264
      4          6           0       -6.206355   -4.179978    0.546825
      5          6           0       -6.729579   -0.656274    3.643054
      6          7           0       -7.165847    0.429381   -1.303458
      7          6           0       -7.363527    1.743948   -1.306276
      8          6           0       -7.659245    2.321208   -2.722854
      9          6           0       -8.216142    1.000725   -3.421559
     10          6           0       -7.499996   -0.040249   -2.579280
     11          6           0       -9.721127    0.813632   -3.258712
     12          6           0       -6.365708    2.843622   -3.433893
     13          6           0       -6.606195    3.712829   -4.671633
     14          1           0       -5.700162    4.820220   -4.936465
     15          7           0       -6.252617   -2.469154   -1.157465
     16          6           0       -6.651360   -2.422867   -2.451354
     17          6           0       -6.284391   -3.729747   -3.037936
     18          6           0       -5.812177   -4.608395   -1.932004
     19          6           0       -6.099919   -3.785802   -0.784867
     20          6           0       -6.351924   -4.020928   -4.505724
     21          6           0       -5.208585   -5.977112   -1.911463
     22          8           0       -5.085389   -6.650010   -0.831368
     23          6           0       -4.841523   -6.552885   -3.217905
     24          7           0       -6.679583   -2.302687    1.835091
     25          6           0       -6.461173   -3.618096    1.730296
     26          6           0       -6.409418   -4.272159    3.079170
     27          6           0       -6.396385   -3.084320    4.146232
     28          6           0       -6.532975   -1.889301    3.170762
     29          6           0       -7.561045   -5.234580    3.400907
     30          6           0       -5.233615   -3.071515    5.170059
     31          6           0       -3.927853   -2.791906    4.460198
     32          7           0       -6.719975    0.618427    1.566263
     33          6           0       -6.832248    0.545313    2.962230
     34          6           0       -7.113298    1.909845    3.445067
     35          6           0       -7.161744    2.684119    2.287484
     36          6           0       -6.951956    1.851230    1.151448
     37          6           0       -7.344289    2.283951    4.798256
     38          6           0       -7.366400    4.017126    1.744284
     39          8           0       -7.493227    5.141719    2.230801
     40          6           0       -7.536190    3.894296    0.165705
     41          6           0       -6.652960    4.933896   -0.468680
     42          8           0       -5.410269    4.853636   -0.387173
     43          8           0       -7.393144    5.719775   -1.265589
     44          6           0       -6.572270    6.754833   -1.948944
     45          1           0       -7.795958   -1.624907   -4.040155
     46          1           0       -6.018919   -5.241022    0.724281
     47          1           0       -6.746027   -0.445969    4.714013
     48          1           0       -8.418645    3.103013   -2.745608
     49          1           0       -7.901741    0.927557   -4.462481
     50          1           0      -10.143173    1.552975   -2.578147
     51          1           0       -9.847531   -0.191192   -2.855173
     52          1           0      -10.218444    0.811613   -4.228995
     53          1           0       -5.845083    2.004296   -3.894915
     54          1           0       -5.730952    3.384617   -2.731230
     55          1           0       -7.643010    4.045292   -4.729864
     56          1           0       -6.470854    3.091407   -5.556912
     57          1           0       -6.891866   -3.242898   -5.043940
     58          1           0       -6.968143   -4.911780   -4.625579
     59          1           0       -5.365377   -4.195833   -4.935219
     60          1           0       -5.728833   -6.608156   -3.848916
     61          1           0       -4.343484   -7.497233   -3.001080
     62          1           0       -4.149780   -5.876059   -3.720246
     63          1           0       -5.501966   -4.863904    3.192278
     64          1           0       -7.294701   -3.079621    4.764034
     65          1           0       -7.231271   -6.241180    3.659188
     66          1           0       -8.235207   -5.251475    2.545038
     67          1           0       -8.227737   -4.900226    4.195354
     68          1           0       -5.137258   -4.046487    5.646600
     69          1           0       -5.361695   -2.328693    5.957500
     70          1           0       -3.633768   -3.775325    4.095187
     71          1           0       -3.190461   -2.399003    5.160977
     72          1           0       -4.076839   -2.152467    3.589907
     73          1           0       -6.784502    3.205084    4.959877
     74          1           0       -7.025253    1.500757    5.485588
     75          1           0       -8.426057    2.416442    4.789288
     76          1           0       -8.590271    4.065498   -0.050455
     77          1           0       -7.010782    7.723177   -1.707592
     78          1           0       -6.524786    6.468672   -2.999783
     79          1           0       -5.556959    6.889591   -1.574346
     80         12           0        6.616021    1.086474    0.025945
     81          6           0        6.967900   -2.412794   -0.688436
     82          6           0        5.912926    0.205909    3.245395
     83          6           0        5.858962    4.116687    0.584605
     84          6           0        6.216149    1.603222   -3.397328
     85          7           0        6.487923   -0.881534    1.027343
     86          6           0        6.702113   -2.138641    0.669370
     87          6           0        6.706579   -3.150706    1.846342
     88          6           0        5.814032   -2.313846    2.886481
     89          6           0        6.112157   -0.902618    2.384244
     90          6           0        4.322886   -2.567757    2.740375
     91          6           0        8.149260   -3.410079    2.406158
     92          6           0        8.268183   -4.612636    3.345022
     93          1           0        9.493016   -5.406866    3.307059
     94          7           0        6.460792    2.076635    1.738848
     95          6           0        6.193393    1.559470    2.956355
     96          6           0        6.165847    2.702650    3.881859
     97          6           0        6.275489    3.954427    3.084531
     98          6           0        6.179641    3.420313    1.740796
     99          6           0        6.124858    2.541004    5.373710
    100          6           0        6.427012    5.395259    3.468281
    101          8           0        6.262913    6.339569    2.617292
    102          6           0        6.681041    5.671884    4.889701
    103          7           0        5.900693    2.609299   -1.195390
    104          6           0        5.705339    3.848813   -0.712299
    105          6           0        5.454586    4.835654   -1.827496
    106          6           0        5.763168    4.041837   -3.181085
    107          6           0        6.066020    2.646344   -2.592641
    108          6           0        4.044640    5.422406   -1.892046
    109          6           0        6.799170    4.676708   -4.148721
    110          6           0        8.174469    4.651008   -3.521587
    111          7           0        6.773822   -0.121667   -1.758309
    112          6           0        6.540008    0.288069   -3.089296
    113          6           0        6.659393   -0.912540   -3.941771
    114          6           0        6.933828   -1.949851   -3.037789
    115          6           0        6.962097   -1.435814   -1.713232
    116          6           0        6.470150   -0.953682   -5.351960
    117          6           0        7.195525   -3.364675   -2.901837
    118          8           0        7.379092   -4.293571   -3.687447
    119          6           0        7.104063   -3.749870   -1.362470
    120          6           0        8.305897   -4.587455   -1.021048
    121          8           0        9.449117   -4.099860   -1.064569
    122          8           0        7.894047   -5.754352   -0.492733
    123          6           0        9.050540   -6.615225   -0.127699
    124          1           0        5.459384    0.029905    4.221203
    125          1           0        5.697885    5.189922    0.709951
    126          1           0        6.202170    1.698352   -4.485183
    127          1           0        6.232902   -4.100818    1.630249
    128          1           0        6.172210   -2.439709    3.904928
    129          1           0        4.101105   -3.181458    1.879951
    130          1           0        3.867079   -1.591785    2.636580
    131          1           0        3.920312   -2.991618    3.664830
    132          1           0        8.414379   -2.602546    3.100676
    133          1           0        8.857127   -3.505089    1.605819
    134          1           0        7.386591   -5.263225    3.295208
    135          1           0        8.275088   -4.249051    4.375448
    136          1           0        5.883077    1.510031    5.660115
    137          1           0        5.275213    3.129893    5.735909
    138          1           0        7.035005    2.896990    5.861114
    139          1           0        5.868559    5.265690    5.487481
    140          1           0        6.848679    6.748841    4.952401
    141          1           0        7.590433    5.140852    5.192390
    142          1           0        6.127837    5.680939   -1.754535
    143          1           0        4.862810    3.931887   -3.803260
    144          1           0        4.029334    6.527718   -1.845985
    145          1           0        3.461854    5.000051   -1.084260
    146          1           0        3.465391    5.137104   -2.768551
    147          1           0        6.558085    5.727856   -4.325105
    148          1           0        6.841249    4.189090   -5.116944
    149          1           0        8.171257    5.539624   -2.883277
    150          1           0        8.945577    4.717240   -4.286462
    151          1           0        8.293641    3.777556   -2.870028
    152          1           0        7.265159   -1.566879   -5.755016
    153          1           0        6.479479    0.044975   -5.783653
    154          1           0        5.479543   -1.413468   -5.402475
    155          1           0        6.170513   -4.294477   -1.215957
    156          1           0        8.912025   -7.571292   -0.641942
    157          1           0        9.070011   -6.636261    0.978160
    158          1           0       10.028687   -6.320368   -0.489289
 ---------------------------------------------------------------------

 SCF Done:  E(RCAM-B3LYP) =  -4069.81177688     A.U. after   19 cycles

 Excitation energies and oscillator strengths:

 Excited State   1:      Singlet-A      1.6661 eV  744.17 nm  f=0.0213  <S**2>=0.000
     309 -> 315        0.10800
     310 -> 316        0.13343
     311 -> 313        0.43116
     312 -> 314        0.53436
 This state for optimization and/or second-order correction.
 Total Energy, E(TD-HF/TD-DFT) =  -4069.75054973
 Copying the excited state density for this state as the 1-particle RhoCI density.

 Excited State   2:      Singlet-A      1.6891 eV  734.01 nm  f=0.7219  <S**2>=0.000
     309 -> 315        0.13846
     310 -> 316       -0.11124
     311 -> 313        0.53317
     312 -> 314       -0.43027

 Excited State   3:      Singlet-A      2.1852 eV  567.38 nm  f=0.0420  <S**2>=0.000
     309 -> 313        0.20135
     310 -> 314        0.61095
     312 -> 316       -0.25832

 Excited State   4:      Singlet-A      2.1939 eV  565.12 nm  f=0.1469  <S**2>=0.000
     309 -> 313        0.60827
     310 -> 314       -0.19962
     311 -> 315       -0.26522

 Excited State   5:      Singlet-A      2.6513 eV  467.64 nm  f=0.0000  <S**2>=0.000
     312 -> 313        0.70710

 The electronic state is 1-A.
 Alpha  occ. eigenvalues --  -46.87852 -46.87553 -19.26320 -19.26281 -19.19089
 Alpha  occ. eigenvalues --  -19.19058 -19.18849 -19.18591 -19.18215 -19.17968
 Alpha  occ. eigenvalues --  -14.42503 -14.42391 -14.41510 -14.41250 -14.39456
 Alpha  occ. eigenvalues --  -14.39243 -14.38642 -14.38498 -10.39119 -10.39017
 Alpha  occ. eigenvalues --  -10.35480 -10.35267 -10.34435 -10.34146 -10.31709
 Alpha  occ. eigenvalues --  -10.31697 -10.31458 -10.31212 -10.30955 -10.30914
 Alpha  occ. eigenvalues --  -10.30624 -10.30564 -10.30294 -10.30269 -10.30265
 Alpha  occ. eigenvalues --  -10.30026 -10.29987 -10.29786 -10.29682 -10.29325
 Alpha  occ. eigenvalues --  -10.29306 -10.29301 -10.28791 -10.28622 -10.28580
 Alpha  occ. eigenvalues --  -10.28576 -10.28413 -10.28299 -10.28158 -10.28039
 Alpha  occ. eigenvalues --  -10.27901 -10.27843 -10.27778 -10.27631 -10.27591
 Alpha  occ. eigenvalues --  -10.27563 -10.27533 -10.27505 -10.27455 -10.27407
 Alpha  occ. eigenvalues --  -10.27380 -10.27361 -10.27352 -10.27247 -10.27202
 Alpha  occ. eigenvalues --  -10.26965 -10.26746 -10.26608 -10.26414 -10.26311
 Alpha  occ. eigenvalues --  -10.26286 -10.26272 -10.26083 -10.26050 -10.25910
 Alpha  occ. eigenvalues --  -10.25909 -10.25833 -10.25795 -10.25510 -10.25220
 Alpha  occ. eigenvalues --  -10.24883 -10.24846 -10.24843 -10.24775 -10.24649
 Alpha  occ. eigenvalues --  -10.24576  -3.16595  -3.16303  -1.91477  -1.91185
 Alpha  occ. eigenvalues --   -1.91064  -1.90906  -1.90774  -1.90611  -1.16669
 Alpha  occ. eigenvalues --   -1.16574  -1.08672  -1.08579  -1.07250  -1.06874
 Alpha  occ. eigenvalues --   -1.06841  -1.06681  -1.04633  -1.04390  -1.03819
 Alpha  occ. eigenvalues --   -1.03556  -1.03289  -1.02931  -1.02467  -1.02005
 Alpha  occ. eigenvalues --   -0.92023  -0.91889  -0.89599  -0.89391  -0.89233
 Alpha  occ. eigenvalues --   -0.89052  -0.88365  -0.88107  -0.87926  -0.87726
 Alpha  occ. eigenvalues --   -0.87708  -0.87580  -0.87311  -0.87008  -0.85029
 Alpha  occ. eigenvalues --   -0.84900  -0.84023  -0.83766  -0.83008  -0.82814
 Alpha  occ. eigenvalues --   -0.82693  -0.82550  -0.81633  -0.81511  -0.80644
 Alpha  occ. eigenvalues --   -0.80347  -0.78841  -0.78532  -0.77279  -0.77046
 Alpha  occ. eigenvalues --   -0.76988  -0.76801  -0.75970  -0.75743  -0.74967
 Alpha  occ. eigenvalues --   -0.74682  -0.72832  -0.72600  -0.71727  -0.71470
 Alpha  occ. eigenvalues --   -0.70006  -0.69654  -0.68919  -0.68728  -0.67691
 Alpha  occ. eigenvalues --   -0.67499  -0.67260  -0.67101  -0.65336  -0.65176
 Alpha  occ. eigenvalues --   -0.64909  -0.64678  -0.64671  -0.64557  -0.64343
 Alpha  occ. eigenvalues --   -0.64098  -0.62346  -0.62193  -0.60490  -0.60227
 Alpha  occ. eigenvalues --   -0.59851  -0.59697  -0.59044  -0.58890  -0.58558
 Alpha  occ. eigenvalues --   -0.58325  -0.57631  -0.57470  -0.57367  -0.57131
 Alpha  occ. eigenvalues --   -0.56358  -0.56109  -0.56020  -0.55801  -0.55563
 Alpha  occ. eigenvalues --   -0.55410  -0.55353  -0.55147  -0.54588  -0.54391
 Alpha  occ. eigenvalues --   -0.53939  -0.53814  -0.53351  -0.53262  -0.53127
 Alpha  occ. eigenvalues --   -0.53042  -0.52967  -0.52808  -0.52791  -0.52554
 Alpha  occ. eigenvalues --   -0.52540  -0.52308  -0.51974  -0.51813  -0.51656
 Alpha  occ. eigenvalues --   -0.51560  -0.51255  -0.51110  -0.50602  -0.50358
 Alpha  occ. eigenvalues --   -0.50110  -0.49958  -0.49871  -0.49750  -0.49555
 Alpha  occ. eigenvalues --   -0.49382  -0.49260  -0.49141  -0.49105  -0.49009
 Alpha  occ. eigenvalues --   -0.48643  -0.48524  -0.48484  -0.48466  -0.48265
 Alpha  occ. eigenvalues --   -0.48225  -0.47745  -0.47491  -0.47345  -0.47007
 Alpha  occ. eigenvalues --   -0.46860  -0.46609  -0.46599  -0.46454  -0.46417
 Alpha  occ. eigenvalues --   -0.46222  -0.46168  -0.45985  -0.45874  -0.45738
 Alpha  occ. eigenvalues --   -0.45273  -0.45082  -0.44630  -0.44555  -0.44423
 Alpha  occ. eigenvalues --   -0.44377  -0.44211  -0.44134  -0.44061  -0.44029
 Alpha  occ. eigenvalues --   -0.43976  -0.43836  -0.43545  -0.43468  -0.43441
 Alpha  occ. eigenvalues --   -0.43284  -0.43083  -0.42847  -0.42805  -0.42768
 Alpha  occ. eigenvalues --   -0.42718  -0.42446  -0.42085  -0.41868  -0.41757
 Alpha  occ. eigenvalues --   -0.41583  -0.41572  -0.41361  -0.41194  -0.40930
 Alpha  occ. eigenvalues --   -0.40880  -0.40860  -0.40645  -0.40618  -0.40590
 Alpha  occ. eigenvalues --   -0.40386  -0.40275  -0.40130  -0.39549  -0.39325
 Alpha  occ. eigenvalues --   -0.38544  -0.38236  -0.37795  -0.37562  -0.37391
 Alpha  occ. eigenvalues --   -0.37310  -0.37161  -0.37100  -0.36764  -0.36690
 Alpha  occ. eigenvalues --   -0.36250  -0.36115  -0.34341  -0.34151  -0.33812
 Alpha  occ. eigenvalues --   -0.33784  -0.33241  -0.33071  -0.31380  -0.31150
 Alpha  occ. eigenvalues --   -0.31089  -0.30866  -0.30075  -0.29874  -0.29496
 Alpha  occ. eigenvalues --   -0.29373  -0.29220  -0.29114  -0.24136  -0.23930
 Alpha  occ. eigenvalues --   -0.21183  -0.21011
 Alpha virt. eigenvalues --   -0.08825  -0.08687  -0.01806  -0.01574  -0.00099
 Alpha virt. eigenvalues --    0.00082   0.02148   0.02301   0.03054   0.03324
 Alpha virt. eigenvalues --    0.04667   0.04833   0.05058   0.05241   0.06134

 Mulliken charges:
               1
     1  Mg   0.838586
     2  C   -0.002883
     3  C   -0.093897
     4  C   -0.045984
     5  C   -0.064169
     6  N   -0.256762
     7  C   -0.052493
     8  C   -0.014010
     9  C   -0.087031
    10  C    0.046309
    11  C    0.104770
    12  C    0.053437
    13  C   -0.071820
    14  H    0.036024
    15  N   -0.433194
    16  C    0.168427
    17  C   -0.176902
    18  C   -0.003874
    19  C    0.148706
    20  C    0.110097
    21  C    0.012359
    22  O   -0.249760
    23  C    0.062397
    24  N   -0.341068
    25  C    0.041224
    26  C   -0.028223
    27  C   -0.023806
    28  C    0.074610
    29  C    0.076139
    30  C    0.035237
    31  C   -0.004369
    32  N   -0.310433
    33  C    0.080222
    34  C   -0.169963
    35  C    0.008409
    36  C    0.082841
    37  C    0.127365
    38  C    0.046099
    39  O   -0.188351
    40  C   -0.005309
    41  C    0.212925
    42  O   -0.257119
    43  O   -0.304787
    44  C    0.157634
    45  H   -0.017342
    46  H   -0.016889
    47  H   -0.041846
    48  H    0.001032
    49  H   -0.003871
    50  H    0.025514
    51  H    0.016458
    52  H    0.016843
    53  H    0.011212
    54  H    0.044062
    55  H    0.017989
    56  H    0.018052
    57  H    0.005978
    58  H    0.027046
    59  H    0.040080
    60  H    0.037443
    61  H    0.036035
    62  H    0.031957
    63  H    0.016221
    64  H    0.009523
    65  H    0.023162
    66  H    0.012828
    67  H    0.004767
    68  H    0.006132
    69  H    0.004542
    70  H    0.008562
    71  H    0.016794
    72  H    0.029368
    73  H    0.047451
    74  H    0.008701
    75  H    0.046104
    76  H    0.035246
    77  H    0.043088
    78  H    0.046380
    79  H    0.053770
    80  Mg   0.838053
    81  C   -0.016921
    82  C   -0.087682
    83  C   -0.044951
    84  C   -0.064884
    85  N   -0.254581
    86  C   -0.049922
    87  C   -0.015103
    88  C   -0.090552
    89  C    0.045899
    90  C    0.114307
    91  C    0.062550
    92  C   -0.077775
    93  H    0.034547
    94  N   -0.423678
    95  C    0.163169
    96  C   -0.174161
    97  C   -0.007351
    98  C    0.152254
    99  C    0.099174
   100  C    0.015911
   101  O   -0.252748
   102  C    0.061155
   103  N   -0.350025
   104  C    0.037861
   105  C   -0.020054
   106  C   -0.034555
   107  C    0.088873
   108  C    0.073279
   109  C    0.034768
   110  C   -0.007604
   111  N   -0.323991
   112  C    0.078328
   113  C   -0.163513
   114  C    0.002013
   115  C    0.096118
   116  C    0.131559
   117  C    0.042048
   118  O   -0.188573
   119  C    0.000992
   120  C    0.211168
   121  O   -0.251141
   122  O   -0.305578
   123  C    0.152126
   124  H   -0.019529
   125  H   -0.015046
   126  H   -0.040978
   127  H   -0.000664
   128  H   -0.004533
   129  H    0.022639
   130  H    0.015018
   131  H    0.016131
   132  H    0.013847
   133  H    0.037539
   134  H    0.020836
   135  H    0.019503
   136  H    0.008631
   137  H    0.026868
   138  H    0.039638
   139  H    0.038705
   140  H    0.036496
   141  H    0.033519
   142  H    0.014208
   143  H    0.012216
   144  H    0.025237
   145  H    0.013452
   146  H    0.005739
   147  H    0.006150
   148  H    0.003146
   149  H    0.010997
   150  H    0.017534
   151  H    0.030130
   152  H    0.045641
   153  H    0.008225
   154  H    0.046276
   155  H    0.034979
   156  H    0.043707
   157  H    0.049523
   158  H    0.053408
 Sum of Mulliken charges =  -0.00000

 Dipole moment (field-independent basis, Debye):
    X=             -3.8414    Y=             -1.7673    Z=              0.3160  Tot=              4.2403
 Quadrupole moment (field-independent basis, Debye-Ang):
   XX=           -522.3944   YY=           -547.3356   ZZ=           -449.6550
   XY=             21.3021   XZ=             61.7162   YZ=            -43.0168

 Normal termination of Gaussian 16 at Sat Sep 11 07:41:08 2021.
