 Gaussian 16, Revision A.03,
 Gaussian 16:  ES64L-G16RevA.03 25-Dec-2016

 -----------------------------------
 #p cam-b3lyp/Def2SVP td=(nstates=5)
 -----------------------------------

 --------------------------------
 TDDFT excited states in gaussian
 --------------------------------
 Symbolic Z-matrix:
 Charge =  0 Multiplicity = 1

                         Standard orientation:
 ---------------------------------------------------------------------
 Center     Atomic      Atomic             Coordinates (Angstroms)
 Number     Number       Type             X           Y           Z
 ---------------------------------------------------------------------
      1         12           0        3.868907   -0.569757    1.055455
      2          6           0        4.636499    2.164599   -1.123148
      3          6           0        4.008710    1.648144    3.644747
      4          6           0        3.643524   -3.035430    3.036939
      5          6           0        4.898581   -2.703041   -1.500818
      6          7           0        4.277646    1.604817    1.124778
      7          6           0        4.497862    2.546817    0.213016
      8          6           0        4.492385    3.989443    0.801383
      9          6           0        4.856867    3.645399    2.314917
     10          6           0        4.317927    2.227138    2.378183
     11          6           0        6.357140    3.613386    2.588156
     12          6           0        3.087058    4.671102    0.691268
     13          6           0        3.072536    6.182188    0.939787
     14          1           0        2.154357    7.009416    0.171678
     15          7           0        3.356360   -0.638431    2.962135
     16          6           0        3.466724    0.363729    3.867001
     17          6           0        2.953954   -0.180675    5.142686
     18          6           0        2.713580   -1.638000    4.951593
     19          6           0        3.259980   -1.836633    3.633500
     20          6           0        2.696258    0.663315    6.353068
     21          6           0        2.099836   -2.687477    5.823401
     22          8           0        2.198913   -3.934459    5.559217
     23          6           0        1.446791   -2.216320    7.058141
     24          7           0        4.423861   -2.575734    0.895083
     25          6           0        4.160117   -3.445259    1.876586
     26          6           0        4.387457   -4.858869    1.429413
     27          6           0        4.630695   -4.790072   -0.147246
     28          6           0        4.578390   -3.252822   -0.327239
     29          6           0        5.560741   -5.590972    2.095326
     30          6           0        3.717410   -5.668555   -1.038647
     31          6           0        2.295256   -5.157917   -0.976792
     32          7           0        4.467078   -0.353490   -1.019748
     33          6           0        4.877028   -1.374093   -1.889797
     34          6           0        5.284716   -0.728579   -3.151212
     35          6           0        5.098066    0.632888   -2.920094
     36          6           0        4.629939    0.827560   -1.589210
     37          6           0        5.810776   -1.391903   -4.294758
     38          6           0        5.208614    1.970255   -3.479635
     39          8           0        5.461473    2.424892   -4.596264
     40          6           0        5.030338    3.023739   -2.298866
     41          6           0        4.053056    4.068113   -2.765248
     42          8           0        2.855988    3.779171   -2.967500
     43          8           0        4.619864    5.280748   -2.671507
     44          6           0        3.692760    6.365366   -3.091311
     45          1           0        4.257272    2.201113    4.552702
     46          1           0        3.476450   -3.923405    3.650148
     47          1           0        5.150714   -3.311052   -2.371568
     48          1           0        5.245292    4.655305    0.379266
     49          1           0        4.323305    4.285220    3.017528
     50          1           0        6.931963    3.705448    1.666731
     51          1           0        6.546495    2.649144    3.060253
     52          1           0        6.632684    4.367457    3.325876
     53          1           0        2.461372    4.340704    1.520374
     54          1           0        2.630907    4.460525   -0.276673
     55          1           0        4.079029    6.600568    0.910825
     56          1           0        2.735793    6.357035    1.961664
     57          1           0        3.123391    1.659519    6.244993
     58          1           0        3.252943    0.216992    7.176844
     59          1           0        1.636691    0.705762    6.605749
     60          1           0        2.175255   -1.683631    7.669804
     61          1           0        0.987525   -3.095046    7.509546
     62          1           0        0.677285   -1.489811    6.795473
     63          1           0        3.513606   -5.477601    1.629366
     64          1           0        5.641257   -5.096055   -0.418929
     65          1           0        5.273366   -6.518372    2.591360
     66          1           0        6.033334   -4.903012    2.795796
     67          1           0        6.390407   -5.825724    1.429020
     68          1           0        3.705747   -6.695131   -0.674020
     69          1           0        4.028480   -5.691112   -2.083146
     70          1           0        1.908407   -5.624054   -0.071311
     71          1           0        1.735375   -5.484424   -1.853796
     72          1           0        2.266018   -4.078654   -0.825722
     73          1           0        5.318850   -0.946085   -5.159179
     74          1           0        5.631411   -2.465753   -4.247050
     75          1           0        6.867562   -1.140698   -4.205567
     76          1           0        6.016110    3.444196   -2.102414
     77          1           0        4.193521    6.928786   -3.878731
     78          1           0        3.413076    6.902152   -2.184645
     79          1           0        2.785585    6.050792   -3.608432
     80         12           0       -3.764859   -0.712211   -1.086719
     81          6           0       -5.074847    1.711099    1.213404
     82          6           0       -3.678552    1.771919   -3.422566
     83          6           0       -3.038898   -2.912052   -3.254911
     84          6           0       -5.009342   -3.187155    1.027905
     85          7           0       -4.329225    1.424493   -0.995880
     86          6           0       -4.757035    2.248585   -0.051330
     87          6           0       -4.773145    3.745315   -0.462556
     88          6           0       -4.874689    3.556344   -2.054051
     89          6           0       -4.222916    2.180739   -2.178935
     90          6           0       -6.304739    3.454832   -2.558019
     91          6           0       -3.454014    4.491207   -0.055682
     92          6           0       -3.523755    6.017169   -0.146989
     93          1           0       -2.796165    6.807602    0.842095
     94          7           0       -2.954552   -0.521505   -2.888265
     95          6           0       -2.995945    0.564545   -3.688311
     96          6           0       -2.269462    0.190915   -4.911745
     97          6           0       -1.938019   -1.257942   -4.836503
     98          6           0       -2.665032   -1.632882   -3.640274
     99          6           0       -1.887175    1.187287   -5.967457
    100          6           0       -1.114761   -2.159858   -5.705401
    101          8           0       -1.157519   -3.435071   -5.583666
    102          6           0       -0.328315   -1.510954   -6.764612
    103          7           0       -4.172770   -2.746275   -1.222870
    104          6           0       -3.695336   -3.480322   -2.243239
    105          6           0       -3.881098   -4.956841   -1.986764
    106          6           0       -4.365999   -5.071262   -0.467115
    107          6           0       -4.466807   -3.569697   -0.119909
    108          6           0       -4.882935   -5.668988   -2.895368
    109          6           0       -3.536355   -5.992269    0.468901
    110          6           0       -2.161171   -5.403139    0.686142
    111          7           0       -4.682064   -0.770516    0.868632
    112          6           0       -5.150848   -1.910765    1.557236
    113          6           0       -5.797454   -1.435135    2.797438
    114          6           0       -5.679404   -0.038584    2.732643
    115          6           0       -5.024640    0.331247    1.526823
    116          6           0       -6.431521   -2.255726    3.772476
    117          6           0       -5.969253    1.207427    3.405056
    118          8           0       -6.431764    1.514964    4.502896
    119          6           0       -5.703347    2.402472    2.391378
    120          6           0       -4.890242    3.446243    3.106874
    121          8           0       -3.728347    3.199438    3.475244
    122          8           0       -5.534913    4.625640    3.045304
    123          6           0       -4.762389    5.695162    3.731716
    124          1           0       -3.823315    2.417172   -4.289511
    125          1           0       -2.713099   -3.717968   -3.916603
    126          1           0       -5.334836   -3.902010    1.786666
    127          1           0       -5.625583    4.306954   -0.099677
    128          1           0       -4.287677    4.305481   -2.579008
    129          1           0       -7.015552    3.407885   -1.746421
    130          1           0       -6.344809    2.549129   -3.148916
    131          1           0       -6.520117    4.275100   -3.248750
    132          1           0       -2.682909    4.292829   -0.811180
    133          1           0       -3.140932    4.202046    0.928688
    134          1           0       -4.555102    6.377599   -0.243740
    135          1           0       -3.041706    6.331617   -1.075848
    136          1           0       -2.409932    2.141593   -5.828073
    137          1           0       -2.268509    0.805384   -6.920653
    138          1           0       -0.806412    1.322150   -6.047741
    139          1           0       -0.994718   -0.956087   -7.420728
    140          1           0        0.261494   -2.308375   -7.220822
    141          1           0        0.341824   -0.777125   -6.303080
    142          1           0       -2.944582   -5.489475   -2.097862
    143          1           0       -5.384646   -5.479761   -0.394106
    144          1           0       -4.444666   -6.525546   -3.441524
    145          1           0       -5.290382   -4.944634   -3.588064
    146          1           0       -5.776710   -6.039555   -2.396318
    147          1           0       -3.385463   -6.968959    0.002581
    148          1           0       -4.005193   -6.164223    1.432027
    149          1           0       -1.606974   -5.738388   -0.195642
    150          1           0       -1.718560   -5.790837    1.601468
    151          1           0       -2.193416   -4.307758    0.658438
    152          1           0       -6.119956   -1.886362    4.740463
    153          1           0       -6.168349   -3.303380    3.642324
    154          1           0       -7.481513   -2.063808    3.535922
    155          1           0       -6.674173    2.785743    2.074871
    156          1           0       -5.425100    6.136069    4.482780
    157          1           0       -4.397102    6.362272    2.928424
    158          1           0       -3.921253    5.391621    4.343925
 ---------------------------------------------------------------------

 SCF Done:  E(RCAM-B3LYP) =  -4069.81318519     A.U. after   18 cycles

 Excitation energies and oscillator strengths:

 Excited State   1:      Singlet-A      1.6391 eV  756.40 nm  f=0.0092  <S**2>=0.000
     309 -> 315        0.11344
     310 -> 316        0.11938
     311 -> 313       -0.47286
     312 -> 314        0.50010
 This state for optimization and/or second-order correction.
 Total Energy, E(TD-HF/TD-DFT) =  -4069.75294843
 Copying the excited state density for this state as the 1-particle RhoCI density.

 Excited State   2:      Singlet-A      1.7108 eV  724.70 nm  f=0.6766  <S**2>=0.000
     309 -> 315       -0.13340
     310 -> 316        0.12546
     311 -> 313        0.49681
     312 -> 314        0.46988

 Excited State   3:      Singlet-A      2.1835 eV  567.83 nm  f=0.0074  <S**2>=0.000
     309 -> 313        0.37276
     310 -> 314        0.52630
     311 -> 315        0.15487
     312 -> 316       -0.21966

 Excited State   4:      Singlet-A      2.1987 eV  563.89 nm  f=0.1633  <S**2>=0.000
     309 -> 313        0.52137
     310 -> 314       -0.36806
     311 -> 315        0.23102
     312 -> 316        0.16352

 Excited State   5:      Singlet-A      2.3777 eV  521.45 nm  f=0.0000  <S**2>=0.000
     312 -> 313        0.70708

 The electronic state is 1-A.
 Alpha  occ. eigenvalues --  -46.87634 -46.87425 -19.26391 -19.26346 -19.19146
 Alpha  occ. eigenvalues --  -19.19127 -19.18596 -19.18424 -19.18124 -19.17891
 Alpha  occ. eigenvalues --  -14.42291 -14.42259 -14.41282 -14.41129 -14.39227
 Alpha  occ. eigenvalues --  -14.39098 -14.38440 -14.38375 -10.39166 -10.39061
 Alpha  occ. eigenvalues --  -10.35221 -10.35091 -10.34349 -10.34076 -10.31842
 Alpha  occ. eigenvalues --  -10.31813 -10.31272 -10.31093 -10.30769 -10.30747
 Alpha  occ. eigenvalues --  -10.30423 -10.30358 -10.30179 -10.30128 -10.30002
 Alpha  occ. eigenvalues --  -10.29876 -10.29781 -10.29705 -10.29468 -10.29158
 Alpha  occ. eigenvalues --  -10.29149 -10.29062 -10.28636 -10.28553 -10.28522
 Alpha  occ. eigenvalues --  -10.28500 -10.28212 -10.28160 -10.27987 -10.27928
 Alpha  occ. eigenvalues --  -10.27752 -10.27641 -10.27556 -10.27410 -10.27399
 Alpha  occ. eigenvalues --  -10.27312 -10.27303 -10.27285 -10.27268 -10.27263
 Alpha  occ. eigenvalues --  -10.27201 -10.27188 -10.27163 -10.27126 -10.26954
 Alpha  occ. eigenvalues --  -10.26918 -10.26602 -10.26501 -10.26122 -10.26086
 Alpha  occ. eigenvalues --  -10.25981 -10.25939 -10.25929 -10.25844 -10.25836
 Alpha  occ. eigenvalues --  -10.25757 -10.25694 -10.25682 -10.25295 -10.25251
 Alpha  occ. eigenvalues --  -10.24703 -10.24645 -10.24632 -10.24490 -10.24473
 Alpha  occ. eigenvalues --  -10.24384  -3.16376  -3.16175  -1.91258  -1.91058
 Alpha  occ. eigenvalues --   -1.90844  -1.90686  -1.90646  -1.90482  -1.16736
 Alpha  occ. eigenvalues --   -1.16635  -1.08603  -1.08520  -1.06996  -1.06925
 Alpha  occ. eigenvalues --   -1.06744  -1.06680  -1.04427  -1.04258  -1.03596
 Alpha  occ. eigenvalues --   -1.03427  -1.03071  -1.02804  -1.02252  -1.01878
 Alpha  occ. eigenvalues --   -0.91858  -0.91785  -0.89339  -0.89276  -0.89064
 Alpha  occ. eigenvalues --   -0.88947  -0.88112  -0.88014  -0.87744  -0.87583
 Alpha  occ. eigenvalues --   -0.87515  -0.87449  -0.87044  -0.86773  -0.84853
 Alpha  occ. eigenvalues --   -0.84794  -0.83767  -0.83682  -0.82736  -0.82637
 Alpha  occ. eigenvalues --   -0.82502  -0.82396  -0.81545  -0.81467  -0.80476
 Alpha  occ. eigenvalues --   -0.80248  -0.78602  -0.78342  -0.77060  -0.76914
 Alpha  occ. eigenvalues --   -0.76841  -0.76736  -0.75825  -0.75650  -0.74750
 Alpha  occ. eigenvalues --   -0.74610  -0.72621  -0.72468  -0.71539  -0.71379
 Alpha  occ. eigenvalues --   -0.69699  -0.69542  -0.68738  -0.68615  -0.67502
 Alpha  occ. eigenvalues --   -0.67387  -0.67074  -0.66964  -0.65172  -0.65078
 Alpha  occ. eigenvalues --   -0.64747  -0.64580  -0.64494  -0.64463  -0.64099
 Alpha  occ. eigenvalues --   -0.63997  -0.62273  -0.62162  -0.60238  -0.60052
 Alpha  occ. eigenvalues --   -0.59671  -0.59580  -0.58852  -0.58785  -0.58375
 Alpha  occ. eigenvalues --   -0.58226  -0.57556  -0.57428  -0.57157  -0.57011
 Alpha  occ. eigenvalues --   -0.56189  -0.55991  -0.55959  -0.55752  -0.55355
 Alpha  occ. eigenvalues --   -0.55232  -0.55229  -0.55073  -0.54443  -0.54344
 Alpha  occ. eigenvalues --   -0.53776  -0.53712  -0.53148  -0.53072  -0.53010
 Alpha  occ. eigenvalues --   -0.52928  -0.52827  -0.52716  -0.52536  -0.52323
 Alpha  occ. eigenvalues --   -0.52222  -0.52186  -0.51818  -0.51707  -0.51475
 Alpha  occ. eigenvalues --   -0.51422  -0.51083  -0.51016  -0.50290  -0.50101
 Alpha  occ. eigenvalues --   -0.49830  -0.49730  -0.49705  -0.49627  -0.49369
 Alpha  occ. eigenvalues --   -0.49240  -0.49087  -0.48992  -0.48969  -0.48922
 Alpha  occ. eigenvalues --   -0.48518  -0.48388  -0.48349  -0.48250  -0.48207
 Alpha  occ. eigenvalues --   -0.48054  -0.47541  -0.47359  -0.47128  -0.46858
 Alpha  occ. eigenvalues --   -0.46645  -0.46501  -0.46442  -0.46345  -0.46215
 Alpha  occ. eigenvalues --   -0.46044  -0.46038  -0.45899  -0.45767  -0.45680
 Alpha  occ. eigenvalues --   -0.45040  -0.45009  -0.44503  -0.44346  -0.44325
 Alpha  occ. eigenvalues --   -0.44263  -0.44025  -0.43942  -0.43936  -0.43862
 Alpha  occ. eigenvalues --   -0.43855  -0.43655  -0.43445  -0.43436  -0.43242
 Alpha  occ. eigenvalues --   -0.43192  -0.42899  -0.42833  -0.42733  -0.42706
 Alpha  occ. eigenvalues --   -0.42465  -0.42317  -0.41855  -0.41761  -0.41583
 Alpha  occ. eigenvalues --   -0.41479  -0.41406  -0.41260  -0.41008  -0.40787
 Alpha  occ. eigenvalues --   -0.40726  -0.40614  -0.40512  -0.40432  -0.40403
 Alpha  occ. eigenvalues --   -0.40296  -0.40106  -0.40005  -0.39296  -0.39130
 Alpha  occ. eigenvalues --   -0.38302  -0.38153  -0.37649  -0.37483  -0.37153
 Alpha  occ. eigenvalues --   -0.37138  -0.37054  -0.36983  -0.36739  -0.36713
 Alpha  occ. eigenvalues --   -0.36091  -0.36041  -0.34142  -0.34041  -0.33834
 Alpha  occ. eigenvalues --   -0.33806  -0.33038  -0.32944  -0.31133  -0.30994
 Alpha  occ. eigenvalues --   -0.30886  -0.30747  -0.29992  -0.29807  -0.29283
 Alpha  occ. eigenvalues --   -0.29170  -0.29067  -0.28966  -0.23926  -0.23807
 Alpha  occ. eigenvalues --   -0.20963  -0.20871
 Alpha virt. eigenvalues --   -0.08607  -0.08540  -0.01580  -0.01446   0.00124
 Alpha virt. eigenvalues --    0.00247   0.02270   0.02357   0.02448   0.04442
 Alpha virt. eigenvalues --    0.04834   0.04940   0.05034   0.05216   0.06103

 Mulliken charges:
               1
     1  Mg   0.839039
     2  C   -0.003449
     3  C   -0.091990
     4  C   -0.045916
     5  C   -0.062943
     6  N   -0.256921
     7  C   -0.052767
     8  C   -0.014309
     9  C   -0.087386
    10  C    0.046915
    11  C    0.104819
    12  C    0.052801
    13  C   -0.070992
    14  H    0.032936
    15  N   -0.433561
    16  C    0.169919
    17  C   -0.174792
    18  C   -0.003009
    19  C    0.149092
    20  C    0.109829
    21  C    0.013149
    22  O   -0.250598
    23  C    0.061309
    24  N   -0.341242
    25  C    0.041798
    26  C   -0.028190
    27  C   -0.023955
    28  C    0.074437
    29  C    0.076359
    30  C    0.035418
    31  C   -0.007627
    32  N   -0.310107
    33  C    0.079913
    34  C   -0.171228
    35  C    0.006739
    36  C    0.082394
    37  C    0.127904
    38  C    0.044000
    39  O   -0.191231
    40  C   -0.004783
    41  C    0.212685
    42  O   -0.259648
    43  O   -0.304019
    44  C    0.158612
    45  H   -0.017413
    46  H   -0.017052
    47  H   -0.041331
    48  H    0.000041
    49  H   -0.003216
    50  H    0.025045
    51  H    0.016610
    52  H    0.016551
    53  H    0.014780
    54  H    0.042377
    55  H    0.017501
    56  H    0.019127
    57  H    0.005955
    58  H    0.026076
    59  H    0.044884
    60  H    0.036909
    61  H    0.035115
    62  H    0.036142
    63  H    0.016377
    64  H    0.008976
    65  H    0.022764
    66  H    0.012379
    67  H    0.004597
    68  H    0.005089
    69  H    0.005611
    70  H    0.008684
    71  H    0.023479
    72  H    0.028886
    73  H    0.044656
    74  H    0.010217
    75  H    0.045611
    76  H    0.035036
    77  H    0.042589
    78  H    0.046934
    79  H    0.050764
    80  Mg   0.837477
    81  C   -0.017255
    82  C   -0.084048
    83  C   -0.045995
    84  C   -0.064643
    85  N   -0.254627
    86  C   -0.050446
    87  C   -0.015282
    88  C   -0.091005
    89  C    0.046210
    90  C    0.114408
    91  C    0.061320
    92  C   -0.076848
    93  H    0.031201
    94  N   -0.424147
    95  C    0.165151
    96  C   -0.171067
    97  C   -0.006786
    98  C    0.152306
    99  C    0.098891
   100  C    0.016234
   101  O   -0.255502
   102  C    0.059345
   103  N   -0.350085
   104  C    0.038096
   105  C   -0.019761
   106  C   -0.034455
   107  C    0.088283
   108  C    0.073981
   109  C    0.034917
   110  C   -0.009608
   111  N   -0.323753
   112  C    0.077497
   113  C   -0.164261
   114  C    0.001277
   115  C    0.095357
   116  C    0.131843
   117  C    0.040938
   118  O   -0.190270
   119  C    0.001242
   120  C    0.211235
   121  O   -0.252888
   122  O   -0.305117
   123  C    0.152789
   124  H   -0.019366
   125  H   -0.016400
   126  H   -0.041052
   127  H   -0.001703
   128  H   -0.003171
   129  H    0.021915
   130  H    0.014488
   131  H    0.015984
   132  H    0.018617
   133  H    0.036009
   134  H    0.020234
   135  H    0.020530
   136  H    0.008819
   137  H    0.024437
   138  H    0.049523
   139  H    0.038035
   140  H    0.034510
   141  H    0.041170
   142  H    0.013488
   143  H    0.011786
   144  H    0.024295
   145  H    0.011654
   146  H    0.005391
   147  H    0.004880
   148  H    0.003723
   149  H    0.011073
   150  H    0.020729
   151  H    0.030113
   152  H    0.044258
   153  H    0.008502
   154  H    0.046211
   155  H    0.034623
   156  H    0.043356
   157  H    0.049659
   158  H    0.051377
 Sum of Mulliken charges =  -0.00000

 Dipole moment (field-independent basis, Debye):
    X=              0.7317    Y=              3.1119    Z=              0.2086  Tot=              3.2036
 Quadrupole moment (field-independent basis, Debye-Ang):
   XX=           -512.4779   YY=           -462.3791   ZZ=           -525.1503
   XY=              0.2185   XZ=             41.6047   YZ=              5.8018

 Normal termination of Gaussian 16 at Wed Sep  8 17:57:19 2021.
