 Gaussian 16, Revision A.03,
 Gaussian 16:  ES64L-G16RevA.03 25-Dec-2016

 -----------------------------------
 #p cam-b3lyp/Def2SVP td=(nstates=5)
 -----------------------------------

 --------------------------------
 TDDFT excited states in gaussian
 --------------------------------
 Symbolic Z-matrix:
 Charge =  0 Multiplicity = 1

                         Standard orientation:
 ---------------------------------------------------------------------
 Center     Atomic      Atomic             Coordinates (Angstroms)
 Number     Number       Type             X           Y           Z
 ---------------------------------------------------------------------
      1         12           0      -15.816215   -0.671622   -0.352516
      2          6           0      -16.079082    1.973088    2.045112
      3          6           0      -16.639597    1.616915   -2.745779
      4          6           0      -16.035534   -3.069761   -2.415875
      5          6           0      -16.135650   -2.909226    2.300171
      6          7           0      -16.275701    1.491011   -0.240550
      7          6           0      -16.283534    2.398659    0.730679
      8          6           0      -16.454582    3.857614    0.211480
      9          6           0      -17.174779    3.547934   -1.176833
     10          6           0      -16.638113    2.148730   -1.422071
     11          6           0      -18.694975    3.479673   -1.072688
     12          6           0      -15.080578    4.576976   -0.003836
     13          6           0      -15.160242    6.094530   -0.193671
     14          1           0      -14.098434    6.925431    0.353609
     15          7           0      -15.790004   -0.668586   -2.327903
     16          6           0      -16.142172    0.356240   -3.140919
     17          6           0      -15.949476   -0.134725   -4.522405
     18          6           0      -15.638256   -1.589325   -4.449097
     19          6           0      -15.837183   -1.842997   -3.045011
     20          6           0      -16.017330    0.752007   -5.727748
     21          6           0      -15.237045   -2.593901   -5.482533
     22          8           0      -15.241048   -3.850548   -5.247165
     23          6           0      -14.920006   -2.067260   -6.822375
     24          7           0      -16.271303   -2.697005   -0.132619
     25          6           0      -16.240108   -3.528888   -1.179510
     26          6           0      -16.319526   -4.961230   -0.741302
     27          6           0      -16.166520   -4.946401    0.848075
     28          6           0      -16.104121   -3.414284    1.064861
     29          6           0      -17.605193   -5.707663   -1.123284
     30          6           0      -15.042552   -5.823513    1.454531
     31          6           0      -13.691148   -5.269429    1.062361
     32          7           0      -15.886822   -0.534719    1.812505
     33          6           0      -16.046888   -1.592329    2.719430
     34          6           0      -16.143483   -0.996812    4.064829
     35          6           0      -16.048913    0.375829    3.844015
     36          6           0      -15.928887    0.623607    2.446699
     37          6           0      -16.355977   -1.708994    5.278121
     38          6           0      -16.046093    1.692176    4.461331
     39          8           0      -16.024460    2.105853    5.621459
     40          6           0      -16.188023    2.784993    3.311795
     41          6           0      -15.148249    3.843537    3.560114
     42          8           0      -13.932474    3.584260    3.450421
     43          8           0      -15.746369    5.041123    3.652762
     44          6           0      -14.767584    6.139772    3.869795
     45          1           0      -17.116816    2.188949   -3.543890
     46          1           0      -16.006465   -3.933848   -3.082919
     47          1           0      -16.151473   -3.549959    3.183723
     48          1           0      -17.093672    4.488118    0.829907
     49          1           0      -16.845421    4.223792   -1.965796
     50          1           0      -19.025780    3.527354   -0.035279
     51          1           0      -18.974629    2.524664   -1.517933
     52          1           0      -19.160502    4.246790   -1.692037
     53          1           0      -14.672578    4.289938   -0.972962
     54          1           0      -14.394739    4.351396    0.813516
     55          1           0      -16.136967    6.481918    0.097615
     56          1           0      -15.090608    6.309459   -1.260046
     57          1           0      -16.425599    1.731503   -5.481885
     58          1           0      -16.750869    0.314017   -6.404353
     59          1           0      -15.054378    0.833241   -6.232185
     60          1           0      -15.788352   -1.538460   -7.215941
     61          1           0      -14.568063   -2.918259   -7.404430
     62          1           0      -14.125119   -1.326412   -6.731560
     63          1           0      -15.509319   -5.547652   -1.172696
     64          1           0      -17.071678   -5.290054    1.349340
     65          1           0      -17.429758   -6.611055   -1.707930
     66          1           0      -18.250968   -5.013530   -1.660354
     67          1           0      -18.239004   -5.986488   -0.281882
     68          1           0      -15.099565   -6.838041    1.061555
     69          1           0      -15.084969   -5.886197    2.541969
     70          1           0      -13.530503   -5.696889    0.073269
     71          1           0      -12.924853   -5.605075    1.761893
     72          1           0      -13.723232   -4.185771    0.947719
     73          1           0      -15.675101   -1.274628    6.010038
     74          1           0      -16.171122   -2.775184    5.149015
     75          1           0      -17.407086   -1.486621    5.461360
     76          1           0      -17.200492    3.181747    3.379743
     77          1           0      -15.069859    6.664558    4.776141
     78          1           0      -14.732439    6.711221    2.942101
     79          1           0      -13.754169    5.836982    4.135593
     80         12           0       15.919281   -0.612264    0.392852
     81          6           0       15.629810    1.913025   -2.140564
     82          6           0       17.233524    1.790116    2.426551
     83          6           0       16.603562   -2.897824    2.484596
     84          6           0       15.671186   -2.989005   -2.143929
     85          7           0       16.328292    1.537445    0.070798
     86          6           0       16.119908    2.401285   -0.911400
     87          6           0       16.379821    3.883450   -0.530335
     88          6           0       17.399037    3.643515    0.687237
     89          6           0       16.941806    2.251393    1.118035
     90          6           0       18.851105    3.554682    0.247974
     91          6           0       15.076562    4.615207   -0.052796
     92          6           0       15.191386    6.138382    0.039564
     93          1           0       14.023142    6.946284   -0.299501
     94          7           0       16.326701   -0.498593    2.331834
     95          6           0       16.834898    0.560726    2.995810
     96          6           0       16.967671    0.131550    4.396645
     97          6           0       16.651093   -1.320506    4.474383
     98          6           0       16.532488   -1.640217    3.065901
     99          6           0       17.283902    1.083997    5.513003
    100          6           0       16.495164   -2.267710    5.625325
    101          8           0       16.454067   -3.536995    5.451972
    102          6           0       16.485857   -1.670903    6.968913
    103          7           0       16.322857   -2.640903    0.182957
    104          6           0       16.536089   -3.418325    1.259095
    105          6           0       16.530532   -4.881309    0.884883
    106          6           0       16.026523   -4.934866   -0.631918
    107          6           0       15.907987   -3.420782   -0.912809
    108          6           0       17.873168   -5.602647    1.000531
    109          6           0       14.801854   -5.840954   -0.935022
    110          6           0       13.564564   -5.273325   -0.277516
    111          7           0       15.508011   -0.586292   -1.728059
    112          6           0       15.477517   -1.692988   -2.604627
    113          6           0       15.270634   -1.162965   -3.967967
    114          6           0       15.217725    0.227917   -3.791488
    115          6           0       15.400341    0.543679   -2.418010
    116          6           0       15.205897   -1.937287   -5.160591
    117          6           0       15.059524    1.501400   -4.456242
    118          8           0       14.787265    1.854913   -5.602817
    119          6           0       15.445629    2.656174   -3.434565
    120          6           0       14.370288    3.706315   -3.492497
    121          8           0       13.213712    3.448093   -3.115305
    122          8           0       14.931044    4.896012   -3.776269
    123          6           0       13.905702    5.971746   -3.833616
    124          1           0       17.863290    2.408863    3.066423
    125          1           0       16.727763   -3.731929    3.179075
    126          1           0       15.484888   -3.671248   -2.976107
    127          1           0       16.856449    4.474337   -1.303283
    128          1           0       17.236379    4.362446    1.486018
    129          1           0       18.947044    3.549523   -0.827621
    130          1           0       19.228874    2.630753    0.665946
    131          1           0       19.434636    4.355656    0.710840
    132          1           0       14.898097    4.375856    1.003428
    133          1           0       14.242693    4.352720   -0.674396
    134          1           0       16.082779    6.516536   -0.475570
    135          1           0       15.350179    6.411614    1.085573
    136          1           0       17.627074    2.052985    5.129984
    137          1           0       18.152503    0.678372    6.042990
    138          1           0       16.458417    1.193829    6.219525
    139          1           0       17.412597   -1.124676    7.127852
    140          1           0       16.275685   -2.495088    7.653321
    141          1           0       15.674712   -0.936006    7.019688
    142          1           0       15.837692   -5.436519    1.505218
    143          1           0       16.805278   -5.319640   -1.306705
    144          1           0       17.838251   -6.485830    1.665994
    145          1           0       18.612743   -4.893617    1.348127
    146          1           0       18.300109   -5.937857    0.056838
    147          1           0       14.951715   -6.835592   -0.507938
    148          1           0       14.612621   -5.970943   -1.995344
    149          1           0       13.635344   -5.649206    0.747566
    150          1           0       12.666426   -5.639251   -0.770962
    151          1           0       13.610295   -4.179056   -0.231265
    152          1           0       14.384929   -1.542271   -5.744092
    153          1           0       15.066750   -2.993899   -4.941543
    154          1           0       16.194223   -1.731804   -5.580426
    155          1           0       16.417685    3.048552   -3.735768
    156          1           0       13.999938    6.451072   -4.812929
    157          1           0       14.085936    6.603989   -2.943921
    158          1           0       12.864428    5.671589   -3.844376
 ---------------------------------------------------------------------

 SCF Done:  E(RCAM-B3LYP) =  -4069.81177420     A.U. after   19 cycles

 Excitation energies and oscillator strengths:

 Excited State   1:      Singlet-A      1.6754 eV  740.05 nm  f=0.2257  <S**2>=0.000
     309 -> 316        0.16911
     311 -> 313        0.66844
     312 -> 314        0.15447
     309 <- 316        0.10195
 This state for optimization and/or second-order correction.
 Total Energy, E(TD-HF/TD-DFT) =  -4069.75020615
 Copying the excited state density for this state as the 1-particle RhoCI density.

 Excited State   2:      Singlet-A      1.6801 eV  737.94 nm  f=0.5520  <S**2>=0.000
     310 -> 315        0.17112
     311 -> 313       -0.15442
     312 -> 314        0.66807
     310 <- 315        0.10245

 Excited State   3:      Singlet-A      2.1861 eV  567.14 nm  f=0.0955  <S**2>=0.000
     309 -> 313        0.64213
     311 -> 316       -0.27299

 Excited State   4:      Singlet-A      2.1926 eV  565.47 nm  f=0.1046  <S**2>=0.000
     310 -> 314        0.64035
     312 -> 315       -0.27818

 Excited State   5:      Singlet-A      3.0566 eV  405.63 nm  f=0.0000  <S**2>=0.000
     312 -> 313        0.70711

 The electronic state is 1-A.
 Alpha  occ. eigenvalues --  -46.87746 -46.87661 -19.26353 -19.26238 -19.19163
 Alpha  occ. eigenvalues --  -19.18972 -19.18762 -19.18712 -19.18122 -19.18054
 Alpha  occ. eigenvalues --  -14.42499 -14.42400 -14.41400 -14.41361 -14.39353
 Alpha  occ. eigenvalues --  -14.39352 -14.38601 -14.38537 -10.39093 -10.39032
 Alpha  occ. eigenvalues --  -10.35395 -10.35389 -10.34342 -10.34232 -10.31760
 Alpha  occ. eigenvalues --  -10.31634 -10.31356 -10.31311 -10.31024 -10.30859
 Alpha  occ. eigenvalues --  -10.30521 -10.30458 -10.30399 -10.30363 -10.30157
 Alpha  occ. eigenvalues --  -10.30142 -10.29897 -10.29872 -10.29581 -10.29437
 Alpha  occ. eigenvalues --  -10.29402 -10.29204 -10.28721 -10.28700 -10.28654
 Alpha  occ. eigenvalues --  -10.28488 -10.28406 -10.28315 -10.28142 -10.28068
 Alpha  occ. eigenvalues --  -10.28003 -10.27744 -10.27678 -10.27671 -10.27534
 Alpha  occ. eigenvalues --  -10.27519 -10.27485 -10.27467 -10.27463 -10.27452
 Alpha  occ. eigenvalues --  -10.27429 -10.27401 -10.27377 -10.27354 -10.27111
 Alpha  occ. eigenvalues --  -10.27053 -10.26692 -10.26654 -10.26409 -10.26354
 Alpha  occ. eigenvalues --  -10.26188 -10.26137 -10.26134 -10.26029 -10.25970
 Alpha  occ. eigenvalues --  -10.25936 -10.25856 -10.25798 -10.25400 -10.25389
 Alpha  occ. eigenvalues --  -10.24875 -10.24784 -10.24738 -10.24728 -10.24691
 Alpha  occ. eigenvalues --  -10.24634  -3.16489  -3.16411  -1.91371  -1.91294
 Alpha  occ. eigenvalues --   -1.90957  -1.90882  -1.90800  -1.90719  -1.16647
 Alpha  occ. eigenvalues --   -1.16586  -1.08662  -1.08580  -1.07163  -1.06964
 Alpha  occ. eigenvalues --   -1.06948  -1.06595  -1.04531  -1.04497  -1.03711
 Alpha  occ. eigenvalues --   -1.03664  -1.03184  -1.03040  -1.02362  -1.02113
 Alpha  occ. eigenvalues --   -0.91989  -0.91923  -0.89495  -0.89470  -0.89153
 Alpha  occ. eigenvalues --   -0.89139  -0.88238  -0.88221  -0.87822  -0.87796
 Alpha  occ. eigenvalues --   -0.87685  -0.87623  -0.87222  -0.87119  -0.85001
 Alpha  occ. eigenvalues --   -0.84932  -0.83887  -0.83877  -0.82930  -0.82915
 Alpha  occ. eigenvalues --   -0.82653  -0.82599  -0.81599  -0.81538  -0.80547
 Alpha  occ. eigenvalues --   -0.80444  -0.78747  -0.78636  -0.77169  -0.77146
 Alpha  occ. eigenvalues --   -0.76900  -0.76886  -0.75875  -0.75841  -0.74850
 Alpha  occ. eigenvalues --   -0.74805  -0.72725  -0.72701  -0.71624  -0.71583
 Alpha  occ. eigenvalues --   -0.69857  -0.69758  -0.68828  -0.68823  -0.67603
 Alpha  occ. eigenvalues --   -0.67591  -0.67200  -0.67169  -0.65273  -0.65237
 Alpha  occ. eigenvalues --   -0.64805  -0.64772  -0.64655  -0.64572  -0.64220
 Alpha  occ. eigenvalues --   -0.64205  -0.62281  -0.62250  -0.60391  -0.60340
 Alpha  occ. eigenvalues --   -0.59798  -0.59755  -0.58995  -0.58938  -0.58455
 Alpha  occ. eigenvalues --   -0.58427  -0.57557  -0.57536  -0.57259  -0.57237
 Alpha  occ. eigenvalues --   -0.56261  -0.56206  -0.55931  -0.55888  -0.55470
 Alpha  occ. eigenvalues --   -0.55453  -0.55291  -0.55250  -0.54490  -0.54475
 Alpha  occ. eigenvalues --   -0.53914  -0.53846  -0.53249  -0.53228  -0.53172
 Alpha  occ. eigenvalues --   -0.53143  -0.52904  -0.52865  -0.52704  -0.52667
 Alpha  occ. eigenvalues --   -0.52401  -0.52388  -0.51889  -0.51868  -0.51659
 Alpha  occ. eigenvalues --   -0.51566  -0.51203  -0.51147  -0.50519  -0.50473
 Alpha  occ. eigenvalues --   -0.49982  -0.49980  -0.49868  -0.49867  -0.49488
 Alpha  occ. eigenvalues --   -0.49464  -0.49204  -0.49165  -0.49107  -0.49048
 Alpha  occ. eigenvalues --   -0.48561  -0.48545  -0.48412  -0.48395  -0.48378
 Alpha  occ. eigenvalues --   -0.48338  -0.47645  -0.47595  -0.47247  -0.47119
 Alpha  occ. eigenvalues --   -0.46748  -0.46710  -0.46555  -0.46506  -0.46310
 Alpha  occ. eigenvalues --   -0.46272  -0.46114  -0.46088  -0.45825  -0.45775
 Alpha  occ. eigenvalues --   -0.45210  -0.45152  -0.44529  -0.44516  -0.44477
 Alpha  occ. eigenvalues --   -0.44456  -0.44129  -0.44095  -0.44078  -0.44039
 Alpha  occ. eigenvalues --   -0.43970  -0.43939  -0.43556  -0.43447  -0.43387
 Alpha  occ. eigenvalues --   -0.43336  -0.42978  -0.42933  -0.42904  -0.42651
 Alpha  occ. eigenvalues --   -0.42606  -0.42554  -0.41965  -0.41960  -0.41671
 Alpha  occ. eigenvalues --   -0.41655  -0.41484  -0.41460  -0.41092  -0.40992
 Alpha  occ. eigenvalues --   -0.40819  -0.40771  -0.40722  -0.40698  -0.40522
 Alpha  occ. eigenvalues --   -0.40495  -0.40227  -0.40183  -0.39425  -0.39391
 Alpha  occ. eigenvalues --   -0.38420  -0.38352  -0.37698  -0.37655  -0.37271
 Alpha  occ. eigenvalues --   -0.37267  -0.37214  -0.37201  -0.36774  -0.36665
 Alpha  occ. eigenvalues --   -0.36219  -0.36144  -0.34255  -0.34237  -0.33864
 Alpha  occ. eigenvalues --   -0.33722  -0.33177  -0.33137  -0.31292  -0.31271
 Alpha  occ. eigenvalues --   -0.30986  -0.30974  -0.29982  -0.29959  -0.29399
 Alpha  occ. eigenvalues --   -0.29328  -0.29273  -0.29213  -0.24038  -0.24031
 Alpha  occ. eigenvalues --   -0.21118  -0.21078
 Alpha virt. eigenvalues --   -0.08793  -0.08724  -0.01700  -0.01685  -0.00029
 Alpha virt. eigenvalues --   -0.00007   0.02205   0.02249   0.03177   0.03228
 Alpha virt. eigenvalues --    0.04728   0.04767   0.05146   0.05162   0.06181

 Mulliken charges:
               1
     1  Mg   0.838857
     2  C   -0.002949
     3  C   -0.094091
     4  C   -0.045866
     5  C   -0.063984
     6  N   -0.256786
     7  C   -0.052482
     8  C   -0.014015
     9  C   -0.087029
    10  C    0.046346
    11  C    0.104827
    12  C    0.053475
    13  C   -0.071822
    14  H    0.036167
    15  N   -0.433158
    16  C    0.168441
    17  C   -0.177126
    18  C   -0.003978
    19  C    0.148740
    20  C    0.110172
    21  C    0.012321
    22  O   -0.249611
    23  C    0.062457
    24  N   -0.341150
    25  C    0.041242
    26  C   -0.028159
    27  C   -0.023969
    28  C    0.074851
    29  C    0.076180
    30  C    0.035131
    31  C   -0.004506
    32  N   -0.310464
    33  C    0.080425
    34  C   -0.169732
    35  C    0.008326
    36  C    0.082985
    37  C    0.127314
    38  C    0.046097
    39  O   -0.188520
    40  C   -0.005342
    41  C    0.212854
    42  O   -0.257044
    43  O   -0.304817
    44  C    0.157695
    45  H   -0.017613
    46  H   -0.016831
    47  H   -0.041532
    48  H    0.000891
    49  H   -0.004007
    50  H    0.025433
    51  H    0.016429
    52  H    0.016630
    53  H    0.011274
    54  H    0.044149
    55  H    0.017805
    56  H    0.017983
    57  H    0.005870
    58  H    0.026805
    59  H    0.039662
    60  H    0.037310
    61  H    0.035700
    62  H    0.031602
    63  H    0.016592
    64  H    0.009400
    65  H    0.023207
    66  H    0.012521
    67  H    0.004701
    68  H    0.006341
    69  H    0.004688
    70  H    0.008819
    71  H    0.018171
    72  H    0.029017
    73  H    0.047544
    74  H    0.009095
    75  H    0.045938
    76  H    0.035094
    77  H    0.042874
    78  H    0.046417
    79  H    0.053715
    80  Mg   0.837847
    81  C   -0.016819
    82  C   -0.087737
    83  C   -0.045470
    84  C   -0.064879
    85  N   -0.254556
    86  C   -0.049843
    87  C   -0.015099
    88  C   -0.090500
    89  C    0.045748
    90  C    0.114380
    91  C    0.062516
    92  C   -0.077913
    93  H    0.034939
    94  N   -0.423480
    95  C    0.162925
    96  C   -0.174594
    97  C   -0.007761
    98  C    0.152135
    99  C    0.099353
   100  C    0.015601
   101  O   -0.253144
   102  C    0.061178
   103  N   -0.350060
   104  C    0.037504
   105  C   -0.019822
   106  C   -0.034809
   107  C    0.088911
   108  C    0.073662
   109  C    0.034722
   110  C   -0.007689
   111  N   -0.324096
   112  C    0.078435
   113  C   -0.163146
   114  C    0.002220
   115  C    0.096200
   116  C    0.131486
   117  C    0.042373
   118  O   -0.187930
   119  C    0.000912
   120  C    0.211254
   121  O   -0.250976
   122  O   -0.305647
   123  C    0.152024
   124  H   -0.019647
   125  H   -0.015548
   126  H   -0.040469
   127  H   -0.000686
   128  H   -0.004288
   129  H    0.022427
   130  H    0.014414
   131  H    0.016284
   132  H    0.013970
   133  H    0.037694
   134  H    0.020747
   135  H    0.019628
   136  H    0.008772
   137  H    0.026160
   138  H    0.039892
   139  H    0.038241
   140  H    0.036464
   141  H    0.033969
   142  H    0.014452
   143  H    0.012384
   144  H    0.025171
   145  H    0.011616
   146  H    0.005645
   147  H    0.006275
   148  H    0.003632
   149  H    0.010978
   150  H    0.017984
   151  H    0.030113
   152  H    0.045998
   153  H    0.008517
   154  H    0.046888
   155  H    0.034983
   156  H    0.043863
   157  H    0.049515
   158  H    0.053606
 Sum of Mulliken charges =  -0.00000

 Dipole moment (field-independent basis, Debye):
    X=              0.7159    Y=              3.1326    Z=             -0.7637  Tot=              3.3029
 Quadrupole moment (field-independent basis, Debye-Ang):
   XX=           -373.4865   YY=           -460.1610   ZZ=           -538.7187
   XY=              9.9928   XZ=            107.2920   YZ=             -2.7478

 Normal termination of Gaussian 16 at Sun Sep 12 13:15:21 2021.
