 Gaussian 16, Revision A.03,
 Gaussian 16:  ES64L-G16RevA.03 25-Dec-2016

 -----------------------------------
 #p cam-b3lyp/Def2SVP td=(nstates=5)
 -----------------------------------

 --------------------------------
 TDDFT excited states in gaussian
 --------------------------------
 Symbolic Z-matrix:
 Charge =  0 Multiplicity = 1

                         Standard orientation:
 ---------------------------------------------------------------------
 Center     Atomic      Atomic             Coordinates (Angstroms)
 Number     Number       Type             X           Y           Z
 ---------------------------------------------------------------------
      1         12           0       -7.658592    0.670015   -0.127467
      2          6           0       -7.991313   -2.453629    1.588448
      3          6           0       -8.561158    2.197371    2.787258
      4          6           0       -7.813883    3.400331   -1.733044
      5          6           0       -7.898747   -1.112642   -3.112449
      6          7           0       -8.182952   -0.133975    1.867350
      7          6           0       -8.214166   -1.346837    2.410637
      8          6           0       -8.431576   -1.327392    3.953274
      9          6           0       -9.147956    0.090517    4.088672
     10          6           0       -8.570164    0.772774    2.861233
     11          6           0      -10.664927    0.022926    3.944681
     12          6           0       -7.080942   -1.364750    4.744553
     13          6           0       -7.207386   -1.676412    6.238619
     14          1           0       -6.168937   -2.469541    6.878868
     15          7           0       -7.640893    2.537661    0.516298
     16          6           0       -8.027427    2.976783    1.738202
     17          6           0       -7.825816    4.441678    1.727413
     18          6           0       -7.470330    4.841836    0.337594
     19          6           0       -7.655496    3.596872   -0.363230
     20          6           0       -7.925652    5.295050    2.954417
     21          6           0       -7.043249    6.142674   -0.265361
     22          8           0       -7.008148    6.327207   -1.529992
     23          6           0       -6.748028    7.237730    0.676306
     24          7           0       -8.051125    1.120882   -2.127534
     25          6           0       -7.999180    2.380640   -2.573961
     26          6           0       -8.033269    2.430644   -4.072719
     27          6           0       -7.874020    0.921347   -4.569120
     28          6           0       -7.857178    0.219467   -3.188776
     29          6           0       -9.297329    3.041325   -4.693391
     30          6           0       -6.721405    0.625301   -5.561217
     31          6           0       -5.389103    0.808936   -4.869590
     32          7           0       -7.724101   -1.422117   -0.701694
     33          6           0       -7.848168   -1.936487   -2.000426
     34          6           0       -7.957046   -3.401677   -1.876193
     35          6           0       -7.905076   -3.638086   -0.503876
     36          6           0       -7.798566   -2.397159    0.186810
     37          6           0       -8.142685   -4.317500   -2.949152
     38          6           0       -7.939539   -4.648624    0.540865
     39          8           0       -7.925519   -5.880307    0.556745
     40          6           0       -8.119427   -3.914392    1.942425
     41          6           0       -7.111176   -4.498327    2.894139
     42          8           0       -5.888577   -4.317595    2.721068
     43          8           0       -7.744929   -4.970545    3.978532
     44          6           0       -6.798988   -5.537522    4.976473
     45          1           0       -9.058893    2.769830    3.572428
     46          1           0       -7.761470    4.311187   -2.333071
     47          1           0       -7.891376   -1.740812   -4.005087
     48          1           0       -9.086850   -2.113032    4.329850
     49          1           0       -8.842601    0.616003    4.993297
     50          1           0      -10.992606   -0.972028    3.643660
     51          1           0      -10.917390    0.755204    3.177528
     52          1           0      -11.156129    0.362992    4.856741
     53          1           0       -6.668556   -0.357285    4.799441
     54          1           0       -6.385106   -2.068878    4.287014
     55          1           0       -8.194158   -2.071833    6.481170
     56          1           0       -7.148840   -0.737629    6.789491
     57          1           0       -8.362380    4.747450    3.788652
     58          1           0       -8.648448    6.081312    2.737466
     59          1           0       -6.967761    5.740358    3.223634
     60          1           0       -7.633674    7.443753    1.277750
     61          1           0       -6.372927    8.062070    0.070821
     62          1           0       -5.975588    6.907159    1.371294
     63          1           0       -7.207499    3.024068   -4.463074
     64          1           0       -8.766201    0.563733   -5.083707
     65          1           0       -9.097076    3.886117   -5.352883
     66          1           0       -9.966133    3.328245   -3.882422
     67          1           0       -9.918809    2.339351   -5.248739
     68          1           0       -6.749306    1.326124   -6.394892
     69          1           0       -6.757274   -0.382896   -5.974138
     70          1           0       -5.219783    1.882223   -4.948446
     71          1           0       -4.610014    0.251466   -5.390607
     72          1           0       -5.454514    0.566453   -3.808737
     73          1           0       -7.472182   -5.154609   -2.755135
     74          1           0       -7.926140   -3.850970   -3.909912
     75          1           0       -9.199263   -4.556807   -2.829858
     76          1           0       -9.143160   -4.101356    2.265128
     77          1           0       -7.113174   -6.563242    5.169913
     78          1           0       -6.785134   -4.845256    5.818483
     79          1           0       -5.775738   -5.696745    4.634500
     80         12           0        8.195819    0.222601    0.256195
     81          6           0        6.394655   -1.567956   -2.279303
     82          6           0        7.100647    3.101360   -1.209407
     83          6           0       10.128435    1.827423    2.194497
     84          6           0       10.035155   -2.685743    0.807583
     85          7           0        6.917245    0.589710   -1.510936
     86          6           0        6.239564   -0.168348   -2.359721
     87          6           0        5.282944    0.614421   -3.298721
     88          6           0        6.019366    2.040895   -3.257337
     89          6           0        6.696539    1.926896   -1.893110
     90          6           0        7.099496    2.191494   -4.315628
     91          6           0        3.824669    0.704017   -2.726518
     92          6           0        2.769717    1.182334   -3.726530
     93          1           0        1.427246    0.613089   -3.647678
     94          7           0        8.190532    2.137199    0.778560
     95          6           0        7.683213    3.171178    0.075142
     96          6           0        7.948171    4.373792    0.879939
     97          6           0        8.798836    3.985435    2.037635
     98          6           0        9.096002    2.608739    1.696313
     99          6           0        7.346046    5.712398    0.565284
    100          6           0        9.277531    4.733579    3.244833
    101          8           0       10.202793    4.270130    4.001099
    102          6           0        8.697152    6.066690    3.462699
    103          7           0        9.981600   -0.276182    1.196692
    104          6           0       10.589455    0.587534    2.028820
    105          6           0       11.701283   -0.086077    2.797238
    106          6           0       11.555500   -1.647490    2.483723
    107          6           0       10.388553   -1.594852    1.473336
    108          6           0       13.118884    0.371388    2.454414
    109          6           0       11.434828   -2.601917    3.703227
    110          6           0       10.123619   -2.364011    4.417037
    111          7           0        8.113831   -1.823610   -0.432509
    112          6           0        8.996678   -2.873000   -0.095675
    113          6           0        8.604110   -4.047627   -0.901009
    114          6           0        7.526087   -3.589806   -1.673514
    115          6           0        7.278124   -2.220431   -1.385713
    116          6           0        9.250726   -5.315671   -0.892691
    117          6           0        6.548313   -3.950612   -2.674748
    118          8           0        6.220449   -4.997858   -3.231077
    119          6           0        5.853278   -2.622737   -3.203953
    120          6           0        4.366282   -2.849186   -3.214270
    121          8           0        3.745667   -3.020649   -2.150301
    122          8           0        3.892797   -2.610531   -4.450891
    123          6           0        2.420318   -2.811158   -4.508944
    124          1           0        7.001684    4.059334   -1.720659
    125          1           0       10.756695    2.302932    2.951218
    126          1           0       10.496608   -3.658014    0.993135
    127          1           0        5.243431    0.245773   -4.316709
    128          1           0        5.300947    2.856512   -3.259447
    129          1           0        7.274994    1.267627   -4.846499
    130          1           0        7.991130    2.497852   -3.784416
    131          1           0        6.853038    3.015624   -4.991201
    132          1           0        3.776131    1.522180   -1.996451
    133          1           0        3.522810   -0.234632   -2.304076
    134          1           0        3.138466    1.155528   -4.759123
    135          1           0        2.569916    2.240421   -3.540668
    136          1           0        6.899680    5.727188   -0.436680
    137          1           0        8.172643    6.428617    0.504997
    138          1           0        6.642601    6.048135    1.330214
    139          1           0        8.898254    6.693908    2.597480
    140          1           0        9.095583    6.405835    4.420882
    141          1           0        7.608228    5.966973    3.532850
    142          1           0       11.585238    0.070777    3.862612
    143          1           0       12.427142   -2.036447    1.937111
    144          1           0       13.679847    0.747983    3.330525
    145          1           0       13.056032    1.131964    1.687529
    146          1           0       13.745701   -0.382548    1.981249
    147          1           0       12.225297   -2.392114    4.428004
    148          1           0       11.510147   -3.651532    3.439359
    149          1           0       10.345434   -1.508463    5.061966
    150          1           0        9.842205   -3.237061    5.002371
    151          1           0        9.343151   -2.052566    3.713093
    152          1           0        8.469129   -6.063627   -0.879438
    153          1           0        9.914446   -5.417899   -0.036669
    154          1           0        9.801985   -5.259687   -1.835155
    155          1           0        6.244063   -2.424066   -4.202650
    156          1           0        2.228022   -3.538002   -5.304185
    157          1           0        1.985916   -1.801449   -4.633572
    158          1           0        1.946488   -3.293798   -3.662196
 ---------------------------------------------------------------------

 SCF Done:  E(RCAM-B3LYP) =  -4069.81155125     A.U. after   19 cycles

 Excitation energies and oscillator strengths:

 Excited State   1:      Singlet-A      1.6695 eV  742.64 nm  f=0.0166  <S**2>=0.000
     309 -> 315       -0.10509
     310 -> 316        0.13633
     311 -> 313       -0.41781
     312 -> 314        0.54457
 This state for optimization and/or second-order correction.
 Total Energy, E(TD-HF/TD-DFT) =  -4069.75019798
 Copying the excited state density for this state as the 1-particle RhoCI density.

 Excited State   2:      Singlet-A      1.6856 eV  735.54 nm  f=0.7386  <S**2>=0.000
     309 -> 315        0.14020
     310 -> 316        0.10710
     311 -> 313        0.54370
     312 -> 314        0.41724

 Excited State   3:      Singlet-A      2.1853 eV  567.35 nm  f=0.0788  <S**2>=0.000
     309 -> 313        0.12464
     310 -> 314        0.63052
     312 -> 316       -0.26734

 Excited State   4:      Singlet-A      2.1922 eV  565.57 nm  f=0.1190  <S**2>=0.000
     309 -> 313        0.62851
     310 -> 314       -0.12376
     311 -> 315       -0.27290

 Excited State   5:      Singlet-A      2.7818 eV  445.70 nm  f=0.0000  <S**2>=0.000
     312 -> 313        0.70703

 The electronic state is 1-A.
 Alpha  occ. eigenvalues --  -46.87794 -46.87582 -19.26199 -19.26197 -19.19008
 Alpha  occ. eigenvalues --  -19.18934 -19.18845 -19.18658 -19.18135 -19.17953
 Alpha  occ. eigenvalues --  -14.42443 -14.42418 -14.41454 -14.41284 -14.39403
 Alpha  occ. eigenvalues --  -14.39276 -14.38580 -14.38519 -10.39000 -10.38944
 Alpha  occ. eigenvalues --  -10.35480 -10.35337 -10.34353 -10.34129 -10.31587
 Alpha  occ. eigenvalues --  -10.31575 -10.31389 -10.31223 -10.30942 -10.30898
 Alpha  occ. eigenvalues --  -10.30560 -10.30508 -10.30321 -10.30278 -10.30223
 Alpha  occ. eigenvalues --  -10.30074 -10.29926 -10.29819 -10.29630 -10.29366
 Alpha  occ. eigenvalues --  -10.29324 -10.29259 -10.28715 -10.28621 -10.28523
 Alpha  occ. eigenvalues --  -10.28473 -10.28356 -10.28324 -10.28090 -10.28052
 Alpha  occ. eigenvalues --  -10.27923 -10.27786 -10.27722 -10.27592 -10.27587
 Alpha  occ. eigenvalues --  -10.27539 -10.27491 -10.27484 -10.27458 -10.27408
 Alpha  occ. eigenvalues --  -10.27400 -10.27393 -10.27392 -10.27317 -10.27116
 Alpha  occ. eigenvalues --  -10.26944 -10.26651 -10.26572 -10.26458 -10.26377
 Alpha  occ. eigenvalues --  -10.26250 -10.26211 -10.26081 -10.26026 -10.25948
 Alpha  occ. eigenvalues --  -10.25861 -10.25826 -10.25770 -10.25469 -10.25348
 Alpha  occ. eigenvalues --  -10.24821 -10.24793 -10.24791 -10.24781 -10.24672
 Alpha  occ. eigenvalues --  -10.24615  -3.16537  -3.16332  -1.91419  -1.91214
 Alpha  occ. eigenvalues --   -1.91005  -1.90847  -1.90803  -1.90640  -1.16547
 Alpha  occ. eigenvalues --   -1.16493  -1.08587  -1.08555  -1.07248  -1.06912
 Alpha  occ. eigenvalues --   -1.06796  -1.06558  -1.04572  -1.04414  -1.03762
 Alpha  occ. eigenvalues --   -1.03586  -1.03233  -1.02963  -1.02410  -1.02034
 Alpha  occ. eigenvalues --   -0.91955  -0.91899  -0.89541  -0.89423  -0.89161
 Alpha  occ. eigenvalues --   -0.89059  -0.88309  -0.88153  -0.87859  -0.87713
 Alpha  occ. eigenvalues --   -0.87665  -0.87602  -0.87285  -0.87056  -0.84961
 Alpha  occ. eigenvalues --   -0.84909  -0.83964  -0.83807  -0.82995  -0.82874
 Alpha  occ. eigenvalues --   -0.82634  -0.82567  -0.81547  -0.81487  -0.80579
 Alpha  occ. eigenvalues --   -0.80349  -0.78800  -0.78564  -0.77219  -0.77063
 Alpha  occ. eigenvalues --   -0.76911  -0.76804  -0.75895  -0.75744  -0.74909
 Alpha  occ. eigenvalues --   -0.74729  -0.72772  -0.72621  -0.71666  -0.71501
 Alpha  occ. eigenvalues --   -0.69949  -0.69693  -0.68858  -0.68739  -0.67636
 Alpha  occ. eigenvalues --   -0.67520  -0.67198  -0.67109  -0.65263  -0.65177
 Alpha  occ. eigenvalues --   -0.64841  -0.64686  -0.64607  -0.64558  -0.64285
 Alpha  occ. eigenvalues --   -0.64131  -0.62253  -0.62164  -0.60455  -0.60273
 Alpha  occ. eigenvalues --   -0.59785  -0.59709  -0.58982  -0.58911  -0.58495
 Alpha  occ. eigenvalues --   -0.58340  -0.57548  -0.57445  -0.57307  -0.57159
 Alpha  occ. eigenvalues --   -0.56303  -0.56124  -0.55924  -0.55771  -0.55521
 Alpha  occ. eigenvalues --   -0.55368  -0.55340  -0.55162  -0.54506  -0.54392
 Alpha  occ. eigenvalues --   -0.53867  -0.53818  -0.53303  -0.53209  -0.53152
 Alpha  occ. eigenvalues --   -0.53053  -0.52893  -0.52803  -0.52759  -0.52601
 Alpha  occ. eigenvalues --   -0.52478  -0.52335  -0.51899  -0.51800  -0.51595
 Alpha  occ. eigenvalues --   -0.51567  -0.51183  -0.51112  -0.50597  -0.50418
 Alpha  occ. eigenvalues --   -0.50061  -0.49926  -0.49905  -0.49803  -0.49504
 Alpha  occ. eigenvalues --   -0.49411  -0.49199  -0.49114  -0.49072  -0.49015
 Alpha  occ. eigenvalues --   -0.48568  -0.48478  -0.48462  -0.48437  -0.48305
 Alpha  occ. eigenvalues --   -0.48265  -0.47690  -0.47513  -0.47295  -0.47043
 Alpha  occ. eigenvalues --   -0.46798  -0.46628  -0.46529  -0.46463  -0.46359
 Alpha  occ. eigenvalues --   -0.46192  -0.46151  -0.45999  -0.45789  -0.45722
 Alpha  occ. eigenvalues --   -0.45220  -0.45139  -0.44554  -0.44517  -0.44422
 Alpha  occ. eigenvalues --   -0.44393  -0.44159  -0.44071  -0.44045  -0.44002
 Alpha  occ. eigenvalues --   -0.44001  -0.43857  -0.43461  -0.43445  -0.43380
 Alpha  occ. eigenvalues --   -0.43296  -0.43018  -0.42834  -0.42785  -0.42712
 Alpha  occ. eigenvalues --   -0.42608  -0.42487  -0.42018  -0.41884  -0.41692
 Alpha  occ. eigenvalues --   -0.41582  -0.41514  -0.41370  -0.41133  -0.40910
 Alpha  occ. eigenvalues --   -0.40867  -0.40840  -0.40650  -0.40617  -0.40583
 Alpha  occ. eigenvalues --   -0.40420  -0.40198  -0.40127  -0.39490  -0.39362
 Alpha  occ. eigenvalues --   -0.38486  -0.38279  -0.37717  -0.37551  -0.37333
 Alpha  occ. eigenvalues --   -0.37238  -0.37191  -0.37108  -0.36668  -0.36644
 Alpha  occ. eigenvalues --   -0.36166  -0.36124  -0.34280  -0.34172  -0.33722
 Alpha  occ. eigenvalues --   -0.33700  -0.33177  -0.33094  -0.31374  -0.31216
 Alpha  occ. eigenvalues --   -0.31031  -0.30893  -0.29992  -0.29855  -0.29451
 Alpha  occ. eigenvalues --   -0.29311  -0.29254  -0.29130  -0.24076  -0.23956
 Alpha  occ. eigenvalues --   -0.21126  -0.21040
 Alpha virt. eigenvalues --   -0.08772  -0.08715  -0.01754  -0.01609  -0.00062
 Alpha virt. eigenvalues --    0.00043   0.02214   0.02292   0.03122   0.03313
 Alpha virt. eigenvalues --    0.04733   0.04818   0.05171   0.05304   0.06220

 Mulliken charges:
               1
     1  Mg   0.838772
     2  C   -0.002608
     3  C   -0.093955
     4  C   -0.046221
     5  C   -0.064207
     6  N   -0.256753
     7  C   -0.052285
     8  C   -0.014018
     9  C   -0.087004
    10  C    0.046326
    11  C    0.104817
    12  C    0.053429
    13  C   -0.071999
    14  H    0.036874
    15  N   -0.433089
    16  C    0.168300
    17  C   -0.177186
    18  C   -0.004277
    19  C    0.148653
    20  C    0.110170
    21  C    0.011938
    22  O   -0.250155
    23  C    0.062618
    24  N   -0.341115
    25  C    0.041194
    26  C   -0.028091
    27  C   -0.023939
    28  C    0.074765
    29  C    0.076196
    30  C    0.035233
    31  C   -0.004373
    32  N   -0.310574
    33  C    0.080532
    34  C   -0.169604
    35  C    0.008659
    36  C    0.083185
    37  C    0.127225
    38  C    0.046528
    39  O   -0.187720
    40  C   -0.005479
    41  C    0.212912
    42  O   -0.256311
    43  O   -0.305023
    44  C    0.157425
    45  H   -0.017594
    46  H   -0.017251
    47  H   -0.041619
    48  H    0.001091
    49  H   -0.003960
    50  H    0.025529
    51  H    0.016290
    52  H    0.016676
    53  H    0.011158
    54  H    0.044657
    55  H    0.017766
    56  H    0.017812
    57  H    0.006019
    58  H    0.026689
    59  H    0.039287
    60  H    0.037520
    61  H    0.035086
    62  H    0.031261
    63  H    0.015985
    64  H    0.009581
    65  H    0.022910
    66  H    0.012711
    67  H    0.004790
    68  H    0.006114
    69  H    0.004836
    70  H    0.008312
    71  H    0.017069
    72  H    0.029416
    73  H    0.048109
    74  H    0.008859
    75  H    0.046107
    76  H    0.035171
    77  H    0.043054
    78  H    0.046287
    79  H    0.054505
    80  Mg   0.837955
    81  C   -0.016519
    82  C   -0.087746
    83  C   -0.045653
    84  C   -0.065046
    85  N   -0.254554
    86  C   -0.049709
    87  C   -0.015102
    88  C   -0.090491
    89  C    0.045762
    90  C    0.114405
    91  C    0.062486
    92  C   -0.078162
    93  H    0.035890
    94  N   -0.423418
    95  C    0.162833
    96  C   -0.174768
    97  C   -0.007992
    98  C    0.152090
    99  C    0.099427
   100  C    0.015410
   101  O   -0.253433
   102  C    0.061276
   103  N   -0.350097
   104  C    0.037469
   105  C   -0.019744
   106  C   -0.034842
   107  C    0.089032
   108  C    0.073728
   109  C    0.034761
   110  C   -0.007659
   111  N   -0.324201
   112  C    0.078646
   113  C   -0.163016
   114  C    0.002368
   115  C    0.096378
   116  C    0.131430
   117  C    0.042687
   118  O   -0.187390
   119  C    0.000809
   120  C    0.211276
   121  O   -0.250077
   122  O   -0.306023
   123  C    0.151652
   124  H   -0.019779
   125  H   -0.015830
   126  H   -0.040514
   127  H   -0.000689
   128  H   -0.004246
   129  H    0.022383
   130  H    0.014247
   131  H    0.016159
   132  H    0.013893
   133  H    0.038327
   134  H    0.020352
   135  H    0.019588
   136  H    0.008803
   137  H    0.025906
   138  H    0.039491
   139  H    0.038190
   140  H    0.036073
   141  H    0.033725
   142  H    0.014245
   143  H    0.012307
   144  H    0.024931
   145  H    0.011583
   146  H    0.005551
   147  H    0.006062
   148  H    0.003676
   149  H    0.010749
   150  H    0.017953
   151  H    0.030332
   152  H    0.046388
   153  H    0.008422
   154  H    0.046813
   155  H    0.034822
   156  H    0.043722
   157  H    0.049144
   158  H    0.055093
 Sum of Mulliken charges =  -0.00000

 Dipole moment (field-independent basis, Debye):
    X=             -1.8838    Y=              7.2376    Z=              1.2666  Tot=              7.5853
 Quadrupole moment (field-independent basis, Debye-Ang):
   XX=           -471.8154   YY=           -539.3007   ZZ=           -470.3173
   XY=            -17.1117   XZ=            -27.6976   YZ=             -9.7785

 Normal termination of Gaussian 16 at Sun Sep 12 00:21:48 2021.
