 Gaussian 16, Revision A.03,
 Gaussian 16:  ES64L-G16RevA.03 25-Dec-2016

 -----------------------------------
 #p cam-b3lyp/Def2SVP td=(nstates=5)
 -----------------------------------

 --------------------------------
 TDDFT excited states in gaussian
 --------------------------------
 Symbolic Z-matrix:
 Charge =  0 Multiplicity = 1

                         Standard orientation:
 ---------------------------------------------------------------------
 Center     Atomic      Atomic             Coordinates (Angstroms)
 Number     Number       Type             X           Y           Z
 ---------------------------------------------------------------------
      1         12           0        6.797533   -0.462442    0.151248
      2          6           0        6.892965    2.716690   -1.490772
      3          6           0        7.600492    1.171111    3.037391
      4          6           0        7.165069   -3.296823    1.525228
      5          6           0        7.126934   -1.930438   -2.992340
      6          7           0        7.171602    1.674774    0.590593
      7          6           0        7.117908    2.800204   -0.114883
      8          6           0        7.248141    4.083726    0.758607
      9          6           0        8.018129    3.460851    2.008064
     10          6           0        7.541831    2.023399    1.894940
     11          6           0        9.536306    3.488064    1.863494
     12          6           0        5.854489    4.663228    1.175310
     13          6           0        5.881999    6.083638    1.747177
     14          1           0        4.774623    6.979675    1.450221
     15          7           0        6.826555   -0.966217    2.061279
     16          6           0        7.162352   -0.169211    3.104019
     17          6           0        7.027121   -1.005329    4.316166
     18          6           0        6.769193   -2.404893    3.877090
     19          6           0        6.938171   -2.281818    2.451721
     20          6           0        7.095125   -0.454523    5.707474
     21          6           0        6.435352   -3.657049    4.624610
     22          8           0        6.480274   -4.810188    4.074311
     23          6           0        6.136272   -3.505239    6.060070
     24          7           0        7.322542   -2.342186   -0.589403
     25          6           0        7.352154   -3.414835    0.209053
     26          6           0        7.473371   -4.682433   -0.583689
     27          6           0        7.275464   -4.268034   -2.113022
     28          6           0        7.149132   -2.735707   -1.927860
     29          6           0        8.796535   -5.444806   -0.428650
     30          6           0        6.168923   -5.009008   -2.904819
     31          6           0        4.809048   -4.633391   -2.360071
     32          7           0        6.802255    0.226947   -1.906850
     33          6           0        6.976736   -0.555284   -3.057652
     34          6           0        7.013030    0.368362   -4.206403
     35          6           0        6.872846    1.633281   -3.638798
     36          6           0        6.782716    1.509698   -2.222855
     37          6           0        7.218240    0.000414   -5.565423
     38          6           0        6.802969    3.062351   -3.897125
     39          8           0        6.733229    3.757807   -4.911506
     40          6           0        6.935613    3.829697   -2.508092
     41          6           0        5.850011    4.870022   -2.458072
     42          8           0        4.648458    4.538396   -2.397564
     43          8           0        6.399591    6.076404   -2.250361
     44          6           0        5.374270    7.150118   -2.160867
     45          1           0        8.077903    1.540136    3.947249
     46          1           0        7.187385   -4.303264    1.948332
     47          1           0        7.142224   -2.322378   -4.010968
     48          1           0        7.845364    4.878830    0.311886
     49          1           0        7.685675    3.897208    2.949758
     50          1           0        9.835889    3.814080    0.867560
     51          1           0        9.864228    2.464083    2.043559
     52          1           0        9.989656    4.090721    2.650930
     53          1           0        5.484933    4.120162    2.045120
     54          1           0        5.155049    4.624576    0.339477
     55          1           0        6.834838    6.575001    1.548257
     56          1           0        5.834179    6.015233    2.834023
     57          1           0        7.459021    0.572160    5.714413
     58          1           0        7.863361   -1.018577    6.236025
     59          1           0        6.144294   -0.547285    6.232496
     60          1           0        6.994683   -3.057326    6.561122
     61          1           0        5.833197   -4.491409    6.410019
     62          1           0        5.311710   -2.801316    6.176424
     63          1           0        6.698316   -5.394581   -0.303402
     64          1           0        8.178576   -4.432030   -2.701383
     65          1           0        8.671826   -6.474516   -0.092720
     66          1           0        9.430389   -4.883689    0.257403
     67          1           0        9.416624   -5.471012   -1.324317
     68          1           0        6.275239   -6.086824   -2.786683
     69          1           0        6.183211   -4.789379   -3.972437
     70          1           0        4.692442   -5.306355   -1.511334
     71          1           0        4.036703   -4.812006   -3.108931
     72          1           0        4.803331   -3.614834   -1.971491
     73          1           0        6.501197    0.577428   -6.149267
     74          1           0        7.077519   -1.070338   -5.711333
     75          1           0        8.254645    0.308022   -5.703619
     76          1           0        7.930055    4.274510   -2.489418
     77          1           0        5.630986    7.902087   -2.907107
     78          1           0        5.343537    7.463009   -1.117047
     79          1           0        4.365984    6.881422   -2.477884
     80         12           0       -6.421453   -0.936363    0.097898
     81          6           0       -8.874780    1.682624    0.063990
     82          6           0       -4.054155    1.490009    0.476359
     83          6           0       -4.207401   -3.170579   -0.318883
     84          6           0       -8.800810   -2.995024   -1.400864
     85          7           0       -6.569411    1.265992    0.239310
     86          6           0       -7.559316    2.145241    0.276057
     87          6           0       -7.122621    3.590762    0.635664
     88          6           0       -5.587811    3.500700    0.171864
     89          6           0       -5.370431    1.997959    0.336729
     90          6           0       -5.379317    3.855832   -1.290921
     91          6           0       -7.242021    3.886503    2.171992
     92          6           0       -7.128716    5.364213    2.553146
     93          1           0       -7.934553    5.859858    3.665544
     94          7           0       -4.491064   -0.933179    0.558539
     95          6           0       -3.688491    0.143360    0.693540
     96          6           0       -2.355119   -0.386989    1.017622
     97          6           0       -2.399028   -1.869929    0.900758
     98          6           0       -3.724290   -2.051293    0.343203
     99          6           0       -1.220418    0.485344    1.470297
    100          6           0       -1.406951   -2.945854    1.223840
    101          8           0       -1.566142   -4.151852    0.820018
    102          6           0       -0.197441   -2.526687    1.946939
    103          7           0       -6.418848   -2.744851   -0.927628
    104          6           0       -5.342622   -3.550558   -0.905573
    105          6           0       -5.667097   -4.909959   -1.477541
    106          6           0       -7.254993   -4.928560   -1.666814
    107          6           0       -7.578147   -3.480971   -1.236168
    108          6           0       -4.992454   -5.250985   -2.806058
    109          6           0       -8.030823   -6.091679   -0.990127
    110          6           0       -7.957184   -5.955159    0.513647
    111          7           0       -8.520413   -0.786807   -0.392021
    112          6           0       -9.316041   -1.756312   -1.040959
    113          6           0      -10.647520   -1.153647   -1.256275
    114          6           0      -10.526250    0.142979   -0.734213
    115          6           0       -9.205995    0.341703   -0.247450
    116          6           0      -11.748648   -1.779336   -1.906020
    117          6           0      -11.211780    1.392362   -0.493839
    118          8           0      -12.371484    1.784488   -0.616527
    119          6           0      -10.136382    2.487576   -0.081028
    120          6           0      -10.650953    3.208749    1.134554
    121          8           0      -10.788198    2.608163    2.214866
    122          8           0      -10.689057    4.529426    0.880145
    123          6           0      -11.182528    5.288499    2.060020
    124          1           0       -3.217328    2.180544    0.367861
    125          1           0       -3.514410   -4.012132   -0.389808
    126          1           0       -9.626346   -3.605430   -1.773111
    127          1           0       -7.632980    4.370292    0.082808
    128          1           0       -4.938810    4.055861    0.844143
    129          1           0       -6.316376    3.996206   -1.808944
    130          1           0       -4.830533    3.027412   -1.719422
    131          1           0       -4.724830    4.727879   -1.377542
    132          1           0       -6.354050    3.492138    2.682608
    133          1           0       -8.151841    3.479720    2.568713
    134          1           0       -7.229024    6.023382    1.682295
    135          1           0       -6.115401    5.552216    2.916281
    136          1           0       -1.436882    1.547271    1.300431
    137          1           0       -0.371186    0.272559    0.811971
    138          1           0       -0.924647    0.289471    2.503162
    139          1           0        0.327371   -1.772080    1.365910
    140          1           0        0.346611   -3.447743    2.164981
    141          1           0       -0.499070   -2.047938    2.885261
    142          1           0       -5.386118   -5.696670   -0.788176
    143          1           0       -7.538089   -5.011811   -2.726419
    144          1           0       -4.391680   -6.179137   -2.764892
    145          1           0       -4.376384   -4.412034   -3.101287
    146          1           0       -5.667406   -5.351773   -3.654271
    147          1           0       -7.568098   -7.050163   -1.237789
    148          1           0       -9.071606   -6.149250   -1.290903
    149          1           0       -6.991732   -6.409485    0.755688
    150          1           0       -8.776148   -6.492431    0.987633
    151          1           0       -7.909394   -4.901222    0.811276
    152          1           0      -12.626472   -1.557911   -1.313665
    153          1           0      -11.594882   -2.851891   -2.004747
    154          1           0      -11.719782   -1.269800   -2.872878
    155          1           0      -10.008810    3.158336   -0.931547
    156          1           0      -12.038731    5.881157    1.723357
    157          1           0      -10.306656    5.843035    2.446141
    158          1           0      -11.623559    4.721957    2.871792
 ---------------------------------------------------------------------

 SCF Done:  E(RCAM-B3LYP) =  -4069.81191946     A.U. after   19 cycles

 Excitation energies and oscillator strengths:

 Excited State   1:      Singlet-A      1.6720 eV  741.54 nm  f=0.3213  <S**2>=0.000
     310 -> 316       -0.14461
     311 -> 313        0.37499
     312 -> 314        0.57478
 This state for optimization and/or second-order correction.
 Total Energy, E(TD-HF/TD-DFT) =  -4069.75047517
 Copying the excited state density for this state as the 1-particle RhoCI density.

 Excited State   2:      Singlet-A      1.6816 eV  737.31 nm  f=0.4627  <S**2>=0.000
     309 -> 315        0.14800
     311 -> 313        0.57414
     312 -> 314       -0.37462

 Excited State   3:      Singlet-A      2.1855 eV  567.31 nm  f=0.0366  <S**2>=0.000
     309 -> 313       -0.21589
     310 -> 314        0.60587
     312 -> 316        0.25655

 Excited State   4:      Singlet-A      2.1945 eV  564.98 nm  f=0.1509  <S**2>=0.000
     309 -> 313        0.60329
     310 -> 314        0.21405
     311 -> 315       -0.26360

 Excited State   5:      Singlet-A      2.5944 eV  477.89 nm  f=0.0000  <S**2>=0.000
     312 -> 313        0.70689

 The electronic state is 1-A.
 Alpha  occ. eigenvalues --  -46.87982 -46.87537 -19.26530 -19.26270 -19.19276
 Alpha  occ. eigenvalues --  -19.19076 -19.18952 -19.18581 -19.18353 -19.17940
 Alpha  occ. eigenvalues --  -14.42635 -14.42371 -14.41610 -14.41238 -14.39584
 Alpha  occ. eigenvalues --  -14.39226 -14.38769 -14.38479 -10.39328 -10.39004
 Alpha  occ. eigenvalues --  -10.35584 -10.35258 -10.34576 -10.34119 -10.31934
 Alpha  occ. eigenvalues --  -10.31690 -10.31591 -10.31182 -10.31102 -10.30893
 Alpha  occ. eigenvalues --  -10.30749 -10.30674 -10.30351 -10.30279 -10.30237
 Alpha  occ. eigenvalues --  -10.30067 -10.30015 -10.29797 -10.29782 -10.29422
 Alpha  occ. eigenvalues --  -10.29305 -10.29277 -10.28970 -10.28816 -10.28599
 Alpha  occ. eigenvalues --  -10.28581 -10.28549 -10.28317 -10.28278 -10.28000
 Alpha  occ. eigenvalues --  -10.27965 -10.27905 -10.27874 -10.27753 -10.27654
 Alpha  occ. eigenvalues --  -10.27587 -10.27582 -10.27532 -10.27529 -10.27414
 Alpha  occ. eigenvalues --  -10.27362 -10.27359 -10.27337 -10.27287 -10.27273
 Alpha  occ. eigenvalues --  -10.26984 -10.26944 -10.26600 -10.26544 -10.26409
 Alpha  occ. eigenvalues --  -10.26273 -10.26208 -10.26171 -10.26050 -10.25985
 Alpha  occ. eigenvalues --  -10.25845 -10.25814 -10.25748 -10.25508 -10.25296
 Alpha  occ. eigenvalues --  -10.25009 -10.24944 -10.24750 -10.24666 -10.24649
 Alpha  occ. eigenvalues --  -10.24569  -3.16726  -3.16287  -1.91609  -1.91194
 Alpha  occ. eigenvalues --   -1.91170  -1.91036  -1.90758  -1.90595  -1.16880
 Alpha  occ. eigenvalues --   -1.16562  -1.08815  -1.08551  -1.07350  -1.06895
 Alpha  occ. eigenvalues --   -1.06860  -1.06832  -1.04767  -1.04369  -1.03926
 Alpha  occ. eigenvalues --   -1.03540  -1.03406  -1.02917  -1.02581  -1.01989
 Alpha  occ. eigenvalues --   -0.92156  -0.91868  -0.89641  -0.89395  -0.89383
 Alpha  occ. eigenvalues --   -0.89024  -0.88398  -0.88112  -0.88036  -0.87853
 Alpha  occ. eigenvalues --   -0.87678  -0.87560  -0.87438  -0.86979  -0.85181
 Alpha  occ. eigenvalues --   -0.84879  -0.84037  -0.83774  -0.83100  -0.82831
 Alpha  occ. eigenvalues --   -0.82800  -0.82529  -0.81785  -0.81495  -0.80778
 Alpha  occ. eigenvalues --   -0.80330  -0.78963  -0.78502  -0.77380  -0.77115
 Alpha  occ. eigenvalues --   -0.77023  -0.76791  -0.76112  -0.75715  -0.75021
 Alpha  occ. eigenvalues --   -0.74692  -0.72936  -0.72577  -0.71836  -0.71458
 Alpha  occ. eigenvalues --   -0.69981  -0.69656  -0.69061  -0.68707  -0.67813
 Alpha  occ. eigenvalues --   -0.67484  -0.67429  -0.67086  -0.65488  -0.65155
 Alpha  occ. eigenvalues --   -0.65031  -0.64792  -0.64654  -0.64541  -0.64391
 Alpha  occ. eigenvalues --   -0.64094  -0.62496  -0.62179  -0.60594  -0.60211
 Alpha  occ. eigenvalues --   -0.60000  -0.59670  -0.59153  -0.58874  -0.58672
 Alpha  occ. eigenvalues --   -0.58309  -0.57785  -0.57456  -0.57450  -0.57121
 Alpha  occ. eigenvalues --   -0.56481  -0.56196  -0.56080  -0.55785  -0.55686
 Alpha  occ. eigenvalues --   -0.55478  -0.55332  -0.55145  -0.54677  -0.54390
 Alpha  occ. eigenvalues --   -0.54105  -0.53789  -0.53456  -0.53409  -0.53109
 Alpha  occ. eigenvalues --   -0.53102  -0.53022  -0.52929  -0.52791  -0.52529
 Alpha  occ. eigenvalues --   -0.52502  -0.52305  -0.52072  -0.51819  -0.51777
 Alpha  occ. eigenvalues --   -0.51538  -0.51361  -0.51090  -0.50724  -0.50333
 Alpha  occ. eigenvalues --   -0.50151  -0.50065  -0.49850  -0.49750  -0.49695
 Alpha  occ. eigenvalues --   -0.49394  -0.49359  -0.49282  -0.49076  -0.48983
 Alpha  occ. eigenvalues --   -0.48781  -0.48609  -0.48585  -0.48441  -0.48269
 Alpha  occ. eigenvalues --   -0.48207  -0.47860  -0.47469  -0.47457  -0.46986
 Alpha  occ. eigenvalues --   -0.46953  -0.46758  -0.46592  -0.46521  -0.46432
 Alpha  occ. eigenvalues --   -0.46318  -0.46148  -0.46005  -0.45976  -0.45718
 Alpha  occ. eigenvalues --   -0.45317  -0.45097  -0.44757  -0.44665  -0.44403
 Alpha  occ. eigenvalues --   -0.44353  -0.44298  -0.44254  -0.44191  -0.44004
 Alpha  occ. eigenvalues --   -0.43964  -0.43811  -0.43683  -0.43555  -0.43455
 Alpha  occ. eigenvalues --   -0.43269  -0.43192  -0.42914  -0.42833  -0.42789
 Alpha  occ. eigenvalues --   -0.42757  -0.42440  -0.42141  -0.41874  -0.41860
 Alpha  occ. eigenvalues --   -0.41722  -0.41554  -0.41346  -0.41309  -0.41045
 Alpha  occ. eigenvalues --   -0.40983  -0.40863  -0.40684  -0.40604  -0.40579
 Alpha  occ. eigenvalues --   -0.40468  -0.40384  -0.40120  -0.39501  -0.39327
 Alpha  occ. eigenvalues --   -0.38595  -0.38242  -0.37973  -0.37550  -0.37469
 Alpha  occ. eigenvalues --   -0.37453  -0.37153  -0.37079  -0.36922  -0.36682
 Alpha  occ. eigenvalues --   -0.36363  -0.36110  -0.34461  -0.34133  -0.34013
 Alpha  occ. eigenvalues --   -0.33770  -0.33362  -0.33053  -0.31481  -0.31206
 Alpha  occ. eigenvalues --   -0.31140  -0.30850  -0.30214  -0.29847  -0.29622
 Alpha  occ. eigenvalues --   -0.29498  -0.29197  -0.29089  -0.24257  -0.23913
 Alpha  occ. eigenvalues --   -0.21297  -0.20992
 Alpha virt. eigenvalues --   -0.08945  -0.08665  -0.01916  -0.01561  -0.00227
 Alpha virt. eigenvalues --    0.00102   0.02030   0.02319   0.02795   0.03328
 Alpha virt. eigenvalues --    0.04523   0.04849   0.04859   0.05256   0.05939

 Mulliken charges:
               1
     1  Mg   0.836476
     2  C   -0.003799
     3  C   -0.094752
     4  C   -0.045376
     5  C   -0.063382
     6  N   -0.256859
     7  C   -0.052960
     8  C   -0.013768
     9  C   -0.086859
    10  C    0.045833
    11  C    0.104720
    12  C    0.053612
    13  C   -0.071555
    14  H    0.034911
    15  N   -0.433321
    16  C    0.167856
    17  C   -0.177600
    18  C   -0.004101
    19  C    0.148289
    20  C    0.110177
    21  C    0.012117
    22  O   -0.248472
    23  C    0.062666
    24  N   -0.341214
    25  C    0.041320
    26  C   -0.028361
    27  C   -0.024130
    28  C    0.074972
    29  C    0.076007
    30  C    0.034848
    31  C   -0.004333
    32  N   -0.310500
    33  C    0.080240
    34  C   -0.169479
    35  C    0.008396
    36  C    0.082534
    37  C    0.127303
    38  C    0.045903
    39  O   -0.188327
    40  C   -0.005207
    41  C    0.213179
    42  O   -0.258571
    43  O   -0.304374
    44  C    0.157792
    45  H   -0.017395
    46  H   -0.015950
    47  H   -0.040820
    48  H    0.001231
    49  H   -0.004280
    50  H    0.025672
    51  H    0.016829
    52  H    0.016930
    53  H    0.010122
    54  H    0.042865
    55  H    0.018729
    56  H    0.018040
    57  H    0.005802
    58  H    0.027427
    59  H    0.038912
    60  H    0.037559
    61  H    0.036582
    62  H    0.030464
    63  H    0.017681
    64  H    0.009626
    65  H    0.023887
    66  H    0.012348
    67  H    0.004973
    68  H    0.007120
    69  H    0.004637
    70  H    0.010510
    71  H    0.019745
    72  H    0.027198
    73  H    0.047574
    74  H    0.009656
    75  H    0.046299
    76  H    0.035514
    77  H    0.043520
    78  H    0.046284
    79  H    0.052787
    80  Mg   0.837678
    81  C   -0.016899
    82  C   -0.087783
    83  C   -0.045424
    84  C   -0.064905
    85  N   -0.254538
    86  C   -0.049920
    87  C   -0.015102
    88  C   -0.090386
    89  C    0.045482
    90  C    0.114156
    91  C    0.062610
    92  C   -0.077587
    93  H    0.034151
    94  N   -0.423633
    95  C    0.162638
    96  C   -0.173646
    97  C   -0.007813
    98  C    0.152352
    99  C    0.098878
   100  C    0.015676
   101  O   -0.253125
   102  C    0.060886
   103  N   -0.350003
   104  C    0.037680
   105  C   -0.019896
   106  C   -0.034706
   107  C    0.088758
   108  C    0.073630
   109  C    0.034807
   110  C   -0.007617
   111  N   -0.324018
   112  C    0.078228
   113  C   -0.163388
   114  C    0.002157
   115  C    0.096020
   116  C    0.131544
   117  C    0.042171
   118  O   -0.188351
   119  C    0.000976
   120  C    0.211200
   121  O   -0.251251
   122  O   -0.305546
   123  C    0.152160
   124  H   -0.017876
   125  H   -0.015646
   126  H   -0.040775
   127  H   -0.000727
   128  H   -0.004480
   129  H    0.022188
   130  H    0.015512
   131  H    0.017067
   132  H    0.013634
   133  H    0.037435
   134  H    0.020929
   135  H    0.019348
   136  H    0.009845
   137  H    0.028566
   138  H    0.038281
   139  H    0.038513
   140  H    0.037795
   141  H    0.032698
   142  H    0.014225
   143  H    0.012300
   144  H    0.024783
   145  H    0.012102
   146  H    0.005566
   147  H    0.006016
   148  H    0.003476
   149  H    0.010860
   150  H    0.017634
   151  H    0.030181
   152  H    0.045670
   153  H    0.008274
   154  H    0.046837
   155  H    0.035064
   156  H    0.043732
   157  H    0.049394
   158  H    0.053349
 Sum of Mulliken charges =  -0.00000

 Dipole moment (field-independent basis, Debye):
    X=              6.2230    Y=              2.2638    Z=              3.5094  Tot=              7.4944
 Quadrupole moment (field-independent basis, Debye-Ang):
   XX=           -559.3280   YY=           -482.5263   ZZ=           -504.6267
   XY=             17.2283   XZ=             36.5811   YZ=             49.2038

 Normal termination of Gaussian 16 at Sat Sep 11 17:23:15 2021.
