 Gaussian 16, Revision A.03,
 Gaussian 16:  ES64L-G16RevA.03 25-Dec-2016

 -----------------------------------
 #p cam-b3lyp/Def2SVP td=(nstates=5)
 -----------------------------------

 --------------------------------
 TDDFT excited states in gaussian
 --------------------------------
 Symbolic Z-matrix:
 Charge =  0 Multiplicity = 1

                         Standard orientation:
 ---------------------------------------------------------------------
 Center     Atomic      Atomic             Coordinates (Angstroms)
 Number     Number       Type             X           Y           Z
 ---------------------------------------------------------------------
      1         12           0       -5.018659   -1.245867   -0.214015
      2          6           0       -5.582585    2.255885    0.267582
      3          6           0       -5.775816   -0.763473   -3.505986
      4          6           0       -4.971283   -4.396195   -0.574310
      5          6           0       -5.421263   -1.633501    3.225943
      6          7           0       -5.589147    0.563618   -1.354608
      7          6           0       -5.711390    1.855066   -1.064109
      8          6           0       -5.914663    2.754292   -2.320073
      9          6           0       -6.516312    1.663928   -3.315624
     10          6           0       -5.896193    0.415890   -2.712484
     11          6           0       -8.034971    1.542985   -3.241114
     12          6           0       -4.565065    3.338328   -2.857863
     13          6           0       -4.704055    4.477542   -3.871878
     14          1           0       -3.726237    5.554978   -3.853075
     15          7           0       -4.849242   -2.346360   -1.845904
     16          6           0       -5.190605   -1.984270   -3.105923
     17          6           0       -4.874568   -3.146560   -3.963760
     18          6           0       -4.499488   -4.280313   -3.073809
     19          6           0       -4.787349   -3.720146   -1.778151
     20          6           0       -4.897529   -3.094886   -5.460608
     21          6           0       -3.976160   -5.654718   -3.348164
     22          8           0       -3.936446   -6.559996   -2.446239
     23          6           0       -3.588509   -5.944218   -4.740629
     24          7           0       -5.389996   -2.830410    1.093260
     25          6           0       -5.242651   -4.099798    0.698386
     26          6           0       -5.284294   -5.042630    1.864264
     27          6           0       -5.248010   -4.128861    3.173257
     28          6           0       -5.275713   -2.738668    2.491445
     29          6           0       -6.501207   -5.976009    1.927023
     30          6           0       -4.129937   -4.422264    4.204880
     31          6           0       -2.782014   -4.075336    3.613405
     32          7           0       -5.252844    0.072564    1.494183
     33          6           0       -5.426995   -0.305443    2.833383
     34          6           0       -5.649734    0.930674    3.605697
     35          6           0       -5.605895    1.947101    2.653437
     36          6           0       -5.396841    1.379482    1.364098
     37          6           0       -5.915074    1.004773    5.001598
     38          6           0       -5.711598    3.378560    2.421896
     39          8           0       -5.794308    4.370583    3.147528
     40          6           0       -5.822375    3.625469    0.852632
     41          6           0       -4.855809    4.721658    0.495660
     42          8           0       -3.624163    4.544696    0.591036
     43          8           0       -5.516313    5.713045   -0.121940
     44          6           0       -4.610172    6.819884   -0.529334
     45          1           0       -6.220929   -0.776670   -4.502801
     46          1           0       -4.852081   -5.479817   -0.637485
     47          1           0       -5.470192   -1.669034    4.315804
     48          1           0       -6.626728    3.568715   -2.185525
     49          1           0       -6.163613    1.806700   -4.336869
     50          1           0       -8.442156    2.135945   -2.422262
     51          1           0       -8.235022    0.483484   -3.080086
     52          1           0       -8.490856    1.791667   -4.199813
     53          1           0       -4.074357    2.592358   -3.482999
     54          1           0       -3.930284    3.664951   -2.033425
     55          1           0       -5.716949    4.881101   -3.881614
     56          1           0       -4.567645    4.063894   -4.871121
     57          1           0       -5.369482   -2.182343   -5.822643
     58          1           0       -5.557946   -3.894015   -5.796691
     59          1           0       -3.905548   -3.232231   -5.891237
     60          1           0       -4.450544   -5.798380   -5.391916
     61          1           0       -3.154470   -6.943396   -4.730397
     62          1           0       -2.839090   -5.218013   -5.056771
     63          1           0       -4.417480   -5.702220    1.864940
     64          1           0       -6.169492   -4.205093    3.750954
     65          1           0       -6.240280   -7.034126    1.958825
     66          1           0       -7.139098   -5.756073    1.071445
     67          1           0       -7.180214   -5.786539    2.757966
     68          1           0       -4.109114   -5.483621    4.449897
     69          1           0       -4.248130   -3.869042    5.136667
     70          1           0       -2.529474   -4.968308    3.042743
     71          1           0       -2.053204   -3.898918    4.405190
     72          1           0       -2.858075   -3.248137    2.907400
     73          1           0       -5.310960    1.827598    5.383664
     74          1           0       -5.669967    0.067971    5.501526
     75          1           0       -6.986238    1.205749    4.993140
     76          1           0       -6.855110    3.908920    0.652041
     77          1           0       -5.002501    7.735401   -0.086457
     78          1           0       -4.535438    6.775132   -1.615988
     79          1           0       -3.605278    6.800734   -0.106063
     80         12           0        5.510596   -0.231780    0.323727
     81          6           0        3.936259    2.989173    0.485043
     82          6           0        5.839667    0.263077   -3.035053
     83          6           0        6.488344   -3.240174    0.076760
     84          6           0        4.055130   -0.943537    3.409304
     85          7           0        4.925188    1.449763   -0.988494
     86          6           0        4.389287    2.647237   -0.806190
     87          6           0        4.408951    3.558730   -2.062518
     88          6           0        4.486542    2.415627   -3.187759
     89          6           0        5.157455    1.313423   -2.370626
     90          6           0        3.122225    1.916459   -3.633633
     91          6           0        5.669498    4.492169   -2.104077
     92          6           0        5.600040    5.621070   -3.134854
     93          1           0        6.207601    6.906428   -2.801391
     94          7           0        6.515164   -1.140724   -1.126519
     95          6           0        6.555771   -0.792988   -2.429864
     96          6           0        7.416479   -1.789696   -3.085553
     97          6           0        7.747280   -2.848805   -2.093806
     98          6           0        6.894133   -2.453197   -0.991205
     99          6           0        7.907214   -1.638934   -4.496187
    100          6           0        8.668256   -4.030415   -2.136040
    101          8           0        8.620832   -4.953190   -1.247740
    102          6           0        9.563349   -4.122730   -3.298703
    103          7           0        5.134136   -1.934179    1.456191
    104          6           0        5.727185   -3.104725    1.162861
    105          6           0        5.524008   -4.111640    2.269757
    106          6           0        4.873686   -3.293806    3.480469
    107          6           0        4.724693   -1.914031    2.802662
    108          6           0        4.634415   -5.306463    1.927119
    109          6           0        5.600142   -3.369312    4.851310
    110          6           0        6.938568   -2.671739    4.765249
    111          7           0        4.381758    0.867949    1.801696
    112          6           0        3.846941    0.370540    3.010264
    113          6           0        3.063048    1.463230    3.621792
    114          6           0        3.178134    2.521671    2.708029
    115          6           0        3.960583    2.110703    1.595205
    116          6           0        2.329910    1.380708    4.839083
    117          6           0        2.806783    3.889764    2.426752
    118          8           0        2.222827    4.776684    3.048135
    119          6           0        3.175839    4.212938    0.914878
    120          6           0        3.897130    5.532541    0.884705
    121          8           0        5.012420    5.655627    1.420973
    122          8           0        3.255370    6.366415    0.046149
    123          6           0        3.939395    7.685015   -0.026052
    124          1           0        5.787994    0.217555   -4.123238
    125          1           0        6.891237   -4.255489    0.094143
    126          1           0        3.652022   -1.054710    4.418165
    127          1           0        3.517622    4.158475   -2.202599
    128          1           0        5.123278    2.718280   -4.015003
    129          1           0        2.325790    2.330452   -3.033254
    130          1           0        3.154326    0.839843   -3.529170
    131          1           0        2.979559    2.111630   -4.700351
    132          1           0        6.521261    3.926063   -2.502534
    133          1           0        5.872960    4.901072   -1.133496
    134          1           0        4.583461    5.765057   -3.520600
    135          1           0        6.180388    5.325903   -4.012403
    136          1           0        7.365740   -0.846839   -5.027963
    137          1           0        7.636975   -2.557281   -5.028607
    138          1           0        8.989251   -1.502608   -4.553427
    139          1           0        8.970417   -4.146951   -4.209908
    140          1           0       10.205671   -4.984069   -3.105337
    141          1           0       10.172952   -3.213366   -3.343981
    142          1           0        6.470656   -4.526141    2.594045
    143          1           0        3.856034   -3.643535    3.708297
    144          1           0        5.136562   -6.281149    2.075142
    145          1           0        4.301744   -5.201746    0.902963
    146          1           0        3.693152   -5.352755    2.472188
    147          1           0        5.808630   -4.409700    5.112643
    148          1           0        5.028143   -2.940680    5.667453
    149          1           0        7.589772   -3.439296    4.336442
    150          1           0        7.279106   -2.372897    5.754579
    151          1           0        6.902209   -1.836557    4.056169
    152          1           0        2.529244    2.293223    5.385060
    153          1           0        2.613018    0.502055    5.414930
    154          1           0        1.311522    1.304996    4.448679
    155          1           0        2.243724    4.242847    0.349331
    156          1           0        3.194210    8.445749    0.226279
    157          1           0        4.387340    7.734266   -1.036332
    158          1           0        4.709164    7.891195    0.708386
 ---------------------------------------------------------------------

 SCF Done:  E(RCAM-B3LYP) =  -4069.81081780     A.U. after   19 cycles

 Excitation energies and oscillator strengths:

 Excited State   1:      Singlet-A      1.6562 eV  748.61 nm  f=0.0450  <S**2>=0.000
     309 -> 315       -0.11484
     310 -> 316        0.12394
     311 -> 313       -0.46562
     312 -> 314        0.50536
 This state for optimization and/or second-order correction.
 Total Energy, E(TD-HF/TD-DFT) =  -4069.74995405
 Copying the excited state density for this state as the 1-particle RhoCI density.

 Excited State   2:      Singlet-A      1.6984 eV  730.00 nm  f=0.6815  <S**2>=0.000
     309 -> 315        0.13250
     310 -> 316        0.12126
     311 -> 313        0.50339
     312 -> 314        0.46394

 Excited State   3:      Singlet-A      2.1833 eV  567.88 nm  f=0.0140  <S**2>=0.000
     309 -> 313        0.31655
     310 -> 314        0.56057
     311 -> 315       -0.13258
     312 -> 316       -0.23625

 Excited State   4:      Singlet-A      2.1950 eV  564.85 nm  f=0.1656  <S**2>=0.000
     309 -> 313        0.55696
     310 -> 314       -0.31325
     311 -> 315       -0.24490
     312 -> 316        0.13832

 Excited State   5:      Singlet-A      2.4909 eV  497.74 nm  f=0.0000  <S**2>=0.000
     312 -> 313        0.70703

 The electronic state is 1-A.
 Alpha  occ. eigenvalues --  -46.87784 -46.87452 -19.26138 -19.26087 -19.18898
 Alpha  occ. eigenvalues --  -19.18856 -19.18812 -19.18535 -19.18078 -19.17699
 Alpha  occ. eigenvalues --  -14.42441 -14.42299 -14.41440 -14.41152 -14.39391
 Alpha  occ. eigenvalues --  -14.39144 -14.38563 -14.38373 -10.38929 -10.38821
 Alpha  occ. eigenvalues --  -10.35448 -10.35217 -10.34298 -10.33876 -10.31540
 Alpha  occ. eigenvalues --  -10.31523 -10.31384 -10.31089 -10.30899 -10.30827
 Alpha  occ. eigenvalues --  -10.30545 -10.30486 -10.30213 -10.30171 -10.30126
 Alpha  occ. eigenvalues --  -10.29965 -10.29904 -10.29673 -10.29609 -10.29247
 Alpha  occ. eigenvalues --  -10.29241 -10.29175 -10.28748 -10.28576 -10.28541
 Alpha  occ. eigenvalues --  -10.28534 -10.28339 -10.28176 -10.28116 -10.27975
 Alpha  occ. eigenvalues --  -10.27762 -10.27760 -10.27719 -10.27568 -10.27522
 Alpha  occ. eigenvalues --  -10.27501 -10.27475 -10.27461 -10.27378 -10.27356
 Alpha  occ. eigenvalues --  -10.27316 -10.27262 -10.27250 -10.27199 -10.27074
 Alpha  occ. eigenvalues --  -10.26726 -10.26717 -10.26538 -10.26427 -10.26278
 Alpha  occ. eigenvalues --  -10.26236 -10.26230 -10.26014 -10.26001 -10.25885
 Alpha  occ. eigenvalues --  -10.25782 -10.25735 -10.25544 -10.25443 -10.25223
 Alpha  occ. eigenvalues --  -10.24793 -10.24774 -10.24772 -10.24619 -10.24594
 Alpha  occ. eigenvalues --  -10.24476  -3.16527  -3.16202  -1.91409  -1.91084
 Alpha  occ. eigenvalues --   -1.90995  -1.90837  -1.90673  -1.90509  -1.16485
 Alpha  occ. eigenvalues --   -1.16380  -1.08525  -1.08293  -1.07214  -1.06791
 Alpha  occ. eigenvalues --   -1.06677  -1.06483  -1.04567  -1.04289  -1.03751
 Alpha  occ. eigenvalues --   -1.03454  -1.03216  -1.02826  -1.02395  -1.01893
 Alpha  occ. eigenvalues --   -0.91932  -0.91738  -0.89524  -0.89299  -0.89187
 Alpha  occ. eigenvalues --   -0.88978  -0.88293  -0.88035  -0.87833  -0.87667
 Alpha  occ. eigenvalues --   -0.87540  -0.87483  -0.87270  -0.86932  -0.84979
 Alpha  occ. eigenvalues --   -0.84819  -0.83943  -0.83691  -0.82974  -0.82762
 Alpha  occ. eigenvalues --   -0.82634  -0.82468  -0.81519  -0.81364  -0.80560
 Alpha  occ. eigenvalues --   -0.80228  -0.78784  -0.78427  -0.77216  -0.76958
 Alpha  occ. eigenvalues --   -0.76915  -0.76706  -0.75887  -0.75632  -0.74890
 Alpha  occ. eigenvalues --   -0.74608  -0.72756  -0.72480  -0.71654  -0.71378
 Alpha  occ. eigenvalues --   -0.69935  -0.69592  -0.68865  -0.68641  -0.67617
 Alpha  occ. eigenvalues --   -0.67384  -0.67225  -0.67027  -0.65273  -0.65075
 Alpha  occ. eigenvalues --   -0.64824  -0.64595  -0.64563  -0.64447  -0.64269
 Alpha  occ. eigenvalues --   -0.64012  -0.62215  -0.62045  -0.60438  -0.60146
 Alpha  occ. eigenvalues --   -0.59794  -0.59603  -0.58965  -0.58777  -0.58474
 Alpha  occ. eigenvalues --   -0.58200  -0.57509  -0.57277  -0.57271  -0.57019
 Alpha  occ. eigenvalues --   -0.56284  -0.55986  -0.55897  -0.55664  -0.55502
 Alpha  occ. eigenvalues --   -0.55311  -0.55248  -0.55037  -0.54470  -0.54277
 Alpha  occ. eigenvalues --   -0.53890  -0.53737  -0.53284  -0.53206  -0.53026
 Alpha  occ. eigenvalues --   -0.52942  -0.52865  -0.52756  -0.52695  -0.52503
 Alpha  occ. eigenvalues --   -0.52458  -0.52232  -0.51862  -0.51606  -0.51602
 Alpha  occ. eigenvalues --   -0.51477  -0.51161  -0.50964  -0.50586  -0.50315
 Alpha  occ. eigenvalues --   -0.50049  -0.49916  -0.49805  -0.49685  -0.49502
 Alpha  occ. eigenvalues --   -0.49303  -0.49175  -0.49077  -0.48989  -0.48880
 Alpha  occ. eigenvalues --   -0.48545  -0.48453  -0.48403  -0.48337  -0.48180
 Alpha  occ. eigenvalues --   -0.48117  -0.47681  -0.47402  -0.47279  -0.46929
 Alpha  occ. eigenvalues --   -0.46789  -0.46548  -0.46515  -0.46378  -0.46341
 Alpha  occ. eigenvalues --   -0.46123  -0.46068  -0.45859  -0.45759  -0.45576
 Alpha  occ. eigenvalues --   -0.45201  -0.45015  -0.44526  -0.44511  -0.44321
 Alpha  occ. eigenvalues --   -0.44257  -0.44145  -0.44084  -0.43971  -0.43925
 Alpha  occ. eigenvalues --   -0.43885  -0.43710  -0.43432  -0.43380  -0.43338
 Alpha  occ. eigenvalues --   -0.43179  -0.43000  -0.42706  -0.42697  -0.42650
 Alpha  occ. eigenvalues --   -0.42554  -0.42373  -0.42009  -0.41782  -0.41668
 Alpha  occ. eigenvalues --   -0.41533  -0.41411  -0.41281  -0.41124  -0.40877
 Alpha  occ. eigenvalues --   -0.40829  -0.40788  -0.40573  -0.40553  -0.40531
 Alpha  occ. eigenvalues --   -0.40306  -0.40251  -0.40069  -0.39480  -0.39264
 Alpha  occ. eigenvalues --   -0.38480  -0.38175  -0.37754  -0.37487  -0.37323
 Alpha  occ. eigenvalues --   -0.37254  -0.37078  -0.37004  -0.36625  -0.36533
 Alpha  occ. eigenvalues --   -0.36132  -0.36013  -0.34267  -0.34038  -0.33634
 Alpha  occ. eigenvalues --   -0.33606  -0.33155  -0.32960  -0.31342  -0.31094
 Alpha  occ. eigenvalues --   -0.31015  -0.30760  -0.29935  -0.29601  -0.29432
 Alpha  occ. eigenvalues --   -0.29284  -0.29115  -0.28950  -0.24063  -0.23819
 Alpha  occ. eigenvalues --   -0.21114  -0.20906
 Alpha virt. eigenvalues --   -0.08755  -0.08569  -0.01740  -0.01481  -0.00043
 Alpha virt. eigenvalues --    0.00177   0.02251   0.02488   0.03110   0.03421
 Alpha virt. eigenvalues --    0.04720   0.04915   0.05233   0.05436   0.06169

 Mulliken charges:
               1
     1  Mg   0.838436
     2  C   -0.002662
     3  C   -0.094534
     4  C   -0.045925
     5  C   -0.064298
     6  N   -0.256626
     7  C   -0.052661
     8  C   -0.013798
     9  C   -0.086905
    10  C    0.045995
    11  C    0.104846
    12  C    0.053626
    13  C   -0.071397
    14  H    0.035543
    15  N   -0.433067
    16  C    0.168086
    17  C   -0.177541
    18  C   -0.004199
    19  C    0.148562
    20  C    0.110286
    21  C    0.012176
    22  O   -0.249739
    23  C    0.062597
    24  N   -0.341074
    25  C    0.041005
    26  C   -0.028112
    27  C   -0.023978
    28  C    0.074834
    29  C    0.076169
    30  C    0.035226
    31  C   -0.004379
    32  N   -0.310692
    33  C    0.080538
    34  C   -0.169384
    35  C    0.009160
    36  C    0.083244
    37  C    0.126969
    38  C    0.047478
    39  O   -0.186552
    40  C   -0.005813
    41  C    0.213163
    42  O   -0.255075
    43  O   -0.305413
    44  C    0.156862
    45  H   -0.017888
    46  H   -0.017029
    47  H   -0.041525
    48  H    0.001273
    49  H   -0.004601
    50  H    0.025659
    51  H    0.016466
    52  H    0.016432
    53  H    0.010098
    54  H    0.044603
    55  H    0.018276
    56  H    0.017110
    57  H    0.005532
    58  H    0.026751
    59  H    0.038694
    60  H    0.037256
    61  H    0.035643
    62  H    0.030984
    63  H    0.016230
    64  H    0.009629
    65  H    0.023105
    66  H    0.012670
    67  H    0.004754
    68  H    0.006245
    69  H    0.004782
    70  H    0.008639
    71  H    0.016496
    72  H    0.029503
    73  H    0.049077
    74  H    0.008697
    75  H    0.046061
    76  H    0.034963
    77  H    0.043166
    78  H    0.045068
    79  H    0.056201
    80  Mg   0.837299
    81  C   -0.016337
    82  C   -0.088102
    83  C   -0.045721
    84  C   -0.065168
    85  N   -0.254331
    86  C   -0.049659
    87  C   -0.014986
    88  C   -0.090560
    89  C    0.045462
    90  C    0.114195
    91  C    0.062659
    92  C   -0.077372
    93  H    0.034459
    94  N   -0.423342
    95  C    0.162444
    96  C   -0.175336
    97  C   -0.008258
    98  C    0.151756
    99  C    0.099680
   100  C    0.015162
   101  O   -0.253699
   102  C    0.061388
   103  N   -0.350045
   104  C    0.037299
   105  C   -0.019682
   106  C   -0.034706
   107  C    0.089321
   108  C    0.073743
   109  C    0.034797
   110  C   -0.007567
   111  N   -0.324475
   112  C    0.078868
   113  C   -0.162839
   114  C    0.004086
   115  C    0.095652
   116  C    0.131215
   117  C    0.045464
   118  O   -0.184000
   119  C   -0.000226
   120  C    0.211072
   121  O   -0.251865
   122  O   -0.304884
   123  C    0.152311
   124  H   -0.020860
   125  H   -0.016052
   126  H   -0.040784
   127  H   -0.000082
   128  H   -0.005161
   129  H    0.024030
   130  H    0.013909
   131  H    0.014353
   132  H    0.013649
   133  H    0.037895
   134  H    0.020288
   135  H    0.018969
   136  H    0.008001
   137  H    0.025205
   138  H    0.039163
   139  H    0.037803
   140  H    0.035860
   141  H    0.033637
   142  H    0.013964
   143  H    0.012022
   144  H    0.024670
   145  H    0.012031
   146  H    0.005471
   147  H    0.005794
   148  H    0.003309
   149  H    0.010777
   150  H    0.017605
   151  H    0.030412
   152  H    0.046334
   153  H    0.006961
   154  H    0.050401
   155  H    0.039792
   156  H    0.043802
   157  H    0.048403
   158  H    0.053254
 Sum of Mulliken charges =  -0.00000

 Dipole moment (field-independent basis, Debye):
    X=             -1.9245    Y=             -1.8019    Z=             -7.9802  Tot=              8.4044
 Quadrupole moment (field-independent basis, Debye-Ang):
   XX=           -503.6051   YY=           -539.3137   ZZ=           -458.5200
   XY=             13.5475   XZ=             -2.7161   YZ=            -54.5466

 Normal termination of Gaussian 16 at Fri Sep 10 22:06:32 2021.
