 Gaussian 16, Revision A.03,
 Gaussian 16:  ES64L-G16RevA.03 25-Dec-2016

 -----------------------------------
 #p cam-b3lyp/Def2SVP td=(nstates=5)
 -----------------------------------

 --------------------------------
 TDDFT excited states in gaussian
 --------------------------------
 Symbolic Z-matrix:
 Charge =  0 Multiplicity = 1

                         Standard orientation:
 ---------------------------------------------------------------------
 Center     Atomic      Atomic             Coordinates (Angstroms)
 Number     Number       Type             X           Y           Z
 ---------------------------------------------------------------------
      1         12           0       -3.561894    1.252743   -0.016545
      2          6           0       -4.238258   -1.703511   -1.917941
      3          6           0       -4.740199   -0.415359    2.716969
      4          6           0       -3.400363    3.984940    1.585213
      5          6           0       -3.519755    3.003152   -3.029841
      6          7           0       -4.358336   -0.796717    0.240441
      7          6           0       -4.508965   -1.850595   -0.555689
      8          6           0       -4.909707   -3.148738    0.206940
      9          6           0       -5.573140   -2.487951    1.497372
     10          6           0       -4.821675   -1.168441    1.508142
     11          6           0       -7.063175   -2.203334    1.338343
     12          6           0       -3.667363   -4.023311    0.585665
     13          6           0       -3.986824   -5.451390    1.037205
     14          1           0       -3.069616   -6.521739    0.676054
     15          7           0       -3.538553    1.598152    1.928448
     16          6           0       -4.049599    0.802425    2.898467
     17          6           0       -3.782936    1.495870    4.177023
     18          6           0       -3.244950    2.847496    3.858004
     19          6           0       -3.399679    2.874432    2.425973
     20          6           0       -3.991777    0.860003    5.517101
     21          6           0       -2.690615    3.945344    4.709810
     22          8           0       -2.495081    5.124855    4.256935
     23          6           0       -2.462481    3.623341    6.130130
     24          7           0       -3.689873    3.252159   -0.602711
     25          6           0       -3.528268    4.242288    0.281887
     26          6           0       -3.379128    5.568055   -0.403705
     27          6           0       -3.228753    5.246234   -1.960488
     28          6           0       -3.409835    3.709323   -1.902318
     29          6           0       -4.530582    6.561731   -0.196893
     30          6           0       -1.979306    5.815041   -2.678650
     31          6           0       -0.733255    5.136118   -2.155660
     32          7           0       -3.651060    0.744462   -2.124801
     33          6           0       -3.640473    1.635102   -3.208002
     34          6           0       -3.828864    0.831544   -4.429832
     35          6           0       -3.953352   -0.477368   -3.968209
     36          6           0       -3.875585   -0.487492   -2.546189
     37          6           0       -3.924491    1.340095   -5.755225
     38          6           0       -4.158632   -1.866829   -4.343864
     39          8           0       -4.201652   -2.479090   -5.411936
     40          6           0       -4.473229   -2.701331   -3.024598
     41          6           0       -3.614180   -3.936071   -3.052166
     42          8           0       -2.372790   -3.854047   -2.954244
     43          8           0       -4.394514   -5.022901   -2.950080
     44          6           0       -3.602075   -6.281520   -2.941592
     45          1           0       -5.302908   -0.754354    3.588968
     46          1           0       -3.235356    4.938915    2.090328
     47          1           0       -3.432870    3.470474   -4.012447
     48          1           0       -5.640035   -3.772051   -0.309322
     49          1           0       -5.355927   -3.055130    2.402275
     50          1           0       -7.396275   -2.383202    0.316280
     51          1           0       -7.188338   -1.152490    1.600171
     52          1           0       -7.645085   -2.765576    2.069125
     53          1           0       -3.220023   -3.635109    1.500677
     54          1           0       -2.953582   -4.056850   -0.238179
     55          1           0       -5.012311   -5.727527    0.790155
     56          1           0       -3.953258   -5.480793    2.126337
     57          1           0       -4.549925   -0.071864    5.435610
     58          1           0       -4.647299    1.520546    6.084272
     59          1           0       -3.054411    0.721032    6.055955
     60          1           0       -3.404093    3.315118    6.585007
     61          1           0       -1.980670    4.499127    6.563384
     62          1           0       -1.795015    2.763515    6.194450
     63          1           0       -2.486641    6.088506   -0.058704
     64          1           0       -4.067453    5.631716   -2.540711
     65          1           0       -4.214744    7.516384    0.224518
     66          1           0       -5.278803    6.083802    0.434805
     67          1           0       -5.111293    6.781261   -1.092437
     68          1           0       -1.875154    6.879691   -2.472205
     69          1           0       -2.010116    5.688533   -3.760915
     70          1           0       -0.507897    5.702851   -1.252964
     71          1           0        0.077291    5.217997   -2.880588
     72          1           0       -0.936866    4.108756   -1.853077
     73          1           0       -3.320334    0.681411   -6.379002
     74          1           0       -3.573064    2.370171   -5.810422
     75          1           0       -4.997370    1.255146   -5.927184
     76          1           0       -5.535724   -2.941150   -3.051293
     77          1           0       -3.982787   -6.905976   -3.749891
     78          1           0       -3.658944   -6.676665   -1.927181
     79          1           0       -2.553196   -6.192683   -3.226724
     80         12           0        4.272062   -0.038043    0.029807
     81          6           0        1.527769   -2.015039    1.229550
     82          6           0        6.319609   -2.625134    0.895312
     83          6           0        6.749100    1.843002   -0.597402
     84          6           0        2.208368    2.754733    0.325280
     85          7           0        3.858685   -2.012708    0.936493
     86          6           0        2.770681   -2.678839    1.292660
     87          6           0        3.019648   -4.164917    1.665675
     88          6           0        4.569684   -4.054721    2.070805
     89          6           0        4.958060   -2.844130    1.224459
     90          6           0        4.785936   -3.704066    3.533545
     91          6           0        2.811902   -5.130171    0.446196
     92          6           0        2.735390   -6.615269    0.807268
     93          1           0        1.837697   -7.473095    0.038664
     94          7           0        6.170967   -0.491294   -0.327010
     95          6           0        6.834735   -1.593622    0.079871
     96          6           0        8.209407   -1.443700   -0.422109
     97          6           0        8.346090   -0.086490   -1.017106
     98          6           0        7.072222    0.494655   -0.643441
     99          6           0        9.215808   -2.556826   -0.383217
    100          6           0        9.446919    0.582516   -1.783134
    101          8           0        9.446428    1.846165   -1.997641
    102          6           0       10.571843   -0.270278   -2.193972
    103          7           0        4.525584    2.024738    0.084690
    104          6           0        5.688442    2.588475   -0.286649
    105          6           0        5.548081    4.085282   -0.429011
    106          6           0        3.981300    4.383087   -0.310338
    107          6           0        3.473526    2.954071   -0.017963
    108          6           0        6.304849    4.925224    0.599667
    109          6           0        3.325739    5.176935   -1.473403
    110          6           0        3.329602    4.342798   -2.734193
    111          7           0        2.188775    0.315828    0.480048
    112          6           0        1.537300    1.564923    0.577103
    113          6           0        0.152083    1.300453    1.017159
    114          6           0        0.100027   -0.093360    1.168993
    115          6           0        1.369345   -0.655864    0.865828
    116          6           0       -0.843344    2.286291    1.268900
    117          6           0       -0.737091   -1.215741    1.527055
    118          8           0       -1.930121   -1.360388    1.790704
    119          6           0        0.185391   -2.497907    1.704389
    120          6           0       -0.453708   -3.636759    0.958012
    121          8           0       -0.556634   -3.601863   -0.280855
    122          8           0       -0.639418   -4.667839    1.802273
    123          6           0       -1.260814   -5.825635    1.105736
    124          1           0        7.071790   -3.279726    1.336466
    125          1           0        7.539207    2.528240   -0.913092
    126          1           0        1.474805    3.563501    0.346242
    127          1           0        2.440122   -4.525294    2.507141
    128          1           0        5.124055   -4.934581    1.754770
    129          1           0        3.857676   -3.469987    4.033231
    130          1           0        5.443984   -2.844978    3.535924
    131          1           0        5.334857   -4.505559    4.036161
    132          1           0        3.721874   -5.132674   -0.167549
    133          1           0        1.943421   -4.850173   -0.117707
    134          1           0        2.588259   -6.770888    1.882944
    135          1           0        3.705765   -7.073113    0.600481
    136          1           0        8.880875   -3.379625    0.260386
    137          1           0       10.106969   -2.164792    0.118781
    138          1           0        9.496158   -2.906187   -1.379223
    139          1           0       11.023463   -0.721259   -1.313572
    140          1           0       11.213420    0.366942   -2.805694
    141          1           0       10.182608   -1.092804   -2.804355
    142          1           0        5.896037    4.415703   -1.400015
    143          1           0        3.747613    4.987589    0.578370
    144          1           0        7.009777    5.644788    0.142081
    145          1           0        6.826925    4.255259    1.269824
    146          1           0        5.676956    5.493404    1.283863
    147          1           0        3.907472    6.075337   -1.693863
    148          1           0        2.310419    5.494764   -1.261027
    149          1           0        4.333046    4.509394   -3.137220
    150          1           0        2.564056    4.689633   -3.425336
    151          1           0        3.241356    3.275492   -2.500229
    152          1           0       -1.761590    1.921133    0.828462
    153          1           0       -0.559893    3.252061    0.855732
    154          1           0       -0.841156    2.290937    2.362173
    155          1           0        0.262284   -2.700858    2.773252
    156          1           0       -2.168952   -6.082081    1.660007
    157          1           0       -0.471171   -6.598175    1.047532
    158          1           0       -1.659772   -5.657604    0.112229
 ---------------------------------------------------------------------

 SCF Done:  E(RCAM-B3LYP) =  -4069.75732450     A.U. after   18 cycles

 Excitation energies and oscillator strengths:

 Excited State   1:      Singlet-A      1.6271 eV  762.00 nm  f=0.3794  <S**2>=0.000
     309 -> 315        0.12818
     311 -> 313        0.52423
     312 -> 313       -0.16701
     312 -> 314        0.41319
 This state for optimization and/or second-order correction.
 Total Energy, E(TD-HF/TD-DFT) =  -4069.69752980
 Copying the excited state density for this state as the 1-particle RhoCI density.

 Excited State   2:      Singlet-A      1.6791 eV  738.40 nm  f=0.4373  <S**2>=0.000
     309 -> 315       -0.10306
     310 -> 316        0.13536
     311 -> 313       -0.39295
     312 -> 313        0.12565
     312 -> 314        0.54588

 Excited State   3:      Singlet-A      1.8353 eV  675.54 nm  f=0.0054  <S**2>=0.000
     311 -> 313        0.20680
     312 -> 313        0.66993

 Excited State   4:      Singlet-A      2.1369 eV  580.21 nm  f=0.0137  <S**2>=0.000
     309 -> 313       -0.30212
     310 -> 314        0.57708
     311 -> 315        0.11377
     312 -> 316       -0.21600

 Excited State   5:      Singlet-A      2.1784 eV  569.16 nm  f=0.1448  <S**2>=0.000
     309 -> 313        0.56992
     310 -> 314        0.29316
     311 -> 315       -0.23512
     312 -> 316       -0.12821

 The electronic state is 1-A.
 Alpha  occ. eigenvalues --  -46.87824 -46.86660 -19.26550 -19.25361 -19.19203
 Alpha  occ. eigenvalues --  -19.19178 -19.18883 -19.18225 -19.17841 -19.17165
 Alpha  occ. eigenvalues --  -14.42645 -14.41520 -14.40969 -14.40403 -14.39540
 Alpha  occ. eigenvalues --  -14.38821 -14.37920 -14.37446 -10.39130 -10.37891
 Alpha  occ. eigenvalues --  -10.35554 -10.35003 -10.34864 -10.33374 -10.31545
 Alpha  occ. eigenvalues --  -10.31180 -10.31132 -10.30823 -10.30626 -10.30622
 Alpha  occ. eigenvalues --  -10.30206 -10.30087 -10.30021 -10.29648 -10.29618
 Alpha  occ. eigenvalues --  -10.29593 -10.29431 -10.29378 -10.29253 -10.29072
 Alpha  occ. eigenvalues --  -10.28846 -10.28769 -10.28684 -10.28663 -10.28302
 Alpha  occ. eigenvalues --  -10.28221 -10.28154 -10.27846 -10.27698 -10.27669
 Alpha  occ. eigenvalues --  -10.27649 -10.27627 -10.27514 -10.27496 -10.27469
 Alpha  occ. eigenvalues --  -10.27431 -10.27181 -10.26950 -10.26931 -10.26920
 Alpha  occ. eigenvalues --  -10.26726 -10.26719 -10.26696 -10.26695 -10.26531
 Alpha  occ. eigenvalues --  -10.26313 -10.26258 -10.26222 -10.26095 -10.26083
 Alpha  occ. eigenvalues --  -10.26035 -10.26016 -10.25969 -10.25945 -10.25442
 Alpha  occ. eigenvalues --  -10.25311 -10.25284 -10.25244 -10.25012 -10.25003
 Alpha  occ. eigenvalues --  -10.24946 -10.24885 -10.24771 -10.24692 -10.23807
 Alpha  occ. eigenvalues --  -10.23757  -3.16571  -3.15434  -1.91452  -1.91041
 Alpha  occ. eigenvalues --   -1.90880  -1.90342  -1.89885  -1.89739  -1.16824
 Alpha  occ. eigenvalues --   -1.15668  -1.09751  -1.07629  -1.07129  -1.07062
 Alpha  occ. eigenvalues --   -1.06652  -1.05483  -1.04676  -1.03847  -1.03311
 Alpha  occ. eigenvalues --   -1.03226  -1.02657  -1.02316  -1.02149  -1.01295
 Alpha  occ. eigenvalues --   -0.92271  -0.90857  -0.89621  -0.89295  -0.88892
 Alpha  occ. eigenvalues --   -0.88308  -0.88221  -0.88093  -0.87834  -0.87541
 Alpha  occ. eigenvalues --   -0.87311  -0.86884  -0.86599  -0.86430  -0.85152
 Alpha  occ. eigenvalues --   -0.84400  -0.83924  -0.83389  -0.83064  -0.82834
 Alpha  occ. eigenvalues --   -0.82354  -0.82134  -0.81629  -0.80884  -0.80496
 Alpha  occ. eigenvalues --   -0.79645  -0.78897  -0.77882  -0.77417  -0.77319
 Alpha  occ. eigenvalues --   -0.76533  -0.76339  -0.75712  -0.75105  -0.74821
 Alpha  occ. eigenvalues --   -0.74175  -0.72960  -0.71882  -0.71715  -0.70708
 Alpha  occ. eigenvalues --   -0.69803  -0.69438  -0.69053  -0.68103  -0.67816
 Alpha  occ. eigenvalues --   -0.67334  -0.66717  -0.66516  -0.65511  -0.65079
 Alpha  occ. eigenvalues --   -0.64881  -0.64349  -0.64296  -0.63881  -0.63790
 Alpha  occ. eigenvalues --   -0.63354  -0.62669  -0.61383  -0.60535  -0.60078
 Alpha  occ. eigenvalues --   -0.59840  -0.59307  -0.58863  -0.58617  -0.58125
 Alpha  occ. eigenvalues --   -0.57953  -0.57542  -0.57462  -0.56693  -0.56570
 Alpha  occ. eigenvalues --   -0.56485  -0.56393  -0.55869  -0.55545  -0.55394
 Alpha  occ. eigenvalues --   -0.55148  -0.54831  -0.54697  -0.54634  -0.54071
 Alpha  occ. eigenvalues --   -0.53789  -0.53708  -0.53380  -0.53161  -0.53134
 Alpha  occ. eigenvalues --   -0.52875  -0.52764  -0.52512  -0.52364  -0.52339
 Alpha  occ. eigenvalues --   -0.52067  -0.51927  -0.51873  -0.51745  -0.51551
 Alpha  occ. eigenvalues --   -0.50994  -0.50757  -0.50626  -0.50352  -0.50276
 Alpha  occ. eigenvalues --   -0.50099  -0.49942  -0.49822  -0.49611  -0.49452
 Alpha  occ. eigenvalues --   -0.49383  -0.49262  -0.48990  -0.48728  -0.48516
 Alpha  occ. eigenvalues --   -0.48339  -0.48228  -0.48048  -0.47903  -0.47783
 Alpha  occ. eigenvalues --   -0.47723  -0.47427  -0.47272  -0.47144  -0.46858
 Alpha  occ. eigenvalues --   -0.46705  -0.46594  -0.46557  -0.46384  -0.46262
 Alpha  occ. eigenvalues --   -0.45914  -0.45629  -0.45589  -0.45364  -0.45285
 Alpha  occ. eigenvalues --   -0.44897  -0.44821  -0.44563  -0.44503  -0.44256
 Alpha  occ. eigenvalues --   -0.44241  -0.44066  -0.43787  -0.43724  -0.43642
 Alpha  occ. eigenvalues --   -0.43394  -0.43310  -0.43156  -0.43120  -0.43072
 Alpha  occ. eigenvalues --   -0.42664  -0.42634  -0.42559  -0.42375  -0.42275
 Alpha  occ. eigenvalues --   -0.42064  -0.41957  -0.41805  -0.41741  -0.41567
 Alpha  occ. eigenvalues --   -0.41220  -0.41161  -0.40849  -0.40809  -0.40688
 Alpha  occ. eigenvalues --   -0.40572  -0.40430  -0.40304  -0.40110  -0.40087
 Alpha  occ. eigenvalues --   -0.39801  -0.39579  -0.39456  -0.39048  -0.38796
 Alpha  occ. eigenvalues --   -0.38397  -0.37806  -0.37711  -0.37366  -0.37346
 Alpha  occ. eigenvalues --   -0.36917  -0.36430  -0.36358  -0.36090  -0.35742
 Alpha  occ. eigenvalues --   -0.35285  -0.35102  -0.34393  -0.33682  -0.33288
 Alpha  occ. eigenvalues --   -0.33133  -0.32533  -0.32033  -0.31431  -0.31137
 Alpha  occ. eigenvalues --   -0.30837  -0.30713  -0.29860  -0.29681  -0.29482
 Alpha  occ. eigenvalues --   -0.29020  -0.28376  -0.28250  -0.24208  -0.22853
 Alpha  occ. eigenvalues --   -0.21326  -0.19969
 Alpha virt. eigenvalues --   -0.09043  -0.07699  -0.01847  -0.00835  -0.00302
 Alpha virt. eigenvalues --    0.00937   0.01707   0.03133   0.03219   0.04572
 Alpha virt. eigenvalues --    0.04785   0.04841   0.05887   0.06143   0.06322

 Mulliken charges:
               1
     1  Mg   0.699296
     2  C    0.011328
     3  C   -0.083854
     4  C   -0.035164
     5  C   -0.066961
     6  N   -0.245651
     7  C   -0.051181
     8  C    0.020805
     9  C   -0.093833
    10  C    0.085075
    11  C    0.107550
    12  C   -0.022464
    13  C   -0.087573
    14  H    0.028297
    15  N   -0.434051
    16  C    0.197302
    17  C   -0.184254
    18  C   -0.008286
    19  C    0.119327
    20  C    0.113583
    21  C    0.005471
    22  O   -0.253187
    23  C    0.065254
    24  N   -0.327037
    25  C    0.032908
    26  C   -0.025507
    27  C   -0.023843
    28  C    0.076382
    29  C    0.078091
    30  C    0.041577
    31  C   -0.027142
    32  N   -0.307789
    33  C    0.083239
    34  C   -0.173910
    35  C    0.006952
    36  C    0.082047
    37  C    0.127852
    38  C    0.047262
    39  O   -0.192444
    40  C   -0.011847
    41  C    0.206920
    42  O   -0.241507
    43  O   -0.307367
    44  C    0.157436
    45  H   -0.026580
    46  H   -0.024547
    47  H   -0.046852
    48  H   -0.006287
    49  H   -0.006490
    50  H    0.023353
    51  H    0.016143
    52  H    0.012065
    53  H    0.031339
    54  H    0.081186
    55  H    0.006012
    56  H    0.019449
    57  H    0.006465
    58  H    0.023439
    59  H    0.035824
    60  H    0.037628
    61  H    0.032456
    62  H    0.028551
    63  H    0.009934
    64  H    0.008419
    65  H    0.020322
    66  H    0.013960
    67  H    0.003585
    68  H    0.003676
    69  H    0.003894
    70  H    0.012795
    71  H    0.019941
    72  H    0.038282
    73  H    0.045268
    74  H    0.006133
    75  H    0.043657
    76  H    0.031961
    77  H    0.040466
    78  H    0.042537
    79  H    0.054926
    80  Mg   0.843116
    81  C   -0.019669
    82  C   -0.088090
    83  C   -0.044900
    84  C   -0.065120
    85  N   -0.255383
    86  C   -0.051359
    87  C   -0.015893
    88  C   -0.090636
    89  C    0.047662
    90  C    0.114500
    91  C    0.061958
    92  C   -0.077306
    93  H    0.035744
    94  N   -0.423591
    95  C    0.164791
    96  C   -0.173980
    97  C   -0.006720
    98  C    0.152998
    99  C    0.099184
   100  C    0.016406
   101  O   -0.252037
   102  C    0.060804
   103  N   -0.349961
   104  C    0.038720
   105  C   -0.020490
   106  C   -0.034588
   107  C    0.087127
   108  C    0.073355
   109  C    0.034484
   110  C   -0.009062
   111  N   -0.323625
   112  C    0.079241
   113  C   -0.163461
   114  C    0.005274
   115  C    0.102149
   116  C    0.210301
   117  C    0.058373
   118  O   -0.190173
   119  C    0.031180
   120  C    0.202871
   121  O   -0.229119
   122  O   -0.315841
   123  C    0.173712
   124  H   -0.019274
   125  H   -0.014608
   126  H   -0.036131
   127  H   -0.002025
   128  H   -0.003568
   129  H    0.021364
   130  H    0.014486
   131  H    0.016616
   132  H    0.014609
   133  H    0.043057
   134  H    0.019118
   135  H    0.019385
   136  H    0.009309
   137  H    0.026766
   138  H    0.041111
   139  H    0.038331
   140  H    0.037202
   141  H    0.034694
   142  H    0.015082
   143  H    0.013911
   144  H    0.025441
   145  H    0.011139
   146  H    0.007035
   147  H    0.004995
   148  H    0.003751
   149  H    0.009226
   150  H    0.019590
   151  H    0.031360
   152  H    0.044208
   153  H    0.013870
   154  H    0.056201
   155  H    0.030505
   156  H    0.040677
   157  H    0.039482
   158  H    0.048130
 Sum of Mulliken charges =  -0.00000

 Dipole moment (field-independent basis, Debye):
    X=              3.2304    Y=             -3.3078    Z=              5.8848  Tot=              7.4838
 Quadrupole moment (field-independent basis, Debye-Ang):
   XX=           -492.5154   YY=           -474.2117   ZZ=           -520.8503
   XY=            -24.2054   XZ=             -8.5500   YZ=            -37.0747

 Normal termination of Gaussian 16 at Wed Sep  8 23:52:01 2021.
