 Gaussian 16, Revision A.03,
 Gaussian 16:  ES64L-G16RevA.03 25-Dec-2016

 -----------------------------------
 #p cam-b3lyp/Def2SVP td=(nstates=5)
 -----------------------------------

 --------------------------------
 TDDFT excited states in gaussian
 --------------------------------
 Symbolic Z-matrix:
 Charge =  0 Multiplicity = 1

                         Standard orientation:
 ---------------------------------------------------------------------
 Center     Atomic      Atomic             Coordinates (Angstroms)
 Number     Number       Type             X           Y           Z
 ---------------------------------------------------------------------
      1         12           0        4.186345   -0.115363    0.025129
      2          6           0        3.892266    3.064730   -1.591268
      3          6           0        4.896067    1.578815    2.900737
      4          6           0        4.895665   -2.901630    1.363115
      5          6           0        4.576590   -1.522244   -3.139370
      6          7           0        4.342805    2.047162    0.471952
      7          6           0        4.148048    3.164250   -0.221846
      8          6           0        4.166413    4.449491    0.658604
      9          6           0        5.035593    3.905766    1.879623
     10          6           0        4.712498    2.426219    1.767935
     11          6           0        6.537156    4.096213    1.691104
     12          6           0        2.731895    4.874092    1.120776
     13          6           0        2.624518    6.286096    1.703928
     14          1           0        1.419328    7.060011    1.447179
     15          7           0        4.326167   -0.623680    1.929050
     16          6           0        4.605889    0.198930    2.968451
     17          6           0        4.597120   -0.653547    4.176708
     18          6           0        4.477247   -2.070237    3.733183
     19          6           0        4.589391   -1.921898    2.304618
     20          6           0        4.647447   -0.106323    5.570180
     21          6           0        4.301667   -3.355057    4.479200
     22          8           0        4.453106   -4.493693    3.917820
     23          6           0        4.031145   -3.244085    5.924034
     24          7           0        4.886875   -1.923948   -0.746827
     25          6           0        5.054839   -2.991652    0.041069
     26          6           0        5.287083   -4.234577   -0.765862
     27          6           0        5.000361   -3.835311   -2.285115
     28          6           0        4.716563   -2.326374   -2.083032
     29          6           0        6.688196   -4.851703   -0.656091
     30          6           0        3.956173   -4.686145   -3.050734
     31          6           0        2.580846   -4.461342   -2.463335
     32          7           0        4.055791    0.581929   -2.026159
     33          6           0        4.278381   -0.170745   -3.188316
     34          6           0        4.181365    0.757810   -4.329562
     35          6           0        3.923823    1.997284   -3.747135
     36          6           0        3.889812    1.856937   -2.330294
     37          6           0        4.383985    0.421472   -5.697134
     38          6           0        3.693903    3.412057   -3.990878
     39          8           0        3.519917    4.101639   -4.996711
     40          6           0        3.785256    4.181508   -2.599682
     41          6           0        2.596661    5.099292   -2.508996
     42          8           0        1.439788    4.640562   -2.416376
     43          8           0        3.020113    6.356428   -2.306910
     44          6           0        1.889039    7.313647   -2.178235
     45          1           0        5.358300    1.991813    3.799467
     46          1           0        5.038073   -3.902215    1.776621
     47          1           0        4.603210   -1.904657   -4.161380
     48          1           0        4.661598    5.306439    0.201596
     49          1           0        4.686720    4.298798    2.834366
     50          1           0        6.770252    4.457937    0.689733
     51          1           0        6.977888    3.112262    1.852623
     52          1           0        6.946843    4.739596    2.470202
     53          1           0        2.448687    4.289773    1.996233
     54          1           0        2.015907    4.765374    0.305382
     55          1           0        3.513000    6.877772    1.481599
     56          1           0        2.616815    6.206959    2.791070
     57          1           0        4.899564    0.953373    5.575435
     58          1           0        5.487036   -0.587770    6.071188
     59          1           0        3.728111   -0.303283    6.121867
     60          1           0        4.851364   -2.709591    6.403728
     61          1           0        3.845818   -4.258961    6.274080
     62          1           0        3.139918   -2.633173    6.070490
     63          1           0        4.601320   -5.027173   -0.469305
     64          1           0        5.897823   -3.898390   -2.900954
     65          1           0        6.684368   -5.890688   -0.325636
     66          1           0        7.278679   -4.229730    0.016047
     67          1           0        7.280465   -4.806399   -1.569646
     68          1           0        4.180569   -5.747012   -2.945125
     69          1           0        3.914963   -4.460352   -4.116366
     70          1           0        2.562278   -5.147604   -1.617443
     71          1           0        1.809965   -4.717504   -3.190889
     72          1           0        2.477918   -3.451418   -2.065911
     73          1           0        3.592234    0.921591   -6.254790
     74          1           0        4.354218   -0.657370   -5.848186
     75          1           0        5.376974    0.839065   -5.862801
     76          1           0        4.726568    4.730154   -2.606135
     77          1           0        2.041472    8.092897   -2.925073
     78          1           0        1.856274    7.615674   -1.131281
     79          1           0        0.906220    6.940267   -2.468051
     80         12           0       -3.666519   -1.245640    0.225754
     81          6           0       -6.341272    1.145591    0.143353
     82          6           0       -1.537447    1.375741    0.705323
     83          6           0       -1.250566   -3.268670   -0.145582
     84          6           0       -5.806304   -3.486443   -1.369817
     85          7           0       -4.014354    0.932750    0.386661
     86          6           0       -5.079326    1.720126    0.401851
     87          6           0       -4.784302    3.193607    0.790938
     88          6           0       -3.234180    3.246453    0.374785
     89          6           0       -2.888887    1.766797    0.529863
     90          6           0       -3.013758    3.638773   -1.076714
     91          6           0       -4.976247    3.456408    2.325898
     92          6           0       -5.006713    4.932964    2.726662
     93          1           0       -5.886961    5.339813    3.818506
     94          7           0       -1.759009   -1.077542    0.747016
     95          6           0       -1.060029    0.063981    0.919088
     96          6           0        0.304821   -0.350387    1.279178
     97          6           0        0.396793   -1.829637    1.144676
     98          6           0       -0.889468   -2.120158    0.543669
     99          6           0        1.342993    0.612857    1.776963
    100          6           0        1.470500   -2.817646    1.487010
    101          8           0        1.431752   -4.027335    1.065128
    102          6           0        2.615293   -2.302818    2.252446
    103          7           0       -3.471609   -3.032476   -0.819016
    104          6           0       -2.329046   -3.739758   -0.771915
    105          6           0       -2.513558   -5.114571   -1.368755
    106          6           0       -4.086983   -5.271372   -1.608172
    107          6           0       -4.550788   -3.864222   -1.172023
    108          6           0       -1.771117   -5.376097   -2.679008
    109          6           0       -4.776325   -6.507932   -0.969111
    110          6           0       -4.760906   -6.386129    0.537642
    111          7           0       -5.754589   -1.276153   -0.328403
    112          6           0       -6.440556   -2.303399   -1.012725
    113          6           0       -7.813277   -1.818323   -1.263257
    114          6           0       -7.823949   -0.523359   -0.723392
    115          6           0       -6.542073   -0.215005   -0.193108
    116          6           0       -8.833994   -2.530231   -1.954230
    117          6           0       -8.625073    0.656850   -0.491018
    118          8           0       -9.810832    0.946199   -0.645866
    119          6           0       -7.664587    1.837369   -0.032487
    120          6           0       -8.278098    2.493251    1.174131
    121          8           0       -8.394078    1.868046    2.242912
    122          8           0       -8.425973    3.808715    0.933195
    123          6           0       -9.020768    4.504701    2.105215
    124          1           0       -0.762566    2.139227    0.630849
    125          1           0       -0.483517   -4.044377   -0.203898
    126          1           0       -6.562462   -4.162492   -1.774592
    127          1           0       -5.345037    3.932310    0.230872
    128          1           0       -2.657966    3.847701    1.073243
    129          1           0       -3.943413    3.702589   -1.622446
    130          1           0       -2.380577    2.868286   -1.496795
    131          1           0       -2.437248    4.566560   -1.133060
    132          1           0       -4.072614    3.135393    2.859877
    133          1           0       -5.857853    2.965107    2.689245
    134          1           0       -5.138814    5.592554    1.860391
    135          1           0       -4.025695    5.205106    3.123607
    136          1           0        1.038038    1.653629    1.612054
    137          1           0        2.227433    0.485324    1.143423
    138          1           0        1.623483    0.429803    2.816429
    139          1           0        3.088214   -1.496708    1.696578
    140          1           0        3.232373   -3.174889    2.477380
    141          1           0        2.243808   -1.865677    3.186002
    142          1           0       -2.184700   -5.882679   -0.679565
    143          1           0       -4.329170   -5.364823   -2.677024
    144          1           0       -1.091573   -6.247760   -2.629151
    145          1           0       -1.223556   -4.481813   -2.945430
    146          1           0       -2.408296   -5.524685   -3.549148
    147          1           0       -4.222715   -7.418090   -1.212593
    148          1           0       -5.798196   -6.653472   -1.303153
    149          1           0       -3.766627   -6.756303    0.804985
    150          1           0       -5.542778   -7.000410    0.979646
    151          1           0       -4.816288   -5.336302    0.848216
    152          1           0       -9.745672   -2.395726   -1.387438
    153          1           0       -8.582347   -3.583453   -2.059856
    154          1           0       -8.821262   -2.006889   -2.914029
    155          1           0       -7.571476    2.528443   -0.871132
    156          1           0       -9.915738    5.023654    1.748265
    157          1           0       -8.209943    5.129394    2.524824
    158          1           0       -9.434055    3.890149    2.896398
 ---------------------------------------------------------------------

 SCF Done:  E(RCAM-B3LYP) =  -4069.65867696     A.U. after   20 cycles

 Excitation energies and oscillator strengths:

 Excited State   1:      Singlet-A      1.4111 eV  878.61 nm  f=0.2888  <S**2>=0.000
     309 -> 315       -0.13795
     311 -> 313       -0.16399
     311 -> 314        0.10463
     312 -> 313        0.66236
 This state for optimization and/or second-order correction.
 Total Energy, E(TD-HF/TD-DFT) =  -4069.60681843
 Copying the excited state density for this state as the 1-particle RhoCI density.

 Excited State   2:      Singlet-A      1.6604 eV  746.72 nm  f=0.4760  <S**2>=0.000
     310 -> 316        0.13929
     311 -> 314        0.64707
     312 -> 314        0.19726

 Excited State   3:      Singlet-A      1.9929 eV  622.13 nm  f=0.0085  <S**2>=0.000
     309 -> 313        0.19683
     311 -> 313        0.64114
     312 -> 313        0.16931

 Excited State   4:      Singlet-A      2.0730 eV  598.10 nm  f=0.0253  <S**2>=0.000
     309 -> 313        0.33653
     311 -> 313       -0.19313
     311 -> 314       -0.13702
     312 -> 314        0.51566
     312 -> 315        0.20827

 Excited State   5:      Singlet-A      2.1229 eV  584.02 nm  f=0.0078  <S**2>=0.000
     309 -> 313        0.47245
     310 -> 314        0.25747
     311 -> 313       -0.11817
     311 -> 314        0.11124
     312 -> 314       -0.35145
     312 -> 315        0.14268
     312 -> 316       -0.11305

 The electronic state is 1-A.
 Alpha  occ. eigenvalues --  -46.88664 -46.87273 -19.26767 -19.26111 -19.20390
 Alpha  occ. eigenvalues --  -19.19548 -19.18909 -19.18365 -19.17732 -19.17684
 Alpha  occ. eigenvalues --  -14.42995 -14.42079 -14.41286 -14.41009 -14.39804
 Alpha  occ. eigenvalues --  -14.38919 -14.38802 -14.38240 -10.39578 -10.38830
 Alpha  occ. eigenvalues --  -10.36563 -10.34604 -10.33934 -10.33910 -10.32712
 Alpha  occ. eigenvalues --  -10.32170 -10.31976 -10.31726 -10.31564 -10.31205
 Alpha  occ. eigenvalues --  -10.30913 -10.30877 -10.30631 -10.30359 -10.30310
 Alpha  occ. eigenvalues --  -10.29998 -10.29968 -10.29790 -10.29540 -10.29403
 Alpha  occ. eigenvalues --  -10.29282 -10.29198 -10.29067 -10.28963 -10.28734
 Alpha  occ. eigenvalues --  -10.28650 -10.28489 -10.28458 -10.28449 -10.28377
 Alpha  occ. eigenvalues --  -10.28297 -10.28040 -10.27842 -10.27761 -10.27728
 Alpha  occ. eigenvalues --  -10.27652 -10.27587 -10.27507 -10.27449 -10.27346
 Alpha  occ. eigenvalues --  -10.27316 -10.27268 -10.27248 -10.27186 -10.27112
 Alpha  occ. eigenvalues --  -10.27104 -10.27051 -10.26726 -10.26681 -10.26410
 Alpha  occ. eigenvalues --  -10.25913 -10.25845 -10.25835 -10.25702 -10.25599
 Alpha  occ. eigenvalues --  -10.25563 -10.25371 -10.25202 -10.25128 -10.24982
 Alpha  occ. eigenvalues --  -10.24562 -10.24523 -10.24514 -10.24309 -10.23709
 Alpha  occ. eigenvalues --  -10.22967  -3.17411  -3.16023  -1.92300  -1.91859
 Alpha  occ. eigenvalues --   -1.91734  -1.90905  -1.90494  -1.90330  -1.17119
 Alpha  occ. eigenvalues --   -1.16401  -1.08856  -1.08846  -1.08348  -1.07141
 Alpha  occ. eigenvalues --   -1.06693  -1.06687  -1.05846  -1.04788  -1.04076
 Alpha  occ. eigenvalues --   -1.03584  -1.03256  -1.02684  -1.02670  -1.01746
 Alpha  occ. eigenvalues --   -0.92405  -0.91627  -0.90822  -0.89718  -0.89179
 Alpha  occ. eigenvalues --   -0.88939  -0.88730  -0.88680  -0.88026  -0.87981
 Alpha  occ. eigenvalues --   -0.87924  -0.87464  -0.87310  -0.86786  -0.86066
 Alpha  occ. eigenvalues --   -0.84543  -0.84142  -0.83699  -0.83598  -0.83305
 Alpha  occ. eigenvalues --   -0.82472  -0.82311  -0.81667  -0.81305  -0.81056
 Alpha  occ. eigenvalues --   -0.80084  -0.79962  -0.78549  -0.77582  -0.77218
 Alpha  occ. eigenvalues --   -0.76884  -0.76562  -0.76389  -0.75456  -0.75045
 Alpha  occ. eigenvalues --   -0.74528  -0.73245  -0.72351  -0.72225  -0.71193
 Alpha  occ. eigenvalues --   -0.69944  -0.69510  -0.69404  -0.68740  -0.68308
 Alpha  occ. eigenvalues --   -0.67951  -0.67252  -0.66902  -0.65871  -0.65662
 Alpha  occ. eigenvalues --   -0.65231  -0.64886  -0.64424  -0.64405  -0.64299
 Alpha  occ. eigenvalues --   -0.63889  -0.62917  -0.62335  -0.61983  -0.61029
 Alpha  occ. eigenvalues --   -0.60354  -0.59543  -0.59396  -0.59040  -0.58652
 Alpha  occ. eigenvalues --   -0.58089  -0.57950  -0.57659  -0.57590  -0.57230
 Alpha  occ. eigenvalues --   -0.57045  -0.56476  -0.56296  -0.55907  -0.55749
 Alpha  occ. eigenvalues --   -0.55511  -0.55425  -0.54969  -0.54616  -0.54536
 Alpha  occ. eigenvalues --   -0.54265  -0.53990  -0.53820  -0.53690  -0.53670
 Alpha  occ. eigenvalues --   -0.53275  -0.53192  -0.52822  -0.52710  -0.52554
 Alpha  occ. eigenvalues --   -0.52418  -0.52208  -0.52080  -0.51934  -0.51782
 Alpha  occ. eigenvalues --   -0.51608  -0.51513  -0.51294  -0.50922  -0.50762
 Alpha  occ. eigenvalues --   -0.50600  -0.50276  -0.50258  -0.49803  -0.49708
 Alpha  occ. eigenvalues --   -0.49566  -0.49438  -0.49251  -0.49088  -0.48967
 Alpha  occ. eigenvalues --   -0.48738  -0.48730  -0.48519  -0.48269  -0.48149
 Alpha  occ. eigenvalues --   -0.48083  -0.47915  -0.47644  -0.47166  -0.46975
 Alpha  occ. eigenvalues --   -0.46944  -0.46721  -0.46399  -0.46365  -0.46172
 Alpha  occ. eigenvalues --   -0.46116  -0.46020  -0.45834  -0.45519  -0.45510
 Alpha  occ. eigenvalues --   -0.45401  -0.45091  -0.44813  -0.44749  -0.44592
 Alpha  occ. eigenvalues --   -0.44336  -0.44290  -0.44211  -0.44144  -0.43910
 Alpha  occ. eigenvalues --   -0.43743  -0.43700  -0.43647  -0.43522  -0.43284
 Alpha  occ. eigenvalues --   -0.43103  -0.43043  -0.42935  -0.42744  -0.42641
 Alpha  occ. eigenvalues --   -0.42483  -0.42255  -0.42095  -0.41915  -0.41790
 Alpha  occ. eigenvalues --   -0.41669  -0.41609  -0.41384  -0.41237  -0.41108
 Alpha  occ. eigenvalues --   -0.41091  -0.40880  -0.40594  -0.40424  -0.40346
 Alpha  occ. eigenvalues --   -0.40139  -0.40036  -0.39579  -0.39166  -0.38763
 Alpha  occ. eigenvalues --   -0.38605  -0.38243  -0.38029  -0.38010  -0.37336
 Alpha  occ. eigenvalues --   -0.37094  -0.36988  -0.36879  -0.36808  -0.36510
 Alpha  occ. eigenvalues --   -0.35899  -0.35786  -0.34548  -0.34080  -0.33891
 Alpha  occ. eigenvalues --   -0.33584  -0.33063  -0.32776  -0.32380  -0.30972
 Alpha  occ. eigenvalues --   -0.30617  -0.30248  -0.30029  -0.29638  -0.29491
 Alpha  occ. eigenvalues --   -0.29120  -0.28898  -0.28644  -0.24451  -0.23646
 Alpha  occ. eigenvalues --   -0.20754  -0.20647
 Alpha virt. eigenvalues --   -0.09330  -0.08438  -0.02676  -0.01308  -0.00944
 Alpha virt. eigenvalues --    0.00633   0.01922   0.02632   0.03371   0.03793
 Alpha virt. eigenvalues --    0.04027   0.04549   0.05068   0.05417   0.05448

 Mulliken charges:
               1
     1  Mg   0.711448
     2  C    0.004104
     3  C   -0.096959
     4  C   -0.066452
     5  C   -0.068465
     6  N   -0.250223
     7  C   -0.061219
     8  C   -0.010794
     9  C   -0.084935
    10  C    0.041192
    11  C    0.104329
    12  C    0.043106
    13  C   -0.069601
    14  H    0.034626
    15  N   -0.468782
    16  C    0.174399
    17  C   -0.155823
    18  C   -0.049044
    19  C    0.146265
    20  C    0.113764
    21  C    0.022558
    22  O   -0.235224
    23  C    0.076214
    24  N   -0.348186
    25  C    0.047309
    26  C   -0.028384
    27  C   -0.025309
    28  C    0.091757
    29  C    0.078241
    30  C    0.036356
    31  C   -0.010339
    32  N   -0.302440
    33  C    0.084367
    34  C   -0.172356
    35  C    0.010792
    36  C    0.077808
    37  C    0.127369
    38  C    0.045504
    39  O   -0.188519
    40  C   -0.008507
    41  C    0.213907
    42  O   -0.260574
    43  O   -0.303796
    44  C    0.157164
    45  H   -0.017766
    46  H   -0.007141
    47  H   -0.043031
    48  H    0.001713
    49  H   -0.005147
    50  H    0.027072
    51  H    0.018442
    52  H    0.017373
    53  H    0.013830
    54  H    0.041616
    55  H    0.020323
    56  H    0.018216
    57  H    0.008479
    58  H    0.030205
    59  H    0.039502
    60  H    0.038960
    61  H    0.042351
    62  H    0.029129
    63  H    0.029386
    64  H    0.008284
    65  H    0.024217
    66  H    0.011042
    67  H    0.004402
    68  H    0.004083
    69  H    0.000495
    70  H    0.023905
    71  H    0.012455
    72  H    0.033042
    73  H    0.046900
    74  H    0.010069
    75  H    0.045213
    76  H    0.035922
    77  H    0.044948
    78  H    0.045817
    79  H    0.052266
    80  Mg   0.837768
    81  C   -0.017455
    82  C   -0.093215
    83  C   -0.046037
    84  C   -0.065122
    85  N   -0.254984
    86  C   -0.048785
    87  C   -0.015356
    88  C   -0.089848
    89  C    0.044646
    90  C    0.114131
    91  C    0.063079
    92  C   -0.076515
    93  H    0.032485
    94  N   -0.424989
    95  C    0.169063
    96  C   -0.211985
    97  C    0.011793
    98  C    0.149252
    99  C    0.172992
   100  C    0.061513
   101  O   -0.258830
   102  C    0.023127
   103  N   -0.349454
   104  C    0.036987
   105  C   -0.019622
   106  C   -0.034722
   107  C    0.088687
   108  C    0.071246
   109  C    0.035004
   110  C   -0.007504
   111  N   -0.323870
   112  C    0.078108
   113  C   -0.163704
   114  C    0.001961
   115  C    0.096087
   116  C    0.131585
   117  C    0.041834
   118  O   -0.189182
   119  C    0.001191
   120  C    0.211093
   121  O   -0.251831
   122  O   -0.305329
   123  C    0.152427
   124  H   -0.008851
   125  H   -0.012757
   126  H   -0.041474
   127  H   -0.001018
   128  H   -0.006768
   129  H    0.019183
   130  H    0.024089
   131  H    0.021425
   132  H    0.012236
   133  H    0.036722
   134  H    0.021048
   135  H    0.017902
   136  H    0.007351
   137  H    0.029916
   138  H    0.040663
   139  H    0.063676
   140  H    0.062663
   141  H    0.036188
   142  H    0.013986
   143  H    0.011801
   144  H    0.023706
   145  H    0.015636
   146  H    0.004564
   147  H    0.005197
   148  H    0.003184
   149  H    0.010841
   150  H    0.017051
   151  H    0.030472
   152  H    0.045108
   153  H    0.007774
   154  H    0.046771
   155  H    0.035435
   156  H    0.043358
   157  H    0.049088
   158  H    0.052889
 Sum of Mulliken charges =  -0.00000

 Dipole moment (field-independent basis, Debye):
    X=              6.6997    Y=              2.3635    Z=              4.4713  Tot=              8.3943
 Quadrupole moment (field-independent basis, Debye-Ang):
   XX=           -552.9139   YY=           -477.9444   ZZ=           -500.9578
   XY=             12.7930   XZ=             22.9585   YZ=             48.4894

 Normal termination of Gaussian 16 at Thu Sep  9 10:28:54 2021.
