 Gaussian 16, Revision A.03,
 Gaussian 16:  ES64L-G16RevA.03 25-Dec-2016

 -----------------------------------
 #p cam-b3lyp/Def2SVP td=(nstates=5)
 -----------------------------------

 --------------------------------
 TDDFT excited states in gaussian
 --------------------------------
 Symbolic Z-matrix:
 Charge =  0 Multiplicity = 1

                         Standard orientation:
 ---------------------------------------------------------------------
 Center     Atomic      Atomic             Coordinates (Angstroms)
 Number     Number       Type             X           Y           Z
 ---------------------------------------------------------------------
      1         12           0       16.115918    0.502296    0.701083
      2          6           0       16.399466   -2.406277   -1.365803
      3          6           0       17.088489    2.338130   -2.005739
      4          6           0       16.312739    3.021653    2.616996
      5          6           0       16.279085   -1.622398    3.458747
      6          7           0       16.646640   -0.075139   -1.369074
      7          6           0       16.657275   -1.216545   -2.050434
      8          6           0       16.894083   -1.022010   -3.577998
      9          6           0       17.643779    0.384569   -3.539393
     10          6           0       17.066374    0.932149   -2.246070
     11          6           0       19.156954    0.264557   -3.389729
     12          6           0       15.552816   -0.934459   -4.381159
     13          6           0       15.690643   -1.072182   -5.900168
     14          1           0       14.642602   -1.760084   -6.638916
     15          7           0       16.148160    2.432300    0.280494
     16          6           0       16.559516    3.001984   -0.877752
     17          6           0       16.390776    4.459943   -0.697298
     18          6           0       16.027257    4.703167    0.726356
     19          6           0       16.175724    3.380742    1.278195
     20          6           0       16.524905    5.448331   -1.814817
     21          6           0       15.622126    5.934353    1.473472
     22          8           0       15.575584    5.970515    2.750617
     23          6           0       15.363242    7.138723    0.663833
     24          7           0       16.493784    0.706720    2.743890
     25          6           0       16.464673    1.906506    3.334358
     26          6           0       16.481385    1.780077    4.828906
     27          6           0       16.282128    0.227301    5.143449
     28          6           0       16.266540   -0.307745    3.690262
     29          6           0       17.751102    2.283760    5.529001
     30          6           0       15.110996   -0.155243    6.082879
     31          6           0       13.791794    0.139634    5.404755
     32          7           0       16.127281   -1.643594    1.026768
     33          6           0       16.223718   -2.309113    2.257402
     34          6           0       16.301149   -3.751893    1.963365
     35          6           0       16.260811   -3.824898    0.572362
     36          6           0       16.190759   -2.509537    0.030874
     37          6           0       16.452897   -4.791058    2.923334
     38          6           0       16.285431   -4.706861   -0.583230
     39          8           0       16.243918   -5.927553   -0.743483
     40          6           0       16.499061   -3.818254   -1.887287
     41          6           0       15.489753   -4.262751   -2.910532
     42          8           0       14.269485   -4.074483   -2.729242
     43          8           0       16.126059   -4.619852   -4.036647
     44          6           0       15.179993   -5.043589   -5.103211
     45          1           0       17.608619    2.986483   -2.713584
     46          1           0       16.273421    3.857079    3.319104
     47          1           0       16.246579   -2.350289    4.271502
     48          1           0       17.536123   -1.773578   -4.037731
     49          1           0       17.361500    1.019346   -4.379094
     50          1           0       19.458441   -0.766279   -3.204247
     51          1           0       19.416335    0.895889   -2.539650
     52          1           0       19.666894    0.697172   -4.250881
     53          1           0       15.163895    0.082030   -4.321562
     54          1           0       14.835732   -1.670517   -4.016008
     55          1           0       16.671193   -1.459874   -6.177885
     56          1           0       15.660021   -0.074297   -6.337760
     57          1           0       16.959469    4.991816   -2.703239
     58          1           0       17.262465    6.186420   -1.500272
     59          1           0       15.580663    5.944712   -2.039194
     60          1           0       16.260649    7.392551    0.099227
     61          1           0       14.999329    7.895284    1.358118
     62          1           0       14.592198    6.910150   -0.072505
     63          1           0       15.664413    2.343244    5.278156
     64          1           0       17.159626   -0.209144    5.621137
     65          1           0       17.561774    3.050154    6.280998
     66          1           0       18.436142    2.647565    4.763719
     67          1           0       18.349743    1.507083    6.004207
     68          1           0       15.144360    0.442418    6.993173
     69          1           0       15.119090   -1.205376    6.375124
     70          1           0       13.645689    1.200055    5.607220
     71          1           0       12.993999   -0.456258    5.849329
     72          1           0       13.864819    0.021386    4.323473
     73          1           0       15.766187   -5.583556    2.626108
     74          1           0       16.235061   -4.435065    3.930022
     75          1           0       17.505219   -5.039824    2.786987
     76          1           0       17.522234   -3.990483   -2.219814
     77          1           0       15.473399   -6.046828   -5.412496
     78          1           0       15.192097   -4.257475   -5.858382
     79          1           0       14.149280   -5.217338   -4.792115
     80         12           0      -15.615710    0.456004   -0.459495
     81          6           0      -17.999108   -1.799857    0.992943
     82          6           0      -18.102796    2.788546   -0.550227
     83          6           0      -13.675017    2.314978   -2.146306
     84          6           0      -13.697122   -2.330317   -1.296847
     85          7           0      -17.734949    0.384551    0.169771
     86          6           0      -18.513370   -0.506362    0.765315
     87          6           0      -19.895406    0.042573    1.210533
     88          6           0      -20.011443    1.267455    0.178497
     89          6           0      -18.525511    1.526684   -0.061236
     90          6           0      -20.648497    0.880351   -1.145762
     91          6           0      -19.888908    0.543080    2.697625
     92          6           0      -21.273666    0.803783    3.294484
     93          1           0      -21.489544    0.506800    4.707870
     94          7           0      -15.680695    2.410828   -0.795610
     95          6           0      -16.771332    3.205247   -0.769092
     96          6           0      -16.293533    4.555831   -1.103449
     97          6           0      -14.859598    4.463589   -1.490791
     98          6           0      -14.684582    3.025204   -1.513128
     99          6           0      -17.150280    5.780302   -0.961790
    100          6           0      -13.821495    5.498379   -1.803447
    101          8           0      -12.703579    5.187586   -2.347980
    102          6           0      -14.189628    6.897013   -1.539287
    103          7           0      -14.036252    0.045017   -1.747417
    104          6           0      -13.325478    1.038773   -2.308836
    105          6           0      -12.076068    0.509008   -2.971191
    106          6           0      -11.971534   -1.023890   -2.527474
    107          6           0      -13.284100   -1.144386   -1.722461
    108          6           0      -12.041933    0.600458   -4.496594
    109          6           0      -10.646517   -1.472319   -1.852275
    110          6           0      -10.504940   -0.808092   -0.501661
    111          7           0      -15.692880   -1.664639   -0.053303
    112          6           0      -14.803600   -2.655985   -0.522884
    113          6           0      -15.332056   -3.961450   -0.076880
    114          6           0      -16.513745   -3.638254    0.606975
    115          6           0      -16.718608   -2.232469    0.571124
    116          6           0      -14.756259   -5.232283   -0.358960
    117          6           0      -17.639965   -4.167611    1.341896
    118          8           0      -17.958071   -5.279456    1.761846
    119          6           0      -18.717893   -3.012536    1.515792
    120          6           0      -19.157705   -3.000359    2.954166
    121          8           0      -18.357172   -2.700395    3.857367
    122          8           0      -20.495794   -3.131199    3.006922
    123          6           0      -20.981007   -3.113658    4.412657
    124          1           0      -18.863499    3.516405   -0.833835
    125          1           0      -12.917148    2.919893   -2.649478
    126          1           0      -13.105569   -3.238088   -1.433587
    127          1           0      -20.723049   -0.642173    1.069451
    128          1           0      -20.479318    2.131873    0.642435
    129          1           0      -20.810952   -0.184752   -1.218591
    130          1           0      -19.959231    1.211177   -1.911612
    131          1           0      -21.568918    1.450182   -1.302131
    132          1           0      -19.475323    1.559222    2.731626
    133          1           0      -19.346679   -0.136480    3.325976
    134          1           0      -22.074252    0.368978    2.683781
    135          1           0      -21.467590    1.878735    3.264724
    136          1           0      -18.205478    5.518263   -0.815909
    137          1           0      -17.129927    6.298188   -1.926803
    138          1           0      -16.788154    6.460528   -0.187955
    139          1           0      -15.077446    7.151366   -2.113346
    140          1           0      -13.288500    7.479448   -1.740850
    141          1           0      -14.460112    6.993859   -0.481903
    142          1           0      -11.198310    1.037249   -2.619645
    143          1           0      -12.066249   -1.704130   -3.386626
    144          1           0      -11.171247    1.164812   -4.880643
    145          1           0      -12.965959    1.052198   -4.832227
    146          1           0      -12.049953   -0.355809   -5.016874
    147          1           0       -9.789486   -1.149309   -2.448357
    148          1           0      -10.566568   -2.547269   -1.729453
    149          1           0      -10.088741    0.172479   -0.751316
    150          1           0       -9.827432   -1.374106    0.134463
    151          1           0      -11.485237   -0.642251   -0.039947
    152          1           0      -14.795204   -5.802540    0.559619
    153          1           0      -13.736023   -5.134313   -0.724036
    154          1           0      -15.438133   -5.587121   -1.136393
    155          1           0      -19.543498   -3.230023    0.837080
    156          1           0      -21.558748   -4.030921    4.562690
    157          1           0      -21.519111   -2.154391    4.531013
    158          1           0      -20.240690   -3.198910    5.199497
 ---------------------------------------------------------------------

 SCF Done:  E(RCAM-B3LYP) =  -4069.81177302     A.U. after   19 cycles

 Excitation energies and oscillator strengths:

 Excited State   1:      Singlet-A      1.6753 eV  740.08 nm  f=0.2136  <S**2>=0.000
     310 -> 316        0.16864
     311 -> 313        0.66672
     312 -> 314       -0.16174
     310 <- 316        0.10167
 This state for optimization and/or second-order correction.
 Total Energy, E(TD-HF/TD-DFT) =  -4069.75020736
 Copying the excited state density for this state as the 1-particle RhoCI density.

 Excited State   2:      Singlet-A      1.6801 eV  737.95 nm  f=0.5638  <S**2>=0.000
     309 -> 315        0.17067
     311 -> 313        0.16169
     312 -> 314        0.66635
     309 <- 315        0.10218

 Excited State   3:      Singlet-A      2.1861 eV  567.16 nm  f=0.1015  <S**2>=0.000
     310 -> 313        0.64242
     311 -> 316       -0.27308

 Excited State   4:      Singlet-A      2.1925 eV  565.48 nm  f=0.0997  <S**2>=0.000
     309 -> 314        0.64065
     312 -> 315       -0.27828

 Excited State   5:      Singlet-A      3.0605 eV  405.12 nm  f=0.0000  <S**2>=0.000
     312 -> 313        0.70710

 The electronic state is 1-A.
 Alpha  occ. eigenvalues --  -46.87763 -46.87660 -19.26349 -19.26252 -19.19160
 Alpha  occ. eigenvalues --  -19.18987 -19.18781 -19.18715 -19.18137 -19.18051
 Alpha  occ. eigenvalues --  -14.42498 -14.42417 -14.41416 -14.41359 -14.39369
 Alpha  occ. eigenvalues --  -14.39352 -14.38600 -14.38553 -10.39090 -10.39047
 Alpha  occ. eigenvalues --  -10.35414 -10.35392 -10.34357 -10.34228 -10.31756
 Alpha  occ. eigenvalues --  -10.31648 -10.31372 -10.31309 -10.31024 -10.30876
 Alpha  occ. eigenvalues --  -10.30536 -10.30474 -10.30397 -10.30361 -10.30173
 Alpha  occ. eigenvalues --  -10.30140 -10.29893 -10.29887 -10.29597 -10.29437
 Alpha  occ. eigenvalues --  -10.29401 -10.29221 -10.28720 -10.28717 -10.28655
 Alpha  occ. eigenvalues --  -10.28506 -10.28405 -10.28331 -10.28142 -10.28084
 Alpha  occ. eigenvalues --  -10.28001 -10.27760 -10.27694 -10.27670 -10.27551
 Alpha  occ. eigenvalues --  -10.27514 -10.27484 -10.27469 -10.27467 -10.27465
 Alpha  occ. eigenvalues --  -10.27448 -10.27416 -10.27373 -10.27370 -10.27126
 Alpha  occ. eigenvalues --  -10.27051 -10.26693 -10.26672 -10.26417 -10.26376
 Alpha  occ. eigenvalues --  -10.26203 -10.26148 -10.26129 -10.26028 -10.25986
 Alpha  occ. eigenvalues --  -10.25933 -10.25848 -10.25810 -10.25403 -10.25397
 Alpha  occ. eigenvalues --  -10.24873 -10.24799 -10.24754 -10.24721 -10.24690
 Alpha  occ. eigenvalues --  -10.24650  -3.16506  -3.16410  -1.91387  -1.91292
 Alpha  occ. eigenvalues --   -1.90974  -1.90881  -1.90816  -1.90718  -1.16643
 Alpha  occ. eigenvalues --   -1.16600  -1.08658  -1.08594  -1.07182  -1.06967
 Alpha  occ. eigenvalues --   -1.06945  -1.06610  -1.04548  -1.04496  -1.03727
 Alpha  occ. eigenvalues --   -1.03663  -1.03200  -1.03038  -1.02378  -1.02111
 Alpha  occ. eigenvalues --   -0.91987  -0.91939  -0.89492  -0.89486  -0.89155
 Alpha  occ. eigenvalues --   -0.89152  -0.88253  -0.88218  -0.87837  -0.87793
 Alpha  occ. eigenvalues --   -0.87684  -0.87640  -0.87240  -0.87121  -0.85000
 Alpha  occ. eigenvalues --   -0.84949  -0.83902  -0.83873  -0.82933  -0.82932
 Alpha  occ. eigenvalues --   -0.82653  -0.82615  -0.81596  -0.81553  -0.80563
 Alpha  occ. eigenvalues --   -0.80443  -0.78764  -0.78636  -0.77185  -0.77144
 Alpha  occ. eigenvalues --   -0.76901  -0.76898  -0.75891  -0.75839  -0.74865
 Alpha  occ. eigenvalues --   -0.74802  -0.72741  -0.72699  -0.71639  -0.71581
 Alpha  occ. eigenvalues --   -0.69872  -0.69753  -0.68840  -0.68828  -0.67608
 Alpha  occ. eigenvalues --   -0.67602  -0.67201  -0.67186  -0.65272  -0.65253
 Alpha  occ. eigenvalues --   -0.64820  -0.64770  -0.64653  -0.64587  -0.64236
 Alpha  occ. eigenvalues --   -0.64201  -0.62278  -0.62265  -0.60408  -0.60340
 Alpha  occ. eigenvalues --   -0.59797  -0.59771  -0.58992  -0.58954  -0.58470
 Alpha  occ. eigenvalues --   -0.58425  -0.57554  -0.57552  -0.57275  -0.57236
 Alpha  occ. eigenvalues --   -0.56277  -0.56204  -0.55946  -0.55886  -0.55487
 Alpha  occ. eigenvalues --   -0.55452  -0.55306  -0.55246  -0.54490  -0.54486
 Alpha  occ. eigenvalues --   -0.53914  -0.53862  -0.53265  -0.53227  -0.53189
 Alpha  occ. eigenvalues --   -0.53142  -0.52902  -0.52881  -0.52723  -0.52669
 Alpha  occ. eigenvalues --   -0.52403  -0.52395  -0.51883  -0.51882  -0.51659
 Alpha  occ. eigenvalues --   -0.51584  -0.51200  -0.51163  -0.50539  -0.50476
 Alpha  occ. eigenvalues --   -0.49997  -0.49980  -0.49885  -0.49865  -0.49488
 Alpha  occ. eigenvalues --   -0.49482  -0.49203  -0.49181  -0.49105  -0.49064
 Alpha  occ. eigenvalues --   -0.48560  -0.48559  -0.48428  -0.48412  -0.48374
 Alpha  occ. eigenvalues --   -0.48339  -0.47662  -0.47595  -0.47264  -0.47118
 Alpha  occ. eigenvalues --   -0.46764  -0.46708  -0.46555  -0.46522  -0.46326
 Alpha  occ. eigenvalues --   -0.46270  -0.46129  -0.46085  -0.45822  -0.45789
 Alpha  occ. eigenvalues --   -0.45207  -0.45168  -0.44545  -0.44514  -0.44476
 Alpha  occ. eigenvalues --   -0.44473  -0.44128  -0.44111  -0.44076  -0.44055
 Alpha  occ. eigenvalues --   -0.43986  -0.43940  -0.43552  -0.43462  -0.43386
 Alpha  occ. eigenvalues --   -0.43352  -0.42994  -0.42930  -0.42901  -0.42666
 Alpha  occ. eigenvalues --   -0.42621  -0.42551  -0.41975  -0.41962  -0.41671
 Alpha  occ. eigenvalues --   -0.41669  -0.41501  -0.41458  -0.41108  -0.40990
 Alpha  occ. eigenvalues --   -0.40836  -0.40789  -0.40723  -0.40698  -0.40538
 Alpha  occ. eigenvalues --   -0.40491  -0.40228  -0.40201  -0.39420  -0.39406
 Alpha  occ. eigenvalues --   -0.38435  -0.38348  -0.37715  -0.37654  -0.37287
 Alpha  occ. eigenvalues --   -0.37264  -0.37230  -0.37200  -0.36770  -0.36680
 Alpha  occ. eigenvalues --   -0.36216  -0.36159  -0.34253  -0.34253  -0.33862
 Alpha  occ. eigenvalues --   -0.33737  -0.33175  -0.33153  -0.31311  -0.31274
 Alpha  occ. eigenvalues --   -0.31002  -0.30973  -0.29996  -0.29955  -0.29416
 Alpha  occ. eigenvalues --   -0.29327  -0.29288  -0.29211  -0.24047  -0.24036
 Alpha  occ. eigenvalues --   -0.21117  -0.21094
 Alpha virt. eigenvalues --   -0.08792  -0.08741  -0.01716  -0.01684  -0.00030
 Alpha virt. eigenvalues --   -0.00025   0.02207   0.02233   0.03156   0.03228
 Alpha virt. eigenvalues --    0.04729   0.04751   0.05131   0.05165   0.06181

 Mulliken charges:
               1
     1  Mg   0.838704
     2  C   -0.002962
     3  C   -0.094113
     4  C   -0.045841
     5  C   -0.063965
     6  N   -0.256766
     7  C   -0.052471
     8  C   -0.014011
     9  C   -0.087009
    10  C    0.046321
    11  C    0.104822
    12  C    0.053468
    13  C   -0.071806
    14  H    0.036140
    15  N   -0.433115
    16  C    0.168432
    17  C   -0.177152
    18  C   -0.003999
    19  C    0.148713
    20  C    0.110186
    21  C    0.012303
    22  O   -0.249620
    23  C    0.062460
    24  N   -0.341123
    25  C    0.041230
    26  C   -0.028175
    27  C   -0.023976
    28  C    0.074850
    29  C    0.076181
    30  C    0.035128
    31  C   -0.004509
    32  N   -0.310479
    33  C    0.080424
    34  C   -0.169713
    35  C    0.008346
    36  C    0.083006
    37  C    0.127310
    38  C    0.046120
    39  O   -0.188455
    40  C   -0.005325
    41  C    0.212858
    42  O   -0.257075
    43  O   -0.304809
    44  C    0.157697
    45  H   -0.017624
    46  H   -0.016839
    47  H   -0.041489
    48  H    0.000915
    49  H   -0.004031
    50  H    0.025459
    51  H    0.016438
    52  H    0.016634
    53  H    0.011230
    54  H    0.044135
    55  H    0.017841
    56  H    0.017955
    57  H    0.005862
    58  H    0.026799
    59  H    0.039584
    60  H    0.037320
    61  H    0.035662
    62  H    0.031544
    63  H    0.016578
    64  H    0.009438
    65  H    0.023208
    66  H    0.012523
    67  H    0.004732
    68  H    0.006364
    69  H    0.004731
    70  H    0.008796
    71  H    0.018190
    72  H    0.028986
    73  H    0.047581
    74  H    0.009123
    75  H    0.045980
    76  H    0.035124
    77  H    0.042923
    78  H    0.046396
    79  H    0.053701
    80  Mg   0.837866
    81  C   -0.016831
    82  C   -0.087811
    83  C   -0.045499
    84  C   -0.064889
    85  N   -0.254563
    86  C   -0.049874
    87  C   -0.015103
    88  C   -0.090481
    89  C    0.045761
    90  C    0.114375
    91  C    0.062528
    92  C   -0.077911
    93  H    0.034929
    94  N   -0.423504
    95  C    0.162931
    96  C   -0.174647
    97  C   -0.007802
    98  C    0.152119
    99  C    0.099380
   100  C    0.015575
   101  O   -0.253173
   102  C    0.061190
   103  N   -0.350094
   104  C    0.037522
   105  C   -0.019798
   106  C   -0.034854
   107  C    0.088953
   108  C    0.073649
   109  C    0.034722
   110  C   -0.007711
   111  N   -0.324112
   112  C    0.078477
   113  C   -0.163092
   114  C    0.002236
   115  C    0.096225
   116  C    0.131476
   117  C    0.042403
   118  O   -0.187852
   119  C    0.000919
   120  C    0.211261
   121  O   -0.250984
   122  O   -0.305651
   123  C    0.152019
   124  H   -0.019684
   125  H   -0.015565
   126  H   -0.040385
   127  H   -0.000658
   128  H   -0.004326
   129  H    0.022448
   130  H    0.014414
   131  H    0.016266
   132  H    0.013930
   133  H    0.037700
   134  H    0.020773
   135  H    0.019591
   136  H    0.008750
   137  H    0.026116
   138  H    0.039802
   139  H    0.038228
   140  H    0.036396
   141  H    0.033917
   142  H    0.014441
   143  H    0.012433
   144  H    0.025156
   145  H    0.011585
   146  H    0.005683
   147  H    0.006335
   148  H    0.003724
   149  H    0.010946
   150  H    0.018068
   151  H    0.030053
   152  H    0.046060
   153  H    0.008588
   154  H    0.046926
   155  H    0.035003
   156  H    0.043913
   157  H    0.049486
   158  H    0.053609
 Sum of Mulliken charges =  -0.00000

 Dipole moment (field-independent basis, Debye):
    X=             -0.2268    Y=              6.9249    Z=             -3.7863  Tot=              7.8957
 Quadrupole moment (field-independent basis, Debye-Ang):
   XX=           -349.8918   YY=           -542.4508   ZZ=           -481.1737
   XY=            -27.8483   XZ=            -17.4710   YZ=             -3.0221

 Normal termination of Gaussian 16 at Sun Sep 12 10:20:42 2021.
