 Gaussian 16, Revision A.03,
 Gaussian 16:  ES64L-G16RevA.03 25-Dec-2016

 -----------------------------------
 #p cam-b3lyp/Def2SVP td=(nstates=5)
 -----------------------------------

 --------------------------------
 TDDFT excited states in gaussian
 --------------------------------
 Symbolic Z-matrix:
 Charge =  0 Multiplicity = 1

                         Standard orientation:
 ---------------------------------------------------------------------
 Center     Atomic      Atomic             Coordinates (Angstroms)
 Number     Number       Type             X           Y           Z
 ---------------------------------------------------------------------
      1         12           0       15.603705    0.633971    0.310884
      2          6           0       15.883088   -2.473094   -1.444196
      3          6           0       16.528487    2.182458   -2.585671
      4          6           0       15.805662    3.341116    1.950153
      5          6           0       15.817341   -1.189496    3.273145
      6          7           0       16.112738   -0.153621   -1.694417
      7          6           0       16.123376   -1.359963   -2.252803
      8          6           0       16.339550   -1.324870   -3.795337
      9          6           0       17.079116    0.082602   -3.913924
     10          6           0       16.513888    0.758939   -2.677393
     11          6           0       18.594906   -0.011805   -3.772601
     12          6           0       14.987700   -1.330062   -4.585404
     13          6           0       15.107498   -1.625110   -6.083386
     14          1           0       14.055457   -2.392946   -6.732219
     15          7           0       15.616218    2.509539   -0.309550
     16          6           0       16.008742    2.957427   -1.526352
     17          6           0       15.831364    4.425201   -1.497079
     18          6           0       15.483913    4.813807   -0.101960
     19          6           0       15.649186    3.557312    0.583083
     20          6           0       15.944066    5.292047   -2.713479
     21          6           0       15.078973    6.113895    0.517660
     22          8           0       15.048179    6.283195    1.784531
     23          6           0       14.800946    7.225333   -0.409943
     24          7           0       16.005613    1.053319    2.315941
     25          6           0       15.974924    2.308097    2.778083
     26          6           0       16.011320    2.338836    4.277306
     27          6           0       15.827655    0.826299    4.755062
     28          6           0       15.797856    0.142062    3.366105
     29          6           0       17.285908    2.920784    4.904022
     30          6           0       14.671292    0.536965    5.744773
     31          6           0       13.341520    0.751174    5.057082
     32          7           0       15.635219   -1.465956    0.858933
     33          6           0       15.752060   -1.998461    2.151009
     34          6           0       15.836600   -3.463584    2.008409
     35          6           0       15.779372   -3.681970    0.633317
     36          6           0       15.692689   -2.430937   -0.041733
     37          6           0       16.008150   -4.395657    3.069655
     38          6           0       15.796105   -4.679830   -0.423969
     39          8           0       15.761728   -5.910821   -0.455170
     40          6           0       15.986707   -3.931245   -1.816491
     41          6           0       14.968006   -4.486545   -2.774196
     42          8           0       13.748731   -4.287834   -2.597424
     43          8           0       15.592799   -4.955597   -3.865143
     44          6           0       14.636634   -5.494395   -4.868935
     45          1           0       17.034831    2.756372   -3.364246
     46          1           0       15.768894    4.245158    2.561539
     47          1           0       15.800480   -1.828542    4.157898
     48          1           0       16.981385   -2.116460   -4.182452
     49          1           0       16.781586    0.624296   -4.811568
     50          1           0       18.906405   -1.015708   -3.484386
     51          1           0       18.860189    0.706582   -2.996691
     52          1           0       19.090754    0.331457   -4.680942
     53          1           0       14.591955   -0.315322   -4.627247
     54          1           0       14.280782   -2.028262   -4.135837
     55          1           0       16.087364   -2.033706   -6.332023
     56          1           0       15.063920   -0.678691   -6.622453
     57          1           0       16.370863    4.747760   -3.554990
     58          1           0       16.679964    6.063506   -2.487618
     59          1           0       14.993394    5.756425   -2.975983
     60          1           0       15.689278    7.424197   -1.009834
     61          1           0       14.440112    8.048136    0.206210
     62          1           0       14.022464    6.916248   -1.108069
     63          1           0       15.195851    2.940893    4.676009
     64          1           0       16.714318    0.447620    5.264087
     65          1           0       17.100289    3.760475    5.574223
     66          1           0       17.958555    3.206720    4.095890
     67          1           0       17.896259    2.201777    5.449841
     68          1           0       14.711590    1.226779    6.587078
     69          1           0       14.690913   -0.476758    6.145063
     70          1           0       13.190028    1.826041    5.149501
     71          1           0       12.553846    0.200182    5.572047
     72          1           0       13.401866    0.520894    3.993214
     73          1           0       15.323720   -5.219102    2.866031
     74          1           0       15.800292   -3.937636    4.036410
     75          1           0       17.060512   -4.650862    2.946127
     76          1           0       17.006892   -4.131039   -2.142721
     77          1           0       14.933643   -6.522669   -5.075510
     78          1           0       14.633381   -4.791547   -5.702241
     79          1           0       13.611232   -5.640963   -4.527747
     80         12           0      -16.126244    0.268925   -0.427840
     81          6           0      -14.352389   -1.582596    2.083005
     82          6           0      -14.982213    3.110716    1.072187
     83          6           0      -18.034000    1.929473   -2.343693
     84          6           0      -18.013912   -2.601569   -1.013213
     85          7           0      -14.840032    0.592825    1.342191
     86          6           0      -14.174113   -0.186853    2.180652
     87          6           0      -13.203775    0.568253    3.128192
     88          6           0      -13.916577    2.007101    3.105453
     89          6           0      -14.596891    1.921306    1.740727
     90          6           0      -14.993022    2.162284    4.166834
     91          6           0      -11.744787    0.640896    2.555395
     92          6           0      -10.681078    1.089233    3.560032
     93          1           0       -9.348282    0.498947    3.472487
     94          7           0      -16.089843    2.189541   -0.926327
     95          6           0      -15.564818    3.206154   -0.210695
     96          6           0      -15.810685    4.422920   -1.000133
     97          6           0      -16.668794    4.063123   -2.161558
     98          6           0      -16.988320    2.687369   -1.837052
     99          6           0      -15.186221    5.747374   -0.669562
    100          6           0      -17.136263    4.834063   -3.358771
    101          8           0      -18.069804    4.395420   -4.119656
    102          6           0      -16.534151    6.160025   -3.560722
    103          7           0      -17.920951   -0.188551   -1.372339
    104          6           0      -18.515281    0.695390   -2.192918
    105          6           0      -19.638844    0.049856   -2.968334
    106          6           0      -19.518560   -1.517539   -2.674464
    107          6           0      -18.349903   -1.496772   -1.664896
    108          6           0      -21.048356    0.526338   -2.618152
    109          6           0      -19.414878   -2.458535   -3.905906
    110          6           0      -18.100626   -2.233426   -4.618262
    111          7           0      -16.077383   -1.786795    0.235219
    112          6           0      -16.977775   -2.817190   -0.113601
    113          6           0      -16.603863   -4.008084    0.676582
    114          6           0      -15.517661   -3.577786    1.453437
    115          6           0      -15.247399   -2.209207    1.182416
    116          6           0      -17.271333   -5.265081    0.653245
    117          6           0      -14.544988   -3.967139    2.448930
    118          8           0      -14.233915   -5.026510    2.991780
    119          6           0      -13.827582   -2.657617    2.993798
    120          6           0      -12.344529   -2.908688    2.999515
    121          8           0      -11.727885   -3.077086    1.932752
    122          8           0      -11.865942   -2.693320    4.238446
    123          6           0      -10.396921   -2.918929    4.292234
    124          1           0      -14.866945    4.060471    1.595203
    125          1           0      -18.655082    2.424690   -3.093693
    126          1           0      -18.491534   -3.563702   -1.210308
    127          1           0      -13.169347    0.186336    4.141462
    128          1           0      -13.184782    2.810651    3.116865
    129          1           0      -15.183231    1.234887    4.686358
    130          1           0      -15.880001    2.489917    3.640545
    131          1           0      -14.732318    2.973742    4.852313
    132          1           0      -11.683465    1.467192    1.835526
    133          1           0      -11.458891   -0.297265    2.120936
    134          1           0      -11.049206    1.055640    4.592652
    135          1           0      -10.464022    2.146114    3.387124
    136          1           0      -14.738679    5.742298    0.331974
    137          1           0      -16.000815    6.476333   -0.599362
    138          1           0      -14.478085    6.080971   -1.431093
    139          1           0      -16.724009    6.779649   -2.687513
    140          1           0      -16.927885    6.517626   -4.514120
    141          1           0      -15.447103    6.043232   -3.633411
    142          1           0      -19.521281    0.218044   -4.031819
    143          1           0      -20.395966   -1.898845   -2.131695
    144          1           0      -21.603891    0.923037   -3.488834
    145          1           0      -20.972192    1.276149   -1.841931
    146          1           0      -21.687072   -0.222994   -2.153664
    147          1           0      -20.202492   -2.226692   -4.627068
    148          1           0      -19.507261   -3.509986   -3.655046
    149          1           0      -18.308909   -1.366360   -5.252232
    150          1           0      -17.834251   -3.103637   -5.214770
    151          1           0      -17.314424   -1.943711   -3.911438
    152          1           0      -16.502221   -6.025615    0.629735
    153          1           0      -17.937509   -5.345662   -0.203197
    154          1           0      -17.820668   -5.211766    1.596993
    155          1           0      -14.214053   -2.464999    3.995350
    156          1           0      -10.215869   -3.658709    5.078130
    157          1           0       -9.945779   -1.918163    4.428897
    158          1           0       -9.931966   -3.398728    3.438965
 ---------------------------------------------------------------------

 SCF Done:  E(RCAM-B3LYP) =  -4069.81176107     A.U. after   19 cycles

 Excitation energies and oscillator strengths:

 Excited State   1:      Singlet-A      1.6753 eV  740.07 nm  f=0.2095  <S**2>=0.000
     310 -> 316        0.16834
     311 -> 313        0.66564
     312 -> 314       -0.16613
     310 <- 316        0.10148
 This state for optimization and/or second-order correction.
 Total Energy, E(TD-HF/TD-DFT) =  -4069.75019464
 Copying the excited state density for this state as the 1-particle RhoCI density.

 Excited State   2:      Singlet-A      1.6801 eV  737.95 nm  f=0.5678  <S**2>=0.000
     309 -> 315        0.17035
     311 -> 313        0.16608
     312 -> 314        0.66527
     309 <- 315        0.10199

 Excited State   3:      Singlet-A      2.1861 eV  567.16 nm  f=0.0993  <S**2>=0.000
     310 -> 313        0.64227
     311 -> 316       -0.27299

 Excited State   4:      Singlet-A      2.1925 eV  565.50 nm  f=0.1016  <S**2>=0.000
     309 -> 314        0.64050
     312 -> 315       -0.27816

 Excited State   5:      Singlet-A      3.0641 eV  404.63 nm  f=0.0000  <S**2>=0.000
     312 -> 313        0.70711

 The electronic state is 1-A.
 Alpha  occ. eigenvalues --  -46.87781 -46.87659 -19.26335 -19.26259 -19.19149
 Alpha  occ. eigenvalues --  -19.18995 -19.18804 -19.18715 -19.18151 -19.18047
 Alpha  occ. eigenvalues --  -14.42496 -14.42434 -14.41435 -14.41359 -14.39387
 Alpha  occ. eigenvalues --  -14.39351 -14.38598 -14.38571 -10.39079 -10.39056
 Alpha  occ. eigenvalues --  -10.35437 -10.35393 -10.34370 -10.34224 -10.31737
 Alpha  occ. eigenvalues --  -10.31651 -10.31388 -10.31306 -10.31021 -10.30892
 Alpha  occ. eigenvalues --  -10.30553 -10.30492 -10.30397 -10.30359 -10.30193
 Alpha  occ. eigenvalues --  -10.30141 -10.29906 -10.29894 -10.29615 -10.29436
 Alpha  occ. eigenvalues --  -10.29400 -10.29240 -10.28729 -10.28713 -10.28640
 Alpha  occ. eigenvalues --  -10.28514 -10.28403 -10.28349 -10.28136 -10.28098
 Alpha  occ. eigenvalues --  -10.28000 -10.27777 -10.27711 -10.27668 -10.27569
 Alpha  occ. eigenvalues --  -10.27520 -10.27489 -10.27481 -10.27468 -10.27467
 Alpha  occ. eigenvalues --  -10.27464 -10.27438 -10.27387 -10.27378 -10.27138
 Alpha  occ. eigenvalues --  -10.27044 -10.26683 -10.26683 -10.26417 -10.26401
 Alpha  occ. eigenvalues --  -10.26216 -10.26173 -10.26140 -10.26023 -10.26004
 Alpha  occ. eigenvalues --  -10.25934 -10.25850 -10.25826 -10.25425 -10.25402
 Alpha  occ. eigenvalues --  -10.24871 -10.24816 -10.24773 -10.24732 -10.24689
 Alpha  occ. eigenvalues --  -10.24677  -3.16524  -3.16409  -1.91405  -1.91291
 Alpha  occ. eigenvalues --   -1.90992  -1.90880  -1.90834  -1.90717  -1.16630
 Alpha  occ. eigenvalues --   -1.16608  -1.08653  -1.08608  -1.07205  -1.06967
 Alpha  occ. eigenvalues --   -1.06934  -1.06618  -1.04565  -1.04493  -1.03745
 Alpha  occ. eigenvalues --   -1.03662  -1.03218  -1.03038  -1.02396  -1.02110
 Alpha  occ. eigenvalues --   -0.91984  -0.91955  -0.89506  -0.89494  -0.89169
 Alpha  occ. eigenvalues --   -0.89146  -0.88274  -0.88221  -0.87854  -0.87792
 Alpha  occ. eigenvalues --   -0.87682  -0.87657  -0.87260  -0.87120  -0.84995
 Alpha  occ. eigenvalues --   -0.84964  -0.83923  -0.83877  -0.82955  -0.82932
 Alpha  occ. eigenvalues --   -0.82649  -0.82631  -0.81589  -0.81566  -0.80579
 Alpha  occ. eigenvalues --   -0.80438  -0.78782  -0.78635  -0.77203  -0.77142
 Alpha  occ. eigenvalues --   -0.76916  -0.76893  -0.75904  -0.75834  -0.74884
 Alpha  occ. eigenvalues --   -0.74803  -0.72759  -0.72698  -0.71656  -0.71579
 Alpha  occ. eigenvalues --   -0.69895  -0.69759  -0.68856  -0.68823  -0.67625
 Alpha  occ. eigenvalues --   -0.67599  -0.67202  -0.67195  -0.65268  -0.65267
 Alpha  occ. eigenvalues --   -0.64836  -0.64768  -0.64649  -0.64603  -0.64255
 Alpha  occ. eigenvalues --   -0.64203  -0.62277  -0.62271  -0.60428  -0.60340
 Alpha  occ. eigenvalues --   -0.59793  -0.59786  -0.58991  -0.58971  -0.58487
 Alpha  occ. eigenvalues --   -0.58423  -0.57565  -0.57548  -0.57293  -0.57235
 Alpha  occ. eigenvalues --   -0.56294  -0.56202  -0.55957  -0.55878  -0.55505
 Alpha  occ. eigenvalues --   -0.55449  -0.55324  -0.55245  -0.54506  -0.54484
 Alpha  occ. eigenvalues --   -0.53907  -0.53876  -0.53284  -0.53226  -0.53205
 Alpha  occ. eigenvalues --   -0.53138  -0.52897  -0.52897  -0.52741  -0.52667
 Alpha  occ. eigenvalues --   -0.52426  -0.52402  -0.51898  -0.51883  -0.51654
 Alpha  occ. eigenvalues --   -0.51599  -0.51198  -0.51179  -0.50560  -0.50476
 Alpha  occ. eigenvalues --   -0.50018  -0.49978  -0.49904  -0.49868  -0.49498
 Alpha  occ. eigenvalues --   -0.49486  -0.49199  -0.49198  -0.49100  -0.49078
 Alpha  occ. eigenvalues --   -0.48575  -0.48554  -0.48448  -0.48430  -0.48376
 Alpha  occ. eigenvalues --   -0.48337  -0.47679  -0.47592  -0.47282  -0.47117
 Alpha  occ. eigenvalues --   -0.46781  -0.46707  -0.46549  -0.46537  -0.46343
 Alpha  occ. eigenvalues --   -0.46269  -0.46146  -0.46083  -0.45817  -0.45803
 Alpha  occ. eigenvalues --   -0.45209  -0.45188  -0.44560  -0.44510  -0.44492
 Alpha  occ. eigenvalues --   -0.44473  -0.44130  -0.44125  -0.44076  -0.44071
 Alpha  occ. eigenvalues --   -0.44002  -0.43936  -0.43546  -0.43475  -0.43382
 Alpha  occ. eigenvalues --   -0.43369  -0.43011  -0.42923  -0.42896  -0.42680
 Alpha  occ. eigenvalues --   -0.42637  -0.42554  -0.41994  -0.41962  -0.41687
 Alpha  occ. eigenvalues --   -0.41666  -0.41516  -0.41455  -0.41125  -0.40988
 Alpha  occ. eigenvalues --   -0.40853  -0.40810  -0.40720  -0.40696  -0.40557
 Alpha  occ. eigenvalues --   -0.40493  -0.40220  -0.40214  -0.39429  -0.39427
 Alpha  occ. eigenvalues --   -0.38455  -0.38350  -0.37728  -0.37647  -0.37306
 Alpha  occ. eigenvalues --   -0.37265  -0.37245  -0.37195  -0.36762  -0.36692
 Alpha  occ. eigenvalues --   -0.36214  -0.36174  -0.34270  -0.34252  -0.33852
 Alpha  occ. eigenvalues --   -0.33748  -0.33174  -0.33170  -0.31333  -0.31274
 Alpha  occ. eigenvalues --   -0.31020  -0.30971  -0.30010  -0.29951  -0.29434
 Alpha  occ. eigenvalues --   -0.29327  -0.29305  -0.29210  -0.24065  -0.24035
 Alpha  occ. eigenvalues --   -0.21116  -0.21112
 Alpha virt. eigenvalues --   -0.08791  -0.08759  -0.01735  -0.01683  -0.00043
 Alpha virt. eigenvalues --   -0.00028   0.02209   0.02217   0.03137   0.03228
 Alpha virt. eigenvalues --    0.04733   0.04735   0.05121   0.05176   0.06192

 Mulliken charges:
               1
     1  Mg   0.838728
     2  C   -0.002930
     3  C   -0.094107
     4  C   -0.045937
     5  C   -0.063957
     6  N   -0.256783
     7  C   -0.052458
     8  C   -0.014003
     9  C   -0.086991
    10  C    0.046330
    11  C    0.104812
    12  C    0.053461
    13  C   -0.071846
    14  H    0.036248
    15  N   -0.433141
    16  C    0.168415
    17  C   -0.177154
    18  C   -0.004037
    19  C    0.148733
    20  C    0.110175
    21  C    0.012256
    22  O   -0.249694
    23  C    0.062493
    24  N   -0.341136
    25  C    0.041260
    26  C   -0.028156
    27  C   -0.023955
    28  C    0.074814
    29  C    0.076179
    30  C    0.035134
    31  C   -0.004492
    32  N   -0.310472
    33  C    0.080422
    34  C   -0.169704
    35  C    0.008390
    36  C    0.083000
    37  C    0.127304
    38  C    0.046147
    39  O   -0.188360
    40  C   -0.005357
    41  C    0.212900
    42  O   -0.257061
    43  O   -0.304815
    44  C    0.157653
    45  H   -0.017607
    46  H   -0.016894
    47  H   -0.041500
    48  H    0.000959
    49  H   -0.004015
    50  H    0.025478
    51  H    0.016418
    52  H    0.016660
    53  H    0.011203
    54  H    0.044164
    55  H    0.017863
    56  H    0.017946
    57  H    0.005893
    58  H    0.026789
    59  H    0.039537
    60  H    0.037345
    61  H    0.035569
    62  H    0.031504
    63  H    0.016500
    64  H    0.009450
    65  H    0.023153
    66  H    0.012550
    67  H    0.004740
    68  H    0.006307
    69  H    0.004745
    70  H    0.008723
    71  H    0.018134
    72  H    0.029027
    73  H    0.047627
    74  H    0.009098
    75  H    0.046009
    76  H    0.035156
    77  H    0.042984
    78  H    0.046411
    79  H    0.053763
    80  Mg   0.837837
    81  C   -0.016790
    82  C   -0.087772
    83  C   -0.045532
    84  C   -0.064918
    85  N   -0.254580
    86  C   -0.049810
    87  C   -0.015108
    88  C   -0.090483
    89  C    0.045760
    90  C    0.114373
    91  C    0.062507
    92  C   -0.077961
    93  H    0.035099
    94  N   -0.423477
    95  C    0.162925
    96  C   -0.174639
    97  C   -0.007801
    98  C    0.152118
    99  C    0.099370
   100  C    0.015558
   101  O   -0.253220
   102  C    0.061200
   103  N   -0.350064
   104  C    0.037514
   105  C   -0.019815
   106  C   -0.034832
   107  C    0.088951
   108  C    0.073660
   109  C    0.034723
   110  C   -0.007673
   111  N   -0.324129
   112  C    0.078474
   113  C   -0.163123
   114  C    0.002256
   115  C    0.096209
   116  C    0.131477
   117  C    0.042406
   118  O   -0.187782
   119  C    0.000908
   120  C    0.211277
   121  O   -0.250959
   122  O   -0.305662
   123  C    0.151982
   124  H   -0.019660
   125  H   -0.015597
   126  H   -0.040465
   127  H   -0.000621
   128  H   -0.004289
   129  H    0.022460
   130  H    0.014385
   131  H    0.016294
   132  H    0.013915
   133  H    0.037728
   134  H    0.020778
   135  H    0.019589
   136  H    0.008781
   137  H    0.026119
   138  H    0.039804
   139  H    0.038246
   140  H    0.036372
   141  H    0.033910
   142  H    0.014395
   143  H    0.012398
   144  H    0.025122
   145  H    0.011627
   146  H    0.005654
   147  H    0.006244
   148  H    0.003662
   149  H    0.010918
   150  H    0.017954
   151  H    0.030129
   152  H    0.046064
   153  H    0.008503
   154  H    0.046927
   155  H    0.035022
   156  H    0.043980
   157  H    0.049521
   158  H    0.053679
 Sum of Mulliken charges =  -0.00000

 Dipole moment (field-independent basis, Debye):
    X=              1.9239    Y=              7.4621    Z=             -1.1389  Tot=              7.7898
 Quadrupole moment (field-independent basis, Debye-Ang):
   XX=           -435.8746   YY=           -540.1629   ZZ=           -471.2814
   XY=              9.1240   XZ=            -57.7587   YZ=              8.7325

 Normal termination of Gaussian 16 at Sun Sep 12 14:48:07 2021.
