 Gaussian 16, Revision A.03,
 Gaussian 16:  ES64L-G16RevA.03 25-Dec-2016

 -----------------------------------
 #p cam-b3lyp/Def2SVP td=(nstates=5)
 -----------------------------------

 --------------------------------
 TDDFT excited states in gaussian
 --------------------------------
 Symbolic Z-matrix:
 Charge =  0 Multiplicity = 1

                         Standard orientation:
 ---------------------------------------------------------------------
 Center     Atomic      Atomic             Coordinates (Angstroms)
 Number     Number       Type             X           Y           Z
 ---------------------------------------------------------------------
      1         12           0       -7.817408   -0.750798   -0.120286
      2          6           0       -8.103888    2.013320    2.135771
      3          6           0       -8.670563    1.399822   -2.628279
      4          6           0       -8.015055   -3.256293   -2.054207
      5          6           0       -8.107008   -2.849163    2.647141
      6          7           0       -8.300067    1.409685   -0.120874
      7          6           0       -8.315697    2.366995    0.801344
      8          6           0       -8.503635    3.794725    0.206667
      9          6           0       -9.223346    3.404800   -1.161534
     10          6           0       -8.672064    2.000468   -1.334349
     11          6           0      -10.742491    3.325828   -1.049895
     12          6           0       -7.137963    4.516451   -0.049808
     13          6           0       -7.234465    6.020988   -0.318899
     14          1           0       -6.180577    6.890834    0.181139
     15          7           0       -7.795377   -0.851322   -2.093168
     16          6           0       -8.160336    0.125520   -2.957963
     17          6           0       -7.965230   -0.435292   -4.312254
     18          6           0       -7.638112   -1.880610   -4.163453
     19          6           0       -7.831331   -2.062241   -2.747454
     20          6           0       -8.045219    0.386078   -5.562336
     21          6           0       -7.228208   -2.933765   -5.143747
     22          8           0       -7.218098   -4.176272   -4.842672
     23          6           0       -6.919707   -2.474915   -6.510249
     24          7           0       -8.250058   -2.766580    0.206932
     25          6           0       -8.212048   -3.651961   -0.794886
     26          6           0       -8.275019   -5.060057   -0.281819
     27          6           0       -8.118847   -4.960064    1.304171
     28          6           0       -8.072601   -3.418090    1.439994
     29          6           0       -9.553320   -5.839265   -0.620628
     30          6           0       -6.984170   -5.791996    1.952874
     31          6           0       -5.639676   -5.244848    1.528534
     32          7           0       -7.884951   -0.501044    2.034732
     33          6           0       -8.031643   -1.511173    2.996395
     34          6           0       -8.131862   -0.846827    4.308899
     35          6           0       -8.052636    0.513243    4.016021
     36          6           0       -7.938236    0.688500    2.607302
     37          6           0       -8.334080   -1.496482    5.558495
     38          6           0       -8.062787    1.860174    4.563315
     39          8           0       -8.043203    2.334470    5.700045
     40          6           0       -8.218963    2.889472    3.358333
     41          6           0       -7.190202    3.970683    3.547922
     42          8           0       -5.971921    3.719036    3.448763
     43          8           0       -7.801069    5.165007    3.579116
     44          6           0       -6.833794    6.283967    3.735516
     45          1           0       -9.155627    1.923968   -3.454067
     46          1           0       -7.978024   -4.153888   -2.675006
     47          1           0       -8.114033   -3.442698    3.563176
     48          1           0       -9.148221    4.449983    0.792815
     49          1           0       -8.902988    4.041740   -1.985791
     50          1           0      -11.071615    3.424428   -0.015546
     51          1           0      -11.012713    2.345794   -1.443602
     52          1           0      -11.217603    4.054298   -1.707449
     53          1           0       -6.728910    4.183254   -1.003598
     54          1           0       -6.448005    4.341507    0.776436
     55          1           0       -8.214718    6.412667   -0.045766
     56          1           0       -7.169403    6.180299   -1.395275
     57          1           0       -8.463562    1.372714   -5.367187
     58          1           0       -8.775386   -0.094704   -6.213037
     59          1           0       -7.084264    0.450993   -6.072908
     60          1           0       -7.794557   -1.976866   -6.928739
     61          1           0       -6.559785   -3.351514   -7.047725
     62          1           0       -6.132706   -1.721845   -6.460602
     63          1           0       -7.459411   -5.659632   -0.683964
     64          1           0       -9.019174   -5.286569    1.825209
     65          1           0       -9.369333   -6.770209   -1.157469
     66          1           0      -10.207705   -5.181280   -1.191703
     67          1           0      -10.182306   -6.080249    0.235947
     68          1           0       -7.031010   -6.826330    1.613897
     69          1           0       -7.023624   -5.797882    3.042213
     70          1           0       -5.476484   -5.721964    0.562842
     71          1           0       -4.868323   -5.535031    2.242690
     72          1           0       -5.683742   -4.169120    1.357202
     73          1           0       -7.656416   -1.016976    6.264764
     74          1           0       -8.137952   -2.565944    5.485093
     75          1           0       -9.387150   -1.276057    5.732599
     76          1           0       -9.235526    3.278381    3.408041
     77          1           0       -7.139835    6.852402    4.613841
     78          1           0       -6.806791    6.806206    2.778990
     79          1           0       -5.816602    6.006440    4.014155
     80         12           0        8.048059   -0.527909    0.211694
     81          6           0        7.115732    1.862116   -2.297794
     82          6           0        9.823644    1.966528    1.714927
     83          6           0        9.249526   -2.705657    2.181814
     84          6           0        7.176487   -3.033371   -2.048557
     85          7           0        8.352782    1.597798   -0.318181
     86          6           0        7.898802    2.410260   -1.260599
     87          6           0        8.240163    3.908048   -1.037751
     88          6           0        9.535401    3.723511   -0.106527
     89          6           0        9.208221    2.360495    0.499952
     90          6           0       10.829398    3.597975   -0.893391
     91          6           0        7.096988    4.676219   -0.286036
     92          6           0        7.224743    6.201005   -0.307575
     93          1           0        6.005177    7.000655   -0.382929
     94          7           0        8.932456   -0.315418    1.975578
     95          6           0        9.587474    0.772824    2.431600
     96          6           0       10.072350    0.417281    3.774224
     97          6           0        9.792147   -1.025586    4.007286
     98          6           0        9.322349   -1.418393    2.693865
     99          6           0       10.656633    1.424580    4.721530
    100          6           0        9.936755   -1.908957    5.209348
    101          8           0        9.858718   -3.185214    5.120369
    102          6           0       10.265172   -1.241703    6.477576
    103          7           0        8.394305   -2.568506    0.015682
    104          6           0        8.876382   -3.289740    1.042987
    105          6           0        8.782730   -4.770388    0.761381
    106          6           0        7.911491   -4.899576   -0.573471
    107          6           0        7.719059   -3.401470   -0.896045
    108          6           0       10.114088   -5.497068    0.572161
    109          6           0        6.653982   -5.808998   -0.507874
    110          6           0        5.620902   -5.195803    0.409792
    111          7           0        7.113305   -0.610579   -1.734440
    112          6           0        6.866821   -1.761855   -2.514111
    113          6           0        6.319311   -1.302939   -3.807189
    114          6           0        6.306656    0.095772   -3.697938
    115          6           0        6.829548    0.482186   -2.434306
    116          6           0        5.958252   -2.138750   -4.901339
    117          6           0        5.979753    1.333659   -4.368380
    118          8           0        5.424631    1.628413   -5.426057
    119          6           0        6.606777    2.537303   -3.541061
    120          6           0        5.547173    3.592882   -3.381342
    121          8           0        4.524860    3.365819   -2.710577
    122          8           0        6.012607    4.760590   -3.861128
    123          6           0        5.001407    5.841287   -3.714865
    124          1           0       10.592114    2.612434    2.140535
    125          1           0        9.549111   -3.502908    2.866011
    126          1           0        6.788645   -3.756994   -2.768706
    127          1           0        8.503057    4.452655   -1.936681
    128          1           0        9.577036    4.485249    0.667663
    129          1           0       10.650016    3.534916   -1.956409
    130          1           0       11.304714    2.694021   -0.535638
    131          1           0       11.507548    4.416888   -0.636845
    132          1           0        7.192714    4.494862    0.792240
    133          1           0        6.134109    4.388928   -0.661487
    134          1           0        7.955070    6.542984   -1.050956
    135          1           0        7.641897    6.527807    0.648037
    136          1           0       10.887418    2.368653    4.212757
    137          1           0       11.632855    1.039545    5.035534
    138          1           0       10.036357    1.579395    5.606953
    139          1           0       11.199543   -0.696484    6.367391
    140          1           0       10.238691   -2.026458    7.236085
    141          1           0        9.490056   -0.497620    6.692379
    142          1           0        8.271905   -5.285451    1.565655
    143          1           0        8.495800   -5.326816   -1.401649
    144          1           0       10.252617   -6.343367    1.271208
    145          1           0       10.914434   -4.777533    0.682827
    146          1           0       10.289761   -5.885805   -0.429445
    147          1           0        6.911443   -6.780948   -0.079869
    148          1           0        6.203137   -5.993241   -1.477296
    149          1           0        5.950466   -5.517455    1.402277
    150          1           0        4.628739   -5.578988    0.179956
    151          1           0        5.672026   -4.101102    0.384209
    152          1           0        5.014600   -1.767585   -5.278515
    153          1           0        5.883717   -3.180929   -4.597859
    154          1           0        6.807220   -1.965044   -5.567924
    155          1           0        7.469223    2.904094   -4.098952
    156          1           0        4.842617    6.267119   -4.710426
    157          1           0        5.398155    6.518082   -2.934946
    158          1           0        3.992646    5.550702   -3.445778
 ---------------------------------------------------------------------

 SCF Done:  E(RCAM-B3LYP) =  -4069.81178890     A.U. after   19 cycles

 Excitation energies and oscillator strengths:

 Excited State   1:      Singlet-A      1.6706 eV  742.15 nm  f=0.0670  <S**2>=0.000
     309 -> 315        0.14046
     310 -> 316        0.10034
     311 -> 313        0.55922
     312 -> 314        0.39791
 This state for optimization and/or second-order correction.
 Total Energy, E(TD-HF/TD-DFT) =  -4069.75039495
 Copying the excited state density for this state as the 1-particle RhoCI density.

 Excited State   2:      Singlet-A      1.6849 eV  735.86 nm  f=0.6953  <S**2>=0.000
     309 -> 315       -0.10205
     310 -> 316        0.14408
     311 -> 313       -0.39742
     312 -> 314        0.55844

 Excited State   3:      Singlet-A      2.1856 eV  567.27 nm  f=0.0582  <S**2>=0.000
     309 -> 313        0.62733
     310 -> 314       -0.13997
     311 -> 315       -0.26620

 Excited State   4:      Singlet-A      2.1930 eV  565.36 nm  f=0.1349  <S**2>=0.000
     309 -> 313        0.13898
     310 -> 314        0.62535
     312 -> 316       -0.27184

 Excited State   5:      Singlet-A      2.7728 eV  447.14 nm  f=0.0000  <S**2>=0.000
     312 -> 313        0.70706

 The electronic state is 1-A.
 Alpha  occ. eigenvalues --  -46.87616 -46.87604 -19.26326 -19.26132 -19.19126
 Alpha  occ. eigenvalues --  -19.18856 -19.18654 -19.18627 -19.18016 -19.18008
 Alpha  occ. eigenvalues --  -14.42444 -14.42273 -14.41306 -14.41276 -14.39296
 Alpha  occ. eigenvalues --  -14.39221 -14.38546 -14.38410 -10.39056 -10.38917
 Alpha  occ. eigenvalues --  -10.35331 -10.35259 -10.34228 -10.34194 -10.31746
 Alpha  occ. eigenvalues --  -10.31540 -10.31260 -10.31233 -10.30969 -10.30729
 Alpha  occ. eigenvalues --  -10.30395 -10.30345 -10.30333 -10.30310 -10.30085
 Alpha  occ. eigenvalues --  -10.30033 -10.29844 -10.29754 -10.29454 -10.29381
 Alpha  occ. eigenvalues --  -10.29348 -10.29075 -10.28670 -10.28604 -10.28574
 Alpha  occ. eigenvalues --  -10.28361 -10.28352 -10.28187 -10.28094 -10.27951
 Alpha  occ. eigenvalues --  -10.27947 -10.27619 -10.27617 -10.27551 -10.27464
 Alpha  occ. eigenvalues --  -10.27432 -10.27412 -10.27405 -10.27403 -10.27345
 Alpha  occ. eigenvalues --  -10.27325 -10.27296 -10.27283 -10.27229 -10.27013
 Alpha  occ. eigenvalues --  -10.26996 -10.26634 -10.26513 -10.26347 -10.26201
 Alpha  occ. eigenvalues --  -10.26081 -10.26077 -10.26033 -10.25988 -10.25881
 Alpha  occ. eigenvalues --  -10.25848 -10.25814 -10.25694 -10.25354 -10.25296
 Alpha  occ. eigenvalues --  -10.24824 -10.24660 -10.24658 -10.24637 -10.24615
 Alpha  occ. eigenvalues --  -10.24525  -3.16359  -3.16354  -1.91240  -1.91236
 Alpha  occ. eigenvalues --   -1.90827  -1.90825  -1.90669  -1.90661  -1.16618
 Alpha  occ. eigenvalues --   -1.16479  -1.08626  -1.08468  -1.07028  -1.06912
 Alpha  occ. eigenvalues --   -1.06906  -1.06481  -1.04442  -1.04404  -1.03609
 Alpha  occ. eigenvalues --   -1.03586  -1.03057  -1.02985  -1.02236  -1.02058
 Alpha  occ. eigenvalues --   -0.91940  -0.91801  -0.89441  -0.89354  -0.89102
 Alpha  occ. eigenvalues --   -0.89015  -0.88167  -0.88124  -0.87747  -0.87704
 Alpha  occ. eigenvalues --   -0.87632  -0.87498  -0.87086  -0.87062  -0.84949
 Alpha  occ. eigenvalues --   -0.84807  -0.83823  -0.83777  -0.82872  -0.82781
 Alpha  occ. eigenvalues --   -0.82602  -0.82474  -0.81558  -0.81424  -0.80425
 Alpha  occ. eigenvalues --   -0.80397  -0.78617  -0.78582  -0.77094  -0.77049
 Alpha  occ. eigenvalues --   -0.76853  -0.76769  -0.75796  -0.75758  -0.74755
 Alpha  occ. eigenvalues --   -0.74739  -0.72649  -0.72604  -0.71534  -0.71506
 Alpha  occ. eigenvalues --   -0.69747  -0.69700  -0.68777  -0.68699  -0.67552
 Alpha  occ. eigenvalues --   -0.67468  -0.67145  -0.67037  -0.65223  -0.65113
 Alpha  occ. eigenvalues --   -0.64722  -0.64685  -0.64608  -0.64453  -0.64151
 Alpha  occ. eigenvalues --   -0.64104  -0.62241  -0.62138  -0.60284  -0.60262
 Alpha  occ. eigenvalues --   -0.59747  -0.59631  -0.58944  -0.58818  -0.58378
 Alpha  occ. eigenvalues --   -0.58334  -0.57516  -0.57421  -0.57186  -0.57141
 Alpha  occ. eigenvalues --   -0.56156  -0.56138  -0.55849  -0.55818  -0.55404
 Alpha  occ. eigenvalues --   -0.55343  -0.55202  -0.55181  -0.54444  -0.54365
 Alpha  occ. eigenvalues --   -0.53863  -0.53721  -0.53177  -0.53126  -0.53093
 Alpha  occ. eigenvalues --   -0.53044  -0.52855  -0.52746  -0.52611  -0.52570
 Alpha  occ. eigenvalues --   -0.52343  -0.52278  -0.51844  -0.51755  -0.51607
 Alpha  occ. eigenvalues --   -0.51438  -0.51156  -0.51031  -0.50414  -0.50377
 Alpha  occ. eigenvalues --   -0.49927  -0.49867  -0.49814  -0.49737  -0.49435
 Alpha  occ. eigenvalues --   -0.49338  -0.49155  -0.49061  -0.49043  -0.48930
 Alpha  occ. eigenvalues --   -0.48516  -0.48430  -0.48330  -0.48300  -0.48285
 Alpha  occ. eigenvalues --   -0.48267  -0.47545  -0.47522  -0.47125  -0.47068
 Alpha  occ. eigenvalues --   -0.46659  -0.46629  -0.46504  -0.46381  -0.46220
 Alpha  occ. eigenvalues --   -0.46188  -0.46040  -0.46000  -0.45784  -0.45664
 Alpha  occ. eigenvalues --   -0.45159  -0.45041  -0.44471  -0.44426  -0.44414
 Alpha  occ. eigenvalues --   -0.44328  -0.44082  -0.44025  -0.43974  -0.43920
 Alpha  occ. eigenvalues --   -0.43888  -0.43846  -0.43515  -0.43338  -0.43334
 Alpha  occ. eigenvalues --   -0.43215  -0.42894  -0.42860  -0.42858  -0.42540
 Alpha  occ. eigenvalues --   -0.42497  -0.42495  -0.41910  -0.41844  -0.41624
 Alpha  occ. eigenvalues --   -0.41536  -0.41407  -0.41361  -0.40974  -0.40942
 Alpha  occ. eigenvalues --   -0.40698  -0.40667  -0.40643  -0.40636  -0.40441
 Alpha  occ. eigenvalues --   -0.40409  -0.40171  -0.40050  -0.39366  -0.39280
 Alpha  occ. eigenvalues --   -0.38306  -0.38298  -0.37602  -0.37571  -0.37213
 Alpha  occ. eigenvalues --   -0.37154  -0.37148  -0.37086  -0.36736  -0.36554
 Alpha  occ. eigenvalues --   -0.36170  -0.36028  -0.34201  -0.34112  -0.33823
 Alpha  occ. eigenvalues --   -0.33604  -0.33123  -0.33012  -0.31214  -0.31158
 Alpha  occ. eigenvalues --   -0.30921  -0.30862  -0.29922  -0.29868  -0.29273
 Alpha  occ. eigenvalues --   -0.29268  -0.29162  -0.29148  -0.23983  -0.23905
 Alpha  occ. eigenvalues --   -0.21064  -0.20953
 Alpha virt. eigenvalues --   -0.08739  -0.08597  -0.01629  -0.01573   0.00026
 Alpha virt. eigenvalues --    0.00124   0.02252   0.02368   0.03309   0.03341
 Alpha virt. eigenvalues --    0.04781   0.04891   0.05199   0.05261   0.06230

 Mulliken charges:
               1
     1  Mg   0.839498
     2  C   -0.002753
     3  C   -0.093811
     4  C   -0.045857
     5  C   -0.064066
     6  N   -0.256761
     7  C   -0.052412
     8  C   -0.014150
     9  C   -0.087085
    10  C    0.046546
    11  C    0.104882
    12  C    0.053378
    13  C   -0.071713
    14  H    0.036029
    15  N   -0.433144
    16  C    0.168759
    17  C   -0.176842
    18  C   -0.003786
    19  C    0.148910
    20  C    0.110160
    21  C    0.012596
    22  O   -0.249872
    23  C    0.062246
    24  N   -0.341161
    25  C    0.041286
    26  C   -0.028125
    27  C   -0.023897
    28  C    0.074829
    29  C    0.076285
    30  C    0.035185
    31  C   -0.004478
    32  N   -0.310401
    33  C    0.080397
    34  C   -0.169870
    35  C    0.008191
    36  C    0.083101
    37  C    0.127340
    38  C    0.046043
    39  O   -0.188967
    40  C   -0.005345
    41  C    0.212697
    42  O   -0.256651
    43  O   -0.304928
    44  C    0.157812
    45  H   -0.017714
    46  H   -0.017003
    47  H   -0.041819
    48  H    0.000594
    49  H   -0.003890
    50  H    0.025261
    51  H    0.016338
    52  H    0.016440
    53  H    0.011968
    54  H    0.044439
    55  H    0.017390
    56  H    0.018095
    57  H    0.005816
    58  H    0.026533
    59  H    0.040528
    60  H    0.037055
    61  H    0.035598
    62  H    0.032583
    63  H    0.016524
    64  H    0.009139
    65  H    0.022983
    66  H    0.012474
    67  H    0.004485
    68  H    0.005989
    69  H    0.004502
    70  H    0.008726
    71  H    0.017994
    72  H    0.029506
    73  H    0.047361
    74  H    0.008937
    75  H    0.045660
    76  H    0.034826
    77  H    0.042451
    78  H    0.046407
    79  H    0.053726
    80  Mg   0.838350
    81  C   -0.016719
    82  C   -0.087713
    83  C   -0.045454
    84  C   -0.064851
    85  N   -0.254571
    86  C   -0.049796
    87  C   -0.015191
    88  C   -0.090522
    89  C    0.045877
    90  C    0.114403
    91  C    0.062480
    92  C   -0.077889
    93  H    0.034914
    94  N   -0.423490
    95  C    0.163132
    96  C   -0.174543
    97  C   -0.007691
    98  C    0.152256
    99  C    0.099381
   100  C    0.015765
   101  O   -0.253173
   102  C    0.061093
   103  N   -0.350074
   104  C    0.037543
   105  C   -0.019816
   106  C   -0.034819
   107  C    0.088943
   108  C    0.073711
   109  C    0.034729
   110  C   -0.007701
   111  N   -0.324096
   112  C    0.078498
   113  C   -0.163123
   114  C    0.002040
   115  C    0.096384
   116  C    0.131488
   117  C    0.042378
   118  O   -0.188487
   119  C    0.000908
   120  C    0.211013
   121  O   -0.250604
   122  O   -0.305720
   123  C    0.152169
   124  H   -0.019723
   125  H   -0.015562
   126  H   -0.040518
   127  H   -0.000897
   128  H   -0.004257
   129  H    0.022306
   130  H    0.014390
   131  H    0.016174
   132  H    0.014309
   133  H    0.037919
   134  H    0.020473
   135  H    0.019704
   136  H    0.008730
   137  H    0.026045
   138  H    0.040146
   139  H    0.038120
   140  H    0.036465
   141  H    0.034266
   142  H    0.014511
   143  H    0.012244
   144  H    0.025105
   145  H    0.011545
   146  H    0.005543
   147  H    0.006135
   148  H    0.003616
   149  H    0.010954
   150  H    0.018132
   151  H    0.030342
   152  H    0.045803
   153  H    0.008617
   154  H    0.046672
   155  H    0.034778
   156  H    0.043350
   157  H    0.049603
   158  H    0.053547
 Sum of Mulliken charges =  -0.00000

 Dipole moment (field-independent basis, Debye):
    X=              1.4508    Y=              3.0481    Z=             -1.7317  Tot=              3.7940
 Quadrupole moment (field-independent basis, Debye-Ang):
   XX=           -438.6407   YY=           -461.2150   ZZ=           -537.8661
   XY=             17.0740   XZ=             41.6560   YZ=             -9.3608

 Normal termination of Gaussian 16 at Sat Sep 11 23:25:32 2021.
