 Gaussian 16, Revision A.03,
 Gaussian 16:  ES64L-G16RevA.03 25-Dec-2016

 -----------------------------------
 #p cam-b3lyp/Def2SVP td=(nstates=5)
 -----------------------------------

 --------------------------------
 TDDFT excited states in gaussian
 --------------------------------
 Symbolic Z-matrix:
 Charge =  0 Multiplicity = 1

                         Standard orientation:
 ---------------------------------------------------------------------
 Center     Atomic      Atomic             Coordinates (Angstroms)
 Number     Number       Type             X           Y           Z
 ---------------------------------------------------------------------
      1         12           0        4.705846   -0.107931   -0.070042
      2          6           0        4.261386   -3.576586   -0.833654
      3          6           0        5.460252    0.367453   -3.363664
      4          6           0        5.543828    2.861502    0.662674
      5          6           0        5.031861   -1.037384    3.272935
      6          7           0        4.811679   -1.505375   -1.783691
      7          6           0        4.559953   -2.799381   -1.955018
      8          6           0        4.568988   -3.237895   -3.450009
      9          6           0        5.494815   -2.084337   -4.045113
     10          6           0        5.213104   -0.995933   -3.024359
     11          6           0        6.982730   -2.418004   -4.009397
     12          6           0        3.138626   -3.210036   -4.086420
     13          6           0        3.008210   -3.928913   -5.432362
     14          1           0        1.772179   -4.635978   -5.731755
     15          7           0        4.924958    1.482537   -1.221237
     16          6           0        5.214441    1.490690   -2.544649
     17          6           0        5.272140    2.914302   -2.940478
     18          6           0        5.180378    3.735230   -1.701224
     19          6           0        5.239864    2.712442   -0.688434
     20          6           0        5.352712    3.369564   -4.365257
     21          6           0        5.068982    5.208566   -1.466698
     22          8           0        5.235869    5.727761   -0.310342
     23          6           0        4.843975    6.048126   -2.657309
     24          7           0        5.434468    0.771851    1.677164
     25          6           0        5.661098    2.088334    1.744203
     26          6           0        5.903607    2.529374    3.157219
     27          6           0        5.553985    1.272992    4.078642
     28          6           0        5.231575    0.246142    2.965133
     29          6           0        7.325666    3.013478    3.472497
     30          6           0        4.510883    1.493933    5.202717
     31          6           0        3.149915    1.752862    4.596236
     32          7           0        4.485311   -1.938155    1.075684
     33          6           0        4.691379   -2.100477    2.453313
     34          6           0        4.527953   -3.535849    2.748383
     35          6           0        4.252726   -4.115000    1.511177
     36          6           0        4.270657   -3.109300    0.502942
     37          6           0        4.694553   -4.149194    4.021367
     38          6           0        3.971995   -5.353230    0.802775
     39          8           0        3.743471   -6.514698    1.143750
     40          6           0        4.086744   -5.073152   -0.760624
     41          6           0        2.874621   -5.672635   -1.419932
     42          8           0        1.735943   -5.207469   -1.209223
     43          8           0        3.266363   -6.536333   -2.369198
     44          6           0        2.111785   -7.144882   -3.082481
     45          1           0        5.939732    0.595389   -4.317647
     46          1           0        5.730303    3.890549    0.976884
     47          1           0        5.035659   -1.388776    4.306357
     48          1           0        5.022341   -4.211848   -3.635240
     49          1           0        5.166509   -1.769263   -5.035399
     50          1           0        7.170950   -3.341237   -3.461551
     51          1           0        7.458244   -1.574456   -3.508591
     52          1           0        7.398716   -2.441560   -5.016957
     53          1           0        2.902851   -2.191958   -4.396238
     54          1           0        2.399238   -3.609328   -3.391295
     55          1           0        3.870383   -4.566907   -5.628654
     56          1           0        3.039477   -3.180149   -6.223927
     57          1           0        5.572652    2.541847   -5.038351
     58          1           0        6.222873    4.021138   -4.442594
     59          1           0        4.458839    3.911787   -4.673992
     60          1           0        5.663300    5.901180   -3.361342
     61          1           0        4.701349    7.062775   -2.287180
     62          1           0        3.940085    5.707983   -3.163505
     63          1           0        5.252525    3.360648    3.424619
     64          1           0        6.431724    0.892357    4.601487
     65          1           0        7.364424    4.026274    3.874301
     66          1           0        7.919314    2.930785    2.562533
     67          1           0        7.885228    2.374462    4.155115
     68          1           0        4.770732    2.371318    5.794003
     69          1           0        4.427034    0.647505    5.884464
     70          1           0        3.180603    2.819273    4.375652
     71          1           0        2.363111    1.525611    5.316310
     72          1           0        3.029874    1.227426    3.648610
     73          1           0        3.869710   -4.853160    4.131067
     74          1           0        4.692410   -3.408772    4.820975
     75          1           0        5.668305   -4.621379    3.892118
     76          1           0        5.010258   -5.543764   -1.096434
     77          1           0        2.215341   -8.226603   -2.996517
     78          1           0        2.105121   -6.715262   -4.084373
     79          1           0        1.131534   -6.995273   -2.628539
     80         12           0       -4.149198    1.426575    0.513828
     81          6           0       -6.309963   -1.433342    0.337704
     82          6           0       -5.227152    2.247066   -2.616574
     83          6           0       -1.932222    3.695656    0.452945
     84          6           0       -2.431616   -0.202271    3.071652
     85          7           0       -5.585504    0.454212   -0.858681
     86          6           0       -6.392133   -0.594303   -0.793096
     87          6           0       -7.396787   -0.707590   -1.970980
     88          6           0       -6.579476    0.135935   -3.066119
     89          6           0       -5.768526    1.030195   -2.130526
     90          6           0       -5.611349   -0.709275   -3.877100
     91          6           0       -8.778269   -0.038961   -1.644679
     92          6           0       -9.904517   -0.379290   -2.623197
     93          1           0      -11.261405   -0.518199   -2.101632
     94          7           0       -3.988901    3.034874   -0.637796
     95          6           0       -4.508049    3.207319   -1.871508
     96          6           0       -4.090276    4.551351   -2.299537
     97          6           0       -3.144855    5.093623   -1.286209
     98          6           0       -2.965265    3.928638   -0.443213
     99          6           0       -4.644638    5.225334   -3.520953
    100          6           0       -2.498153    6.434488   -1.112795
    101          8           0       -1.525760    6.612610   -0.296990
    102          6           0       -2.974538    7.510930   -1.993602
    103          7           0       -2.305010    1.621542    1.453655
    104          6           0       -1.563409    2.732185    1.297356
    105          6           0       -0.416570    2.764995    2.279230
    106          6           0       -0.684320    1.557486    3.293051
    107          6           0       -1.947280    0.954168    2.640103
    108          6           0        0.980365    2.622021    1.675478
    109          6           0       -0.729017    1.905694    4.806139
    110          6           0       -1.940911    2.758985    5.103792
    111          7           0       -4.421406   -0.381936    1.664156
    112          6           0       -3.569420   -0.889913    2.669223
    113          6           0       -4.112313   -2.201565    3.078189
    114          6           0       -5.238399   -2.377543    2.259992
    115          6           0       -5.375271   -1.264067    1.387667
    116          6           0       -3.542354   -3.071338    4.050178
    117          6           0       -6.336339   -3.256951    1.928545
    118          8           0       -6.781169   -4.304975    2.394929
    119          6           0       -7.006401   -2.743296    0.581849
    120          6           0       -8.496564   -2.717359    0.784977
    121          8           0       -9.009156   -1.935530    1.605099
    122          8           0       -9.084579   -3.459338   -0.171098
    123          6           0      -10.563937   -3.455475   -0.018488
    124          1           0       -5.324837    2.470517   -3.679312
    125          1           0       -1.200670    4.501313    0.549007
    126          1           0       -2.009617   -0.727640    3.931053
    127          1           0       -7.565597   -1.716236   -2.328629
    128          1           0       -7.246020    0.733788   -3.682269
    129          1           0       -5.546716   -1.719760   -3.501756
    130          1           0       -4.652101   -0.214529   -3.798835
    131          1           0       -5.880639   -0.678737   -4.936763
    132          1           0       -8.701721    1.042629   -1.815127
    133          1           0       -9.086800   -0.270754   -0.643832
    134          1           0       -9.649987   -1.232128   -3.264157
    135          1           0      -10.022316    0.454029   -3.320131
    136          1           0       -5.193601    4.519022   -4.155913
    137          1           0       -3.789422    5.532401   -4.132654
    138          1           0       -5.242174    6.107331   -3.280739
    139          1           0       -2.831061    7.218696   -3.031127
    140          1           0       -2.457515    8.412455   -1.659232
    141          1           0       -4.053719    7.631210   -1.846876
    142          1           0       -0.409293    3.694941    2.834424
    143          1           0        0.100372    0.789451    3.228256
    144          1           0        1.652137    3.464899    1.925189
    145          1           0        0.879956    2.520633    0.603019
    146          1           0        1.508898    1.709318    1.945353
    147          1           0        0.144876    2.500083    5.083937
    148          1           0       -0.742613    1.032664    5.450053
    149          1           0       -1.602929    3.766727    4.844322
    150          1           0       -2.208036    2.691086    6.156434
    151          1           0       -2.772735    2.507991    4.435423
    152          1           0       -4.359734   -3.439850    4.655650
    153          1           0       -2.798206   -2.557914    4.655493
    154          1           0       -3.092303   -3.824522    3.397917
    155          1           0       -6.713442   -3.430608   -0.212720
    156          1           0      -10.881252   -4.500886    0.045590
    157          1           0      -10.950459   -2.862973   -0.868964
    158          1           0      -10.971817   -3.053869    0.901724
 ---------------------------------------------------------------------

 SCF Done:  E(RCAM-B3LYP) =  -4069.81158174     A.U. after   19 cycles

 Excitation energies and oscillator strengths:

 Excited State   1:      Singlet-A      1.6457 eV  753.37 nm  f=0.0019  <S**2>=0.000
     309 -> 315       -0.11283
     310 -> 316        0.12207
     311 -> 313       -0.46512
     312 -> 314        0.50666
 This state for optimization and/or second-order correction.
 Total Energy, E(TD-HF/TD-DFT) =  -4069.75110268
 Copying the excited state density for this state as the 1-particle RhoCI density.

 Excited State   2:      Singlet-A      1.7051 eV  727.14 nm  f=0.6923  <S**2>=0.000
     309 -> 315        0.13433
     310 -> 316        0.12228
     311 -> 313        0.50402
     312 -> 314        0.46262

 Excited State   3:      Singlet-A      2.1814 eV  568.36 nm  f=0.0552  <S**2>=0.000
     309 -> 313       -0.25728
     310 -> 314        0.59121
     311 -> 315        0.10589
     312 -> 316       -0.24636

 Excited State   4:      Singlet-A      2.1972 eV  564.29 nm  f=0.1318  <S**2>=0.000
     309 -> 313        0.58666
     310 -> 314        0.25262
     311 -> 315       -0.25829
     312 -> 316       -0.11469

 Excited State   5:      Singlet-A      2.3450 eV  528.72 nm  f=0.0000  <S**2>=0.000
     312 -> 313        0.70661

 The electronic state is 1-A.
 Alpha  occ. eigenvalues --  -46.87881 -46.87435 -19.26309 -19.26173 -19.19049
 Alpha  occ. eigenvalues --  -19.18976 -19.18766 -19.18531 -19.18210 -19.17812
 Alpha  occ. eigenvalues --  -14.42528 -14.42278 -14.41549 -14.41136 -14.39467
 Alpha  occ. eigenvalues --  -14.39134 -14.38674 -14.38362 -10.39111 -10.38900
 Alpha  occ. eigenvalues --  -10.35395 -10.35215 -10.34433 -10.33988 -10.31694
 Alpha  occ. eigenvalues --  -10.31603 -10.31491 -10.31081 -10.30963 -10.30830
 Alpha  occ. eigenvalues --  -10.30653 -10.30588 -10.30310 -10.30159 -10.30121
 Alpha  occ. eigenvalues --  -10.30036 -10.29930 -10.29691 -10.29651 -10.29317
 Alpha  occ. eigenvalues --  -10.29220 -10.29170 -10.28810 -10.28609 -10.28543
 Alpha  occ. eigenvalues --  -10.28528 -10.28423 -10.28188 -10.28185 -10.27959
 Alpha  occ. eigenvalues --  -10.27848 -10.27805 -10.27770 -10.27662 -10.27630
 Alpha  occ. eigenvalues --  -10.27588 -10.27509 -10.27472 -10.27458 -10.27337
 Alpha  occ. eigenvalues --  -10.27297 -10.27262 -10.27251 -10.27204 -10.27172
 Alpha  occ. eigenvalues --  -10.26823 -10.26768 -10.26541 -10.26436 -10.26303
 Alpha  occ. eigenvalues --  -10.26295 -10.26285 -10.26127 -10.25958 -10.25923
 Alpha  occ. eigenvalues --  -10.25849 -10.25697 -10.25530 -10.25489 -10.25211
 Alpha  occ. eigenvalues --  -10.25089 -10.24890 -10.24881 -10.24630 -10.24579
 Alpha  occ. eigenvalues --  -10.24463  -3.16621  -3.16185  -1.91503  -1.91090
 Alpha  occ. eigenvalues --   -1.91067  -1.90931  -1.90656  -1.90492  -1.16659
 Alpha  occ. eigenvalues --   -1.16464  -1.08668  -1.08418  -1.07157  -1.06788
 Alpha  occ. eigenvalues --   -1.06759  -1.06671  -1.04654  -1.04278  -1.03848
 Alpha  occ. eigenvalues --   -1.03441  -1.03310  -1.02811  -1.02493  -1.01883
 Alpha  occ. eigenvalues --   -0.92038  -0.91761  -0.89670  -0.89281  -0.89257
 Alpha  occ. eigenvalues --   -0.88967  -0.88424  -0.88015  -0.87941  -0.87752
 Alpha  occ. eigenvalues --   -0.87526  -0.87466  -0.87292  -0.86939  -0.85048
 Alpha  occ. eigenvalues --   -0.84812  -0.84105  -0.83683  -0.82993  -0.82771
 Alpha  occ. eigenvalues --   -0.82687  -0.82472  -0.81643  -0.81391  -0.80651
 Alpha  occ. eigenvalues --   -0.80240  -0.78842  -0.78426  -0.77326  -0.77020
 Alpha  occ. eigenvalues --   -0.76945  -0.76710  -0.75990  -0.75642  -0.75016
 Alpha  occ. eigenvalues --   -0.74610  -0.72862  -0.72468  -0.71750  -0.71382
 Alpha  occ. eigenvalues --   -0.70184  -0.69523  -0.68931  -0.68639  -0.67698
 Alpha  occ. eigenvalues --   -0.67391  -0.67259  -0.67028  -0.65362  -0.65080
 Alpha  occ. eigenvalues --   -0.64938  -0.64709  -0.64559  -0.64457  -0.64397
 Alpha  occ. eigenvalues --   -0.64009  -0.62359  -0.62083  -0.60493  -0.60144
 Alpha  occ. eigenvalues --   -0.59869  -0.59596  -0.59071  -0.58774  -0.58580
 Alpha  occ. eigenvalues --   -0.58213  -0.57638  -0.57392  -0.57332  -0.57029
 Alpha  occ. eigenvalues --   -0.56367  -0.56024  -0.55986  -0.55702  -0.55564
 Alpha  occ. eigenvalues --   -0.55463  -0.55259  -0.55042  -0.54637  -0.54289
 Alpha  occ. eigenvalues --   -0.53960  -0.53731  -0.53374  -0.53244  -0.53029
 Alpha  occ. eigenvalues --   -0.52995  -0.52951  -0.52780  -0.52717  -0.52640
 Alpha  occ. eigenvalues --   -0.52513  -0.52225  -0.51989  -0.51654  -0.51573
 Alpha  occ. eigenvalues --   -0.51479  -0.51296  -0.50988  -0.50578  -0.50328
 Alpha  occ. eigenvalues --   -0.50188  -0.49944  -0.49808  -0.49698  -0.49540
 Alpha  occ. eigenvalues --   -0.49307  -0.49261  -0.49155  -0.49003  -0.48897
 Alpha  occ. eigenvalues --   -0.48665  -0.48552  -0.48439  -0.48351  -0.48178
 Alpha  occ. eigenvalues --   -0.48150  -0.47765  -0.47413  -0.47353  -0.46968
 Alpha  occ. eigenvalues --   -0.46905  -0.46620  -0.46518  -0.46435  -0.46371
 Alpha  occ. eigenvalues --   -0.46273  -0.46054  -0.45917  -0.45847  -0.45601
 Alpha  occ. eigenvalues --   -0.45344  -0.45098  -0.44622  -0.44529  -0.44332
 Alpha  occ. eigenvalues --   -0.44283  -0.44222  -0.44143  -0.44042  -0.43933
 Alpha  occ. eigenvalues --   -0.43889  -0.43744  -0.43564  -0.43469  -0.43359
 Alpha  occ. eigenvalues --   -0.43175  -0.43102  -0.42837  -0.42736  -0.42724
 Alpha  occ. eigenvalues --   -0.42670  -0.42362  -0.42142  -0.41786  -0.41757
 Alpha  occ. eigenvalues --   -0.41606  -0.41456  -0.41275  -0.41213  -0.40976
 Alpha  occ. eigenvalues --   -0.40812  -0.40779  -0.40675  -0.40554  -0.40529
 Alpha  occ. eigenvalues --   -0.40282  -0.40267  -0.40068  -0.39620  -0.39226
 Alpha  occ. eigenvalues --   -0.38593  -0.38141  -0.37817  -0.37482  -0.37434
 Alpha  occ. eigenvalues --   -0.37328  -0.37051  -0.36999  -0.36771  -0.36582
 Alpha  occ. eigenvalues --   -0.36267  -0.36012  -0.34366  -0.34029  -0.33807
 Alpha  occ. eigenvalues --   -0.33669  -0.33261  -0.32950  -0.31309  -0.31099
 Alpha  occ. eigenvalues --   -0.31088  -0.30753  -0.30072  -0.29715  -0.29491
 Alpha  occ. eigenvalues --   -0.29382  -0.29116  -0.28960  -0.24165  -0.23807
 Alpha  occ. eigenvalues --   -0.21206  -0.20892
 Alpha virt. eigenvalues --   -0.08836  -0.08567  -0.01828  -0.01473  -0.00071
 Alpha virt. eigenvalues --    0.00167   0.02138   0.02449   0.02837   0.03474
 Alpha virt. eigenvalues --    0.04637   0.04927   0.05063   0.05359   0.06061

 Mulliken charges:
               1
     1  Mg   0.832750
     2  C   -0.002467
     3  C   -0.093871
     4  C   -0.048434
     5  C   -0.063890
     6  N   -0.256491
     7  C   -0.052614
     8  C   -0.013887
     9  C   -0.087070
    10  C    0.046645
    11  C    0.104774
    12  C    0.053501
    13  C   -0.071674
    14  H    0.035843
    15  N   -0.433215
    16  C    0.169622
    17  C   -0.177150
    18  C   -0.002544
    19  C    0.150296
    20  C    0.110370
    21  C    0.015066
    22  O   -0.248577
    23  C    0.061868
    24  N   -0.340888
    25  C    0.041871
    26  C   -0.028194
    27  C   -0.024003
    28  C    0.072952
    29  C    0.076076
    30  C    0.044521
    31  C   -0.027634
    32  N   -0.309604
    33  C    0.077114
    34  C   -0.170211
    35  C    0.008184
    36  C    0.082899
    37  C    0.127422
    38  C    0.046094
    39  O   -0.187976
    40  C   -0.005424
    41  C    0.212968
    42  O   -0.256914
    43  O   -0.304850
    44  C    0.157478
    45  H   -0.017428
    46  H   -0.016846
    47  H   -0.042693
    48  H    0.001111
    49  H   -0.004100
    50  H    0.025678
    51  H    0.016551
    52  H    0.016769
    53  H    0.011053
    54  H    0.044366
    55  H    0.018078
    56  H    0.017633
    57  H    0.005496
    58  H    0.027132
    59  H    0.040120
    60  H    0.036074
    61  H    0.037663
    62  H    0.033038
    63  H    0.016061
    64  H    0.009987
    65  H    0.023734
    66  H    0.013283
    67  H    0.004966
    68  H    0.006555
    69  H    0.002907
    70  H    0.011568
    71  H    0.024779
    72  H    0.033074
    73  H    0.047404
    74  H    0.008304
    75  H    0.046397
    76  H    0.035342
    77  H    0.043339
    78  H    0.046089
    79  H    0.054155
    80  Mg   0.838433
    81  C   -0.016781
    82  C   -0.088350
    83  C   -0.047056
    84  C   -0.062473
    85  N   -0.254454
    86  C   -0.049213
    87  C   -0.015178
    88  C   -0.090579
    89  C    0.045843
    90  C    0.114582
    91  C    0.062652
    92  C   -0.077546
    93  H    0.034404
    94  N   -0.423194
    95  C    0.162638
    96  C   -0.175969
    97  C   -0.008447
    98  C    0.151660
    99  C    0.100023
   100  C    0.014271
   101  O   -0.252549
   102  C    0.061415
   103  N   -0.349617
   104  C    0.038519
   105  C   -0.023887
   106  C   -0.031606
   107  C    0.087701
   108  C    0.074106
   109  C    0.021908
   110  C   -0.002310
   111  N   -0.324629
   112  C    0.079131
   113  C   -0.160846
   114  C    0.002833
   115  C    0.096789
   116  C    0.131224
   117  C    0.043313
   118  O   -0.187454
   119  C    0.000599
   120  C    0.211096
   121  O   -0.251372
   122  O   -0.305523
   123  C    0.152189
   124  H   -0.020982
   125  H   -0.014811
   126  H   -0.039804
   127  H   -0.000700
   128  H   -0.005105
   129  H    0.023321
   130  H    0.014409
   131  H    0.014915
   132  H    0.013742
   133  H    0.037646
   134  H    0.020602
   135  H    0.019165
   136  H    0.008122
   137  H    0.024186
   138  H    0.039168
   139  H    0.036758
   140  H    0.036081
   141  H    0.033824
   142  H    0.013670
   143  H    0.013592
   144  H    0.033002
   145  H    0.010066
   146  H    0.004141
   147  H    0.013689
   148  H    0.003296
   149  H    0.009917
   150  H    0.016517
   151  H    0.029694
   152  H    0.045030
   153  H    0.007748
   154  H    0.052391
   155  H    0.035854
   156  H    0.043736
   157  H    0.049106
   158  H    0.053343
 Sum of Mulliken charges =  -0.00000

 Dipole moment (field-independent basis, Debye):
    X=              2.6564    Y=              3.4151    Z=             -7.6729  Tot=              8.8087
 Quadrupole moment (field-independent basis, Debye-Ang):
   XX=           -491.9346   YY=           -558.2927   ZZ=           -451.0617
   XY=            -19.5165   XZ=             29.5239   YZ=              8.1418

 Normal termination of Gaussian 16 at Fri Sep 10 05:28:08 2021.
