 Gaussian 16, Revision A.03,
 Gaussian 16:  ES64L-G16RevA.03 25-Dec-2016

 -----------------------------------
 #p cam-b3lyp/Def2SVP td=(nstates=5)
 -----------------------------------

 --------------------------------
 TDDFT excited states in gaussian
 --------------------------------
 Symbolic Z-matrix:
 Charge =  0 Multiplicity = 1

                         Standard orientation:
 ---------------------------------------------------------------------
 Center     Atomic      Atomic             Coordinates (Angstroms)
 Number     Number       Type             X           Y           Z
 ---------------------------------------------------------------------
      1         12           0        4.067377   -1.726048   -0.006433
      2          6           0        5.580116    1.416474   -0.811660
      3          6           0        5.294561   -1.338129    3.153726
      4          6           0        3.134901   -4.695127    0.603218
      5          6           0        3.952421   -2.379877   -3.427683
      6          7           0        5.268644   -0.120190    0.931025
      7          6           0        5.732602    1.059219    0.529892
      8          6           0        6.330139    1.914146    1.687226
      9          6           0        6.690970    0.741833    2.705794
     10          6           0        5.667747   -0.288810    2.262271
     11          6           0        8.088513    0.165930    2.501564
     12          6           0        5.280994    2.902230    2.299367
     13          6           0        5.861246    3.993585    3.203582
     14          1           0        5.248299    5.313231    3.190219
     15          7           0        3.764201   -2.645654    1.715560
     16          6           0        4.335099   -2.343687    2.906433
     17          6           0        3.788390   -3.314789    3.878416
     18          6           0        2.999470   -4.323976    3.118653
     19          6           0        3.293399   -3.938673    1.761993
     20          6           0        3.992035   -3.201368    5.358083
     21          6           0        2.128595   -5.462421    3.547198
     22          8           0        1.723932   -6.355529    2.726723
     23          6           0        1.830423   -5.555294    4.987862
     24          7           0        3.807733   -3.409107   -1.213715
     25          6           0        3.338064   -4.554991   -0.708397
     26          6           0        2.970181   -5.520899   -1.795421
     27          6           0        3.059079   -4.701868   -3.163281
     28          6           0        3.570620   -3.353756   -2.598313
     29          6           0        3.843405   -6.779193   -1.896351
     30          6           0        1.796611   -4.693745   -4.061349
     31          6           0        0.685215   -3.929444   -3.377432
     32          7           0        4.487706   -0.621994   -1.827266
     33          6           0        4.392613   -1.098072   -3.142934
     34          6           0        4.882027   -0.024506   -4.027240
     35          6           0        5.245715    1.002008   -3.157846
     36          6           0        5.023688    0.585583   -1.814125
     37          6           0        5.000296   -0.100131   -5.443124
     38          6           0        5.793315    2.344549   -3.050262
     39          8           0        6.083143    3.230005   -3.856153
     40          6           0        6.145861    2.620922   -1.522140
     41          6           0        5.590950    3.972896   -1.165001
     42          8           0        4.359196    4.170593   -1.132406
     43          8           0        6.578543    4.747627   -0.690665
     44          6           0        6.089734    6.093950   -0.289874
     45          1           0        5.824129   -1.437334    4.103283
     46          1           0        2.709718   -5.688314    0.762081
     47          1           0        3.867072   -2.480230   -4.511241
     48          1           0        7.230832    2.469074    1.424109
     49          1           0        6.511931    1.032511    3.740770
     50          1           0        8.558438    0.569199    1.604644
     51          1           0        7.948496   -0.911042    2.406594
     52          1           0        8.701174    0.311093    3.391706
     53          1           0        4.665174    2.369169    3.023711
     54          1           0        4.682879    3.365237    1.513740
     55          1           0        6.942557    4.073489    3.088298
     56          1           0        5.721212    3.688154    4.240550
     57          1           0        4.748997   -2.457111    5.602285
     58          1           0        4.420986   -4.145323    5.693731
     59          1           0        3.057984   -3.013095    5.887644
     60          1           0        2.764080   -5.644955    5.543555
     61          1           0        1.123103   -6.376762    5.096198
     62          1           0        1.368131   -4.623012    5.313569
     63          1           0        1.953143   -5.888198   -1.664461
     64          1           0        3.846955   -5.079322   -3.815550
     65          1           0        3.280639   -7.709935   -1.820726
     66          1           0        4.608873   -6.721100   -1.123062
     67          1           0        4.451177   -6.842623   -2.798574
     68          1           0        1.437052   -5.709984   -4.219216
     69          1           0        1.967961   -4.246692   -5.040651
     70          1           0        0.246105   -4.676799   -2.717527
     71          1           0       -0.042741   -3.579638   -4.110185
     72          1           0        1.079575   -3.130951   -2.748643
     73          1           0        4.626645    0.847260   -5.831460
     74          1           0        4.436154   -0.942333   -5.843176
     75          1           0        6.077122   -0.230775   -5.549116
     76          1           0        7.231885    2.589527   -1.440358
     77          1           0        6.682390    6.826767   -0.837572
     78          1           0        6.126594    6.125453    0.799187
     79          1           0        5.083169    6.358112   -0.616039
     80         12           0       -4.227697    1.761823    0.285161
     81          6           0       -5.429948   -1.589482   -0.164709
     82          6           0       -3.400047    1.749740   -3.023834
     83          6           0       -2.754853    4.534247    0.745402
     84          6           0       -4.090397    1.105322    3.705076
     85          7           0       -4.438071    0.220359   -1.287066
     86          6           0       -4.965832   -0.992547   -1.355373
     87          6           0       -5.071384   -1.568012   -2.793183
     88          6           0       -3.907909   -0.703383   -3.484259
     89          6           0       -3.933771    0.518026   -2.567656
     90          6           0       -2.536117   -1.349052   -3.381042
     91          6           0       -6.467156   -1.282029   -3.450480
     92          6           0       -6.751761   -2.076579   -4.726976
     93          1           0       -8.120415   -2.517366   -4.981865
     94          7           0       -3.672076    3.152608   -1.016994
     95          6           0       -3.398946    2.978079   -2.327030
     96          6           0       -3.016857    4.303471   -2.838404
     97          6           0       -2.927465    5.242462   -1.687298
     98          6           0       -3.098098    4.321199   -0.581750
     99          6           0       -2.853933    4.595021   -4.301917
    100          6           0       -2.709964    6.722520   -1.596052
    101          8           0       -2.430145    7.294660   -0.483767
    102          6           0       -2.742009    7.469137   -2.862159
    103          7           0       -3.323730    2.618915    1.949666
    104          6           0       -2.804786    3.858052    1.893263
    105          6           0       -2.459730    4.368206    3.272062
    106          6           0       -3.081421    3.304549    4.291734
    107          6           0       -3.624931    2.271870    3.280029
    108          6           0       -0.969283    4.541327    3.563586
    109          6           0       -4.045936    3.852467    5.379006
    110          6           0       -5.316804    4.357339    4.734508
    111          7           0       -4.842327    0.149405    1.585308
    112          6           0       -4.666207    0.067117    2.983986
    113          6           0       -5.142327   -1.266463    3.405039
    114          6           0       -5.544236   -1.881023    2.209517
    115          6           0       -5.314695   -1.000710    1.117792
    116          6           0       -5.119010   -1.776850    4.733600
    117          6           0       -6.100599   -3.078295    1.621542
    118          8           0       -6.570779   -4.125654    2.063933
    119          6           0       -5.933855   -2.990716    0.043280
    120          6           0       -7.249386   -3.362534   -0.584114
    121          8           0       -8.252018   -2.644743   -0.422502
    122          8           0       -7.055774   -4.379119   -1.444031
    123          6           0       -8.330094   -4.776433   -2.099824
    124          1           0       -2.895889    1.770487   -3.990420
    125          1           0       -2.344656    5.520675    0.973823
    126          1           0       -4.171797    0.860978    4.766371
    127          1           0       -4.848824   -2.625001   -2.876890
    128          1           0       -4.174212   -0.423418   -4.500173
    129          1           0       -2.550958   -2.228711   -2.754852
    130          1           0       -1.886757   -0.594066   -2.957523
    131          1           0       -2.142443   -1.559494   -4.379577
    132          1           0       -6.468547   -0.263290   -3.859047
    133          1           0       -7.259685   -1.436641   -2.744345
    134          1           0       -6.049114   -2.908133   -4.860174
    135          1           0       -6.566731   -1.428908   -5.587383
    136          1           0       -2.820412    3.672492   -4.894551
    137          1           0       -1.860113    5.037151   -4.431184
    138          1           0       -3.603558    5.294468   -4.678070
    139          1           0       -1.982244    7.075232   -3.533024
    140          1           0       -2.656086    8.521158   -2.583305
    141          1           0       -3.709657    7.295801   -3.346135
    142          1           0       -2.914431    5.334658    3.451814
    143          1           0       -2.300480    2.793378    4.873693
    144          1           0       -0.701564    5.569307    3.872865
    145          1           0       -0.413177    4.252601    2.681587
    146          1           0       -0.565914    3.871069    4.320712
    147          1           0       -3.595446    4.707724    5.888672
    148          1           0       -4.299591    3.121444    6.139435
    149          1           0       -5.046106    5.367605    4.413286
    150          1           0       -6.130630    4.377516    5.456532
    151          1           0       -5.558546    3.779159    3.835110
    152          1           0       -6.069728   -2.267186    4.895484
    153          1           0       -4.950152   -0.985276    5.460698
    154          1           0       -4.268026   -2.459811    4.665256
    155          1           0       -5.136109   -3.678204   -0.240504
    156          1           0       -8.465381   -5.846293   -1.913292
    157          1           0       -8.235452   -4.457062   -3.154713
    158          1           0       -9.250056   -4.372877   -1.693306
 ---------------------------------------------------------------------

 SCF Done:  E(RCAM-B3LYP) =  -4069.81177724     A.U. after   19 cycles

 Excitation energies and oscillator strengths:

 Excited State   1:      Singlet-A      1.6495 eV  751.65 nm  f=0.0251  <S**2>=0.000
     309 -> 315        0.11426
     310 -> 316        0.12234
     311 -> 313        0.46799
     312 -> 314        0.50366
 This state for optimization and/or second-order correction.
 Total Energy, E(TD-HF/TD-DFT) =  -4069.75115942
 Copying the excited state density for this state as the 1-particle RhoCI density.

 Excited State   2:      Singlet-A      1.7039 eV  727.65 nm  f=0.6685  <S**2>=0.000
     309 -> 315        0.13307
     310 -> 316       -0.12342
     311 -> 313        0.50119
     312 -> 314       -0.46580

 Excited State   3:      Singlet-A      2.1836 eV  567.80 nm  f=0.0150  <S**2>=0.000
     309 -> 313        0.35489
     310 -> 314        0.53828
     311 -> 315       -0.14770
     312 -> 316       -0.22518

 Excited State   4:      Singlet-A      2.1967 eV  564.41 nm  f=0.1619  <S**2>=0.000
     309 -> 313        0.53382
     310 -> 314       -0.35071
     311 -> 315       -0.23528
     312 -> 316        0.15551

 Excited State   5:      Singlet-A      2.3496 eV  527.69 nm  f=0.0000  <S**2>=0.000
     312 -> 313        0.70707

 The electronic state is 1-A.
 Alpha  occ. eigenvalues --  -46.87899 -46.87442 -19.26323 -19.26195 -19.19068
 Alpha  occ. eigenvalues --  -19.18996 -19.18848 -19.18438 -19.18276 -19.17834
 Alpha  occ. eigenvalues --  -14.42549 -14.42282 -14.41560 -14.41150 -14.39498
 Alpha  occ. eigenvalues --  -14.39118 -14.38697 -14.38385 -10.39131 -10.38922
 Alpha  occ. eigenvalues --  -10.35478 -10.35110 -10.34494 -10.34016 -10.31687
 Alpha  occ. eigenvalues --  -10.31627 -10.31514 -10.31110 -10.30989 -10.30788
 Alpha  occ. eigenvalues --  -10.30685 -10.30614 -10.30317 -10.30180 -10.30149
 Alpha  occ. eigenvalues --  -10.30041 -10.29924 -10.29735 -10.29702 -10.29353
 Alpha  occ. eigenvalues --  -10.29195 -10.29174 -10.28820 -10.28580 -10.28535
 Alpha  occ. eigenvalues --  -10.28530 -10.28458 -10.28198 -10.28168 -10.27956
 Alpha  occ. eigenvalues --  -10.27899 -10.27829 -10.27769 -10.27677 -10.27659
 Alpha  occ. eigenvalues --  -10.27578 -10.27556 -10.27498 -10.27441 -10.27382
 Alpha  occ. eigenvalues --  -10.27265 -10.27241 -10.27222 -10.27219 -10.27131
 Alpha  occ. eigenvalues --  -10.26844 -10.26763 -10.26533 -10.26421 -10.26402
 Alpha  occ. eigenvalues --  -10.26310 -10.26146 -10.26101 -10.26044 -10.26022
 Alpha  occ. eigenvalues --  -10.25842 -10.25740 -10.25717 -10.25536 -10.25240
 Alpha  occ. eigenvalues --  -10.24994 -10.24941 -10.24887 -10.24647 -10.24631
 Alpha  occ. eigenvalues --  -10.24464  -3.16642  -3.16192  -1.91524  -1.91110
 Alpha  occ. eigenvalues --   -1.91074  -1.90952  -1.90663  -1.90499  -1.16674
 Alpha  occ. eigenvalues --   -1.16486  -1.08733  -1.08448  -1.07244  -1.06780
 Alpha  occ. eigenvalues --   -1.06692  -1.06685  -1.04678  -1.04278  -1.03866
 Alpha  occ. eigenvalues --   -1.03444  -1.03339  -1.02823  -1.02517  -1.01893
 Alpha  occ. eigenvalues --   -0.92069  -0.91773  -0.89666  -0.89314  -0.89269
 Alpha  occ. eigenvalues --   -0.88967  -0.88423  -0.88049  -0.88000  -0.87772
 Alpha  occ. eigenvalues --   -0.87601  -0.87477  -0.87348  -0.86844  -0.85064
 Alpha  occ. eigenvalues --   -0.84807  -0.84090  -0.83717  -0.83038  -0.82721
 Alpha  occ. eigenvalues --   -0.82683  -0.82436  -0.81664  -0.81415  -0.80679
 Alpha  occ. eigenvalues --   -0.80238  -0.78891  -0.78392  -0.77336  -0.77025
 Alpha  occ. eigenvalues --   -0.76949  -0.76726  -0.76007  -0.75643  -0.75014
 Alpha  occ. eigenvalues --   -0.74625  -0.72890  -0.72494  -0.71769  -0.71384
 Alpha  occ. eigenvalues --   -0.70090  -0.69614  -0.68957  -0.68630  -0.67732
 Alpha  occ. eigenvalues --   -0.67391  -0.67284  -0.66991  -0.65376  -0.65083
 Alpha  occ. eigenvalues --   -0.64954  -0.64719  -0.64573  -0.64466  -0.64399
 Alpha  occ. eigenvalues --   -0.64029  -0.62372  -0.62101  -0.60531  -0.60098
 Alpha  occ. eigenvalues --   -0.59893  -0.59599  -0.59093  -0.58790  -0.58606
 Alpha  occ. eigenvalues --   -0.58222  -0.57672  -0.57412  -0.57361  -0.57032
 Alpha  occ. eigenvalues --   -0.56411  -0.56037  -0.55994  -0.55704  -0.55600
 Alpha  occ. eigenvalues --   -0.55463  -0.55228  -0.55082  -0.54634  -0.54327
 Alpha  occ. eigenvalues --   -0.53973  -0.53736  -0.53399  -0.53289  -0.53033
 Alpha  occ. eigenvalues --   -0.53003  -0.52926  -0.52823  -0.52717  -0.52618
 Alpha  occ. eigenvalues --   -0.52396  -0.52265  -0.52060  -0.51720  -0.51686
 Alpha  occ. eigenvalues --   -0.51447  -0.51309  -0.51012  -0.50634  -0.50207
 Alpha  occ. eigenvalues --   -0.50174  -0.49987  -0.49764  -0.49671  -0.49584
 Alpha  occ. eigenvalues --   -0.49306  -0.49260  -0.49181  -0.48984  -0.48915
 Alpha  occ. eigenvalues --   -0.48685  -0.48571  -0.48502  -0.48369  -0.48201
 Alpha  occ. eigenvalues --   -0.48085  -0.47786  -0.47386  -0.47380  -0.46920
 Alpha  occ. eigenvalues --   -0.46890  -0.46631  -0.46528  -0.46467  -0.46365
 Alpha  occ. eigenvalues --   -0.46272  -0.46058  -0.45927  -0.45905  -0.45653
 Alpha  occ. eigenvalues --   -0.45324  -0.45018  -0.44686  -0.44592  -0.44332
 Alpha  occ. eigenvalues --   -0.44288  -0.44267  -0.44171  -0.44093  -0.43935
 Alpha  occ. eigenvalues --   -0.43877  -0.43701  -0.43584  -0.43483  -0.43386
 Alpha  occ. eigenvalues --   -0.43210  -0.43125  -0.42836  -0.42752  -0.42736
 Alpha  occ. eigenvalues --   -0.42700  -0.42366  -0.42142  -0.41807  -0.41799
 Alpha  occ. eigenvalues --   -0.41618  -0.41467  -0.41277  -0.41235  -0.40981
 Alpha  occ. eigenvalues --   -0.40867  -0.40793  -0.40697  -0.40538  -0.40462
 Alpha  occ. eigenvalues --   -0.40326  -0.40295  -0.40033  -0.39634  -0.39286
 Alpha  occ. eigenvalues --   -0.38596  -0.38185  -0.37822  -0.37481  -0.37446
 Alpha  occ. eigenvalues --   -0.37345  -0.37084  -0.36994  -0.36790  -0.36609
 Alpha  occ. eigenvalues --   -0.36284  -0.36039  -0.34392  -0.34044  -0.33828
 Alpha  occ. eigenvalues --   -0.33685  -0.33288  -0.32959  -0.31381  -0.31130
 Alpha  occ. eigenvalues --   -0.31003  -0.30753  -0.30136  -0.29745  -0.29541
 Alpha  occ. eigenvalues --   -0.29430  -0.29078  -0.28983  -0.24184  -0.23818
 Alpha  occ. eigenvalues --   -0.21235  -0.20896
 Alpha virt. eigenvalues --   -0.08874  -0.08558  -0.01849  -0.01464  -0.00129
 Alpha virt. eigenvalues --    0.00224   0.02091   0.02409   0.02844   0.03488
 Alpha virt. eigenvalues --    0.04627   0.04920   0.05039   0.05340   0.06116

 Mulliken charges:
               1
     1  Mg   0.838864
     2  C   -0.002511
     3  C   -0.094164
     4  C   -0.045696
     5  C   -0.064806
     6  N   -0.256772
     7  C   -0.052494
     8  C   -0.013993
     9  C   -0.087026
    10  C    0.046513
    11  C    0.104759
    12  C    0.053457
    13  C   -0.072247
    14  H    0.037280
    15  N   -0.433329
    16  C    0.168786
    17  C   -0.176959
    18  C   -0.003413
    19  C    0.149101
    20  C    0.110182
    21  C    0.013041
    22  O   -0.248435
    23  C    0.062218
    24  N   -0.341033
    25  C    0.041129
    26  C   -0.028609
    27  C   -0.023763
    28  C    0.074409
    29  C    0.076001
    30  C    0.036623
    31  C   -0.009165
    32  N   -0.310223
    33  C    0.079792
    34  C   -0.171236
    35  C    0.008148
    36  C    0.082618
    37  C    0.127652
    38  C    0.045592
    39  O   -0.188992
    40  C   -0.005074
    41  C    0.212476
    42  O   -0.256638
    43  O   -0.304957
    44  C    0.157355
    45  H   -0.017258
    46  H   -0.016176
    47  H   -0.042584
    48  H    0.001113
    49  H   -0.003953
    50  H    0.025589
    51  H    0.016459
    52  H    0.016924
    53  H    0.010608
    54  H    0.044782
    55  H    0.017940
    56  H    0.017580
    57  H    0.005856
    58  H    0.027390
    59  H    0.039684
    60  H    0.037139
    61  H    0.037391
    62  H    0.031333
    63  H    0.016974
    64  H    0.009661
    65  H    0.023861
    66  H    0.012947
    67  H    0.004736
    68  H    0.006648
    69  H    0.003179
    70  H    0.010110
    71  H    0.016568
    72  H    0.030110
    73  H    0.046093
    74  H    0.008016
    75  H    0.046427
    76  H    0.035274
    77  H    0.042850
    78  H    0.046664
    79  H    0.054763
    80  Mg   0.837667
    81  C   -0.016653
    82  C   -0.086810
    83  C   -0.043136
    84  C   -0.065718
    85  N   -0.254487
    86  C   -0.050295
    87  C   -0.014952
    88  C   -0.090887
    89  C    0.045327
    90  C    0.109976
    91  C    0.062760
    92  C   -0.077527
    93  H    0.034362
    94  N   -0.424153
    95  C    0.163142
    96  C   -0.171331
    97  C   -0.006055
    98  C    0.152778
    99  C    0.097978
   100  C    0.017285
   101  O   -0.253382
   102  C    0.060690
   103  N   -0.349950
   104  C    0.037652
   105  C   -0.019958
   106  C   -0.034192
   107  C    0.088572
   108  C    0.073123
   109  C    0.035001
   110  C   -0.007507
   111  N   -0.323897
   112  C    0.077994
   113  C   -0.164012
   114  C    0.002367
   115  C    0.095602
   116  C    0.131447
   117  C    0.042395
   118  O   -0.188541
   119  C    0.000832
   120  C    0.211069
   121  O   -0.251350
   122  O   -0.305553
   123  C    0.152194
   124  H   -0.018328
   125  H   -0.015174
   126  H   -0.042103
   127  H   -0.001158
   128  H   -0.004891
   129  H    0.024959
   130  H    0.016600
   131  H    0.017471
   132  H    0.013927
   133  H    0.037534
   134  H    0.020101
   135  H    0.019414
   136  H    0.008637
   137  H    0.030697
   138  H    0.039010
   139  H    0.040930
   140  H    0.035686
   141  H    0.032868
   142  H    0.013944
   143  H    0.010510
   144  H    0.023990
   145  H    0.015977
   146  H    0.003071
   147  H    0.005268
   148  H    0.002688
   149  H    0.010854
   150  H    0.017312
   151  H    0.030699
   152  H    0.045535
   153  H    0.007299
   154  H    0.045922
   155  H    0.035608
   156  H    0.043637
   157  H    0.049162
   158  H    0.053320
 Sum of Mulliken charges =  -0.00000

 Dipole moment (field-independent basis, Debye):
    X=              4.4024    Y=             -0.2424    Z=              0.3683  Tot=              4.4245
 Quadrupole moment (field-independent basis, Debye-Ang):
   XX=           -529.1816   YY=           -539.0278   ZZ=           -451.9070
   XY=            -20.9701   XZ=             54.3712   YZ=             31.2344

 Normal termination of Gaussian 16 at Fri Sep  3 19:48:39 2021.
