 Gaussian 16, Revision A.03,
 Gaussian 16:  ES64L-G16RevA.03 25-Dec-2016

 -----------------------------------
 #p cam-b3lyp/Def2SVP td=(nstates=5)
 -----------------------------------

 --------------------------------
 TDDFT excited states in gaussian
 --------------------------------
 Symbolic Z-matrix:
 Charge =  0 Multiplicity = 1

                         Standard orientation:
 ---------------------------------------------------------------------
 Center     Atomic      Atomic             Coordinates (Angstroms)
 Number     Number       Type             X           Y           Z
 ---------------------------------------------------------------------
      1         12           0        5.405088    0.444203    1.122807
      2          6           0        5.989482   -2.490661   -0.841186
      3          6           0        6.809249    2.241372   -1.415220
      4          6           0        5.315792    2.985104    3.018189
      5          6           0        5.111881   -1.648215    3.894355
      6          7           0        6.252714   -0.161305   -0.830532
      7          6           0        6.362113   -1.310849   -1.489131
      8          6           0        6.839701   -1.136127   -2.961801
      9          6           0        7.585034    0.266149   -2.820032
     10          6           0        6.814259    0.832771   -1.640723
     11          6           0        9.054322    0.138583   -2.430902
     12          6           0        5.643505   -1.049924   -3.968486
     13          6           0        6.019349   -1.206715   -5.444803
     14          1           0        5.096233   -1.896936   -6.332948
     15          7           0        5.519076    2.368785    0.691713
     16          6           0        6.113440    2.921973   -0.392723
     17          6           0        5.929907    4.383008   -0.257179
     18          6           0        5.347199    4.645543    1.088043
     19          6           0        5.395684    3.328942    1.670784
     20          6           0        6.247457    5.357066   -1.349939
     21          6           0        4.838602    5.888088    1.747999
     22          8           0        4.590424    5.939861    3.001115
     23          6           0        4.721034    7.084234    0.894503
     24          7           0        5.455872    0.670784    3.197347
     25          6           0        5.343113    1.877726    3.762645
     26          6           0        5.121610    1.769140    5.242200
     27          6           0        4.862563    0.221513    5.538001
     28          6           0        5.073318   -0.330826    4.106648
     29          6           0        6.268243    2.273323    6.129355
     30          6           0        3.554257   -0.142478    6.283833
     31          6           0        2.361681    0.152396    5.401841
     32          7           0        5.347471   -1.697654    1.469470
     33          6           0        5.242212   -2.348941    2.706975
     34          6           0        5.353727   -3.795597    2.444642
     35          6           0        5.533887   -3.885038    1.065734
     36          6           0        5.561125   -2.575861    0.505730
     37          6           0        5.343004   -4.824087    3.427764
     38          6           0        5.734370   -4.780940   -0.061662
     39          8           0        5.709015   -6.003187   -0.213197
     40          6           0        6.159192   -3.909384   -1.324890
     41          6           0        5.321381   -4.359875   -2.490411
     42          8           0        4.089353   -4.161899   -2.507070
     43          8           0        6.125322   -4.734393   -3.497365
     44          6           0        5.356986   -5.165037   -4.695847
     45          1           0        7.440218    2.877954   -2.038584
     46          1           0        5.172332    3.829122    3.696046
     47          1           0        4.945079   -2.366086    4.699521
     48          1           0        7.540475   -1.897116   -3.305656
     49          1           0        7.444573    0.892539   -3.700730
     50          1           0        9.314314   -0.891799   -2.188748
     51          1           0        9.180674    0.778454   -1.557349
     52          1           0        9.697811    0.557670   -3.204895
     53          1           0        5.258211   -0.030406   -3.982397
     54          1           0        4.871719   -1.777097   -3.713750
     55          1           0        7.028392   -1.603770   -5.559208
     56          1           0        6.066499   -0.213982   -5.892529
     57          1           0        6.813728    4.887244   -2.153151
     58          1           0        6.931698    6.094299   -0.930402
     59          1           0        5.354748    5.856551   -1.726659
     60          1           0        5.698621    7.325712    0.476698
     61          1           0        4.257706    7.851310    1.513997
     62          1           0        4.074700    6.851617    0.047691
     63          1           0        4.248276    2.342701    5.550000
     64          1           0        5.649687   -0.214589    6.153570
     65          1           0        5.968213    3.049843    6.833417
     66          1           0        7.068858    2.623673    5.478540
     67          1           0        6.777714    1.498716    6.701929
     68          1           0        3.447641    0.465845    7.181342
     69          1           0        3.507494   -1.189058    6.585055
     70          1           0        2.193820    1.216054    5.567027
     71          1           0        1.498735   -0.433172    5.720663
     72          1           0        2.604291    0.020731    4.347189
     73          1           0        4.705785   -5.615831    3.033984
     74          1           0        4.971152   -4.454698    4.383213
     75          1           0        6.401604   -5.080976    3.462807
     76          1           0        7.220736   -4.091918   -1.488986
     77          1           0        5.687676   -6.173712   -4.943745
     78          1           0        5.494981   -4.388132   -5.448030
     79          1           0        4.288625   -5.328661   -4.550344
     80         12           0       -4.977580    0.493209   -0.930956
     81          6           0       -7.412320   -1.650353    0.604065
     82          6           0       -7.365819    2.928237   -0.970744
     83          6           0       -3.008243    2.257457   -2.684956
     84          6           0       -3.202158   -2.377141   -1.799664
     85          7           0       -7.079537    0.515553   -0.242803
     86          6           0       -7.877837   -0.337757    0.380842
     87          6           0       -9.222551    0.272025    0.859875
     88          6           0       -9.315714    1.493991   -0.177896
     89          6           0       -7.827461    1.688577   -0.460599
     90          6           0      -10.005245    1.125612   -1.481040
     91          6           0       -9.153420    0.781432    2.342350
     92          6           0      -10.508747    1.104341    2.975252
     93          1           0      -10.697364    0.825938    4.396301
     94          7           0       -4.969567    2.446823   -1.280098
     95          6           0       -6.024622    3.286806   -1.229519
     96          6           0       -5.499919    4.613775   -1.587290
     97          6           0       -4.082531    4.458456   -2.013416
     98          6           0       -3.968916    3.013839   -2.029565
     99          6           0       -6.300052    5.874297   -1.431383
    100          6           0       -3.010914    5.446356   -2.362569
    101          8           0       -1.922741    5.085033   -2.935407
    102          6           0       -3.312312    6.861001   -2.099052
    103          7           0       -3.453436    0.007440   -2.258865
    104          6           0       -2.717426    0.966581   -2.847311
    105          6           0       -1.510422    0.380151   -3.539892
    106          6           0       -1.458173   -1.152888   -3.087499
    107          6           0       -2.751636   -1.212526   -2.245603
    108          6           0       -1.515113    0.460186   -5.066304
    109          6           0       -0.134848   -1.652573   -2.445774
    110          6           0        0.072247   -0.986188   -1.104727
    111          7           0       -5.132580   -1.619594   -0.506547
    112          6           0       -4.299312   -2.650687   -0.992934
    113          6           0       -4.869591   -3.929712   -0.522517
    114          6           0       -6.017048   -3.552396    0.191261
    115          6           0       -6.163470   -2.139459    0.150324
    116          6           0       -4.355922   -5.225570   -0.810655
    117          6           0       -7.143578   -4.028867    0.961072
    118          8           0       -7.496357   -5.123513    1.398153
    119          6           0       -8.166644   -2.828122    1.155853
    120          6           0       -8.565183   -2.788032    2.605703
    121          8           0       -7.727792   -2.516345    3.484104
    122          8           0       -9.905592   -2.861801    2.696430
    123          6           0      -10.350160   -2.814633    4.114870
    124          1           0       -8.102826    3.685769   -1.238772
    125          1           0       -2.239935    2.826500   -3.213520
    126          1           0       -2.653415   -3.309991   -1.945759
    127          1           0      -10.081904   -0.378006    0.746977
    128          1           0       -9.733619    2.380420    0.292160
    129          1           0      -10.214386    0.067883   -1.541193
    130          1           0       -9.324343    1.422006   -2.268158
    131          1           0      -10.904874    1.732837   -1.616261
    132          1           0       -8.696630    1.779369    2.357116
    133          1           0       -8.622940    0.083635    2.960657
    134          1           0      -11.343690    0.699851    2.390269
    135          1           0      -10.658007    2.186317    2.942637
    136          1           0       -7.360866    5.658073   -1.254377
    137          1           0       -6.284900    6.384580   -2.400528
    138          1           0       -5.888134    6.543592   -0.673084
    139          1           0       -4.204323    7.148951   -2.650276
    140          1           0       -2.393443    7.403466   -2.329901
    141          1           0       -3.548829    6.976050   -1.035360
    142          1           0       -0.601724    0.873059   -3.216791
    143          1           0       -1.605413   -1.834074   -3.938467
    144          1           0       -0.632516    0.984703   -5.478582
    145          1           0       -2.428321    0.948419   -5.379702
    146          1           0       -1.577930   -0.498243   -5.578815
    147          1           0        0.718020   -1.369978   -3.067792
    148          1           0       -0.096823   -2.729122   -2.316987
    149          1           0        0.522231   -0.025730   -1.373301
    150          1           0        0.742837   -1.576207   -0.483258
    151          1           0       -0.886903   -0.776039   -0.617367
    152          1           0       -4.393156   -5.787701    0.112995
    153          1           0       -3.343058   -5.173206   -1.204546
    154          1           0       -5.073580   -5.556275   -1.566203
    155          1           0       -9.019311   -3.014887    0.501914
    156          1           0      -10.961593   -3.705658    4.287841
    157          1           0      -10.843878   -1.832724    4.240709
    158          1           0       -9.592389   -2.926020    4.881567
 ---------------------------------------------------------------------

 SCF Done:  E(RCAM-B3LYP) =  -4069.81283517     A.U. after   19 cycles

 Excitation energies and oscillator strengths:

 Excited State   1:      Singlet-A      1.6546 eV  749.34 nm  f=0.0060  <S**2>=0.000
     309 -> 315       -0.11123
     310 -> 316        0.12686
     311 -> 313       -0.45102
     312 -> 314        0.51852
 This state for optimization and/or second-order correction.
 Total Energy, E(TD-HF/TD-DFT) =  -4069.75203025
 Copying the excited state density for this state as the 1-particle RhoCI density.

 Excited State   2:      Singlet-A      1.6963 eV  730.90 nm  f=0.7127  <S**2>=0.000
     309 -> 315        0.13583
     310 -> 316        0.11716
     311 -> 313        0.51667
     312 -> 314        0.44939

 Excited State   3:      Singlet-A      2.1832 eV  567.89 nm  f=0.0771  <S**2>=0.000
     309 -> 313        0.15333
     310 -> 314        0.62489
     312 -> 316       -0.26316

 Excited State   4:      Singlet-A      2.1951 eV  564.83 nm  f=0.1177  <S**2>=0.000
     309 -> 313        0.62199
     310 -> 314       -0.15131
     311 -> 315       -0.27173

 Excited State   5:      Singlet-A      2.5243 eV  491.17 nm  f=0.0000  <S**2>=0.000
     312 -> 313        0.70678

 The electronic state is 1-A.
 Alpha  occ. eigenvalues --  -46.87749 -46.87451 -19.26409 -19.26216 -19.19175
 Alpha  occ. eigenvalues --  -19.19018 -19.18717 -19.18595 -19.18161 -19.17875
 Alpha  occ. eigenvalues --  -14.42414 -14.42299 -14.41393 -14.41126 -14.39345
 Alpha  occ. eigenvalues --  -14.39153 -14.38548 -14.38390 -10.39215 -10.38944
 Alpha  occ. eigenvalues --  -10.35346 -10.35278 -10.34388 -10.34052 -10.31811
 Alpha  occ. eigenvalues --  -10.31641 -10.31383 -10.31105 -10.30880 -10.30853
 Alpha  occ. eigenvalues --  -10.30531 -10.30455 -10.30184 -10.30144 -10.30125
 Alpha  occ. eigenvalues --  -10.29886 -10.29869 -10.29650 -10.29574 -10.29237
 Alpha  occ. eigenvalues --  -10.29197 -10.29184 -10.28775 -10.28628 -10.28568
 Alpha  occ. eigenvalues --  -10.28540 -10.28327 -10.28222 -10.28116 -10.27982
 Alpha  occ. eigenvalues --  -10.27805 -10.27738 -10.27680 -10.27518 -10.27471
 Alpha  occ. eigenvalues --  -10.27400 -10.27378 -10.27363 -10.27359 -10.27322
 Alpha  occ. eigenvalues --  -10.27289 -10.27275 -10.27187 -10.27108 -10.27080
 Alpha  occ. eigenvalues --  -10.26883 -10.26802 -10.26558 -10.26344 -10.26260
 Alpha  occ. eigenvalues --  -10.26223 -10.26045 -10.25953 -10.25882 -10.25775
 Alpha  occ. eigenvalues --  -10.25663 -10.25565 -10.25439 -10.25357 -10.25195
 Alpha  occ. eigenvalues --  -10.24791 -10.24734 -10.24679 -10.24517 -10.24482
 Alpha  occ. eigenvalues --  -10.24152  -3.16491  -3.16201  -1.91373  -1.91084
 Alpha  occ. eigenvalues --   -1.90960  -1.90802  -1.90672  -1.90509  -1.16759
 Alpha  occ. eigenvalues --   -1.16507  -1.08631  -1.08484  -1.07115  -1.06854
 Alpha  occ. eigenvalues --   -1.06802  -1.06784  -1.04548  -1.04302  -1.03708
 Alpha  occ. eigenvalues --   -1.03453  -1.03182  -1.02815  -1.02362  -1.01898
 Alpha  occ. eigenvalues --   -0.91954  -0.91793  -0.89443  -0.89196  -0.89188
 Alpha  occ. eigenvalues --   -0.88975  -0.88210  -0.87890  -0.87819  -0.87638
 Alpha  occ. eigenvalues --   -0.87570  -0.87477  -0.87184  -0.86957  -0.84979
 Alpha  occ. eigenvalues --   -0.84826  -0.83859  -0.83536  -0.82864  -0.82751
 Alpha  occ. eigenvalues --   -0.82625  -0.82460  -0.81607  -0.81408  -0.80574
 Alpha  occ. eigenvalues --   -0.80256  -0.78724  -0.78445  -0.77173  -0.76940
 Alpha  occ. eigenvalues --   -0.76932  -0.76669  -0.75917  -0.75657  -0.74839
 Alpha  occ. eigenvalues --   -0.74552  -0.72721  -0.72474  -0.71637  -0.71381
 Alpha  occ. eigenvalues --   -0.69804  -0.69340  -0.68855  -0.68641  -0.67603
 Alpha  occ. eigenvalues --   -0.67407  -0.67214  -0.67050  -0.65290  -0.65094
 Alpha  occ. eigenvalues --   -0.64835  -0.64597  -0.64550  -0.64446  -0.64200
 Alpha  occ. eigenvalues --   -0.63870  -0.62330  -0.62076  -0.60361  -0.60144
 Alpha  occ. eigenvalues --   -0.59792  -0.59620  -0.58950  -0.58775  -0.58470
 Alpha  occ. eigenvalues --   -0.58208  -0.57615  -0.57377  -0.57256  -0.56993
 Alpha  occ. eigenvalues --   -0.56272  -0.56026  -0.55998  -0.55718  -0.55466
 Alpha  occ. eigenvalues --   -0.55307  -0.55294  -0.54989  -0.54517  -0.54207
 Alpha  occ. eigenvalues --   -0.53907  -0.53750  -0.53244  -0.53192  -0.53035
 Alpha  occ. eigenvalues --   -0.52950  -0.52924  -0.52710  -0.52683  -0.52533
 Alpha  occ. eigenvalues --   -0.52330  -0.51908  -0.51867  -0.51633  -0.51606
 Alpha  occ. eigenvalues --   -0.51505  -0.51168  -0.50958  -0.50454  -0.50320
 Alpha  occ. eigenvalues --   -0.49948  -0.49851  -0.49808  -0.49560  -0.49483
 Alpha  occ. eigenvalues --   -0.49329  -0.49186  -0.49086  -0.49034  -0.48915
 Alpha  occ. eigenvalues --   -0.48596  -0.48418  -0.48386  -0.48369  -0.48201
 Alpha  occ. eigenvalues --   -0.48128  -0.47651  -0.47395  -0.47243  -0.46932
 Alpha  occ. eigenvalues --   -0.46751  -0.46559  -0.46476  -0.46370  -0.46313
 Alpha  occ. eigenvalues --   -0.46127  -0.46038  -0.45857  -0.45823  -0.45618
 Alpha  occ. eigenvalues --   -0.45132  -0.44960  -0.44567  -0.44452  -0.44352
 Alpha  occ. eigenvalues --   -0.44258  -0.44099  -0.44053  -0.43977  -0.43960
 Alpha  occ. eigenvalues --   -0.43792  -0.43777  -0.43502  -0.43357  -0.43335
 Alpha  occ. eigenvalues --   -0.43190  -0.42991  -0.42770  -0.42759  -0.42691
 Alpha  occ. eigenvalues --   -0.42573  -0.42255  -0.41958  -0.41676  -0.41649
 Alpha  occ. eigenvalues --   -0.41522  -0.41462  -0.41223  -0.41108  -0.40845
 Alpha  occ. eigenvalues --   -0.40797  -0.40752  -0.40592  -0.40501  -0.40481
 Alpha  occ. eigenvalues --   -0.40266  -0.40125  -0.40086  -0.39329  -0.38999
 Alpha  occ. eigenvalues --   -0.38407  -0.38056  -0.37776  -0.37487  -0.37258
 Alpha  occ. eigenvalues --   -0.37256  -0.37030  -0.36961  -0.36788  -0.36591
 Alpha  occ. eigenvalues --   -0.36186  -0.35961  -0.34247  -0.34040  -0.33891
 Alpha  occ. eigenvalues --   -0.33706  -0.33149  -0.32964  -0.31252  -0.31154
 Alpha  occ. eigenvalues --   -0.30996  -0.30770  -0.30027  -0.29778  -0.29385
 Alpha  occ. eigenvalues --   -0.29274  -0.29145  -0.29011  -0.24040  -0.23826
 Alpha  occ. eigenvalues --   -0.21076  -0.20905
 Alpha virt. eigenvalues --   -0.08719  -0.08594  -0.01694  -0.01474   0.00005
 Alpha virt. eigenvalues --    0.00129   0.02231   0.02406   0.02959   0.03496
 Alpha virt. eigenvalues --    0.04730   0.04916   0.04972   0.05315   0.06114

 Mulliken charges:
               1
     1  Mg   0.837102
     2  C   -0.004177
     3  C   -0.093835
     4  C   -0.045395
     5  C   -0.063358
     6  N   -0.256793
     7  C   -0.053538
     8  C   -0.013625
     9  C   -0.087007
    10  C    0.046081
    11  C    0.104772
    12  C    0.052795
    13  C   -0.071638
    14  H    0.034649
    15  N   -0.433431
    16  C    0.168952
    17  C   -0.176140
    18  C   -0.003159
    19  C    0.149152
    20  C    0.109838
    21  C    0.013222
    22  O   -0.249713
    23  C    0.061621
    24  N   -0.341063
    25  C    0.041463
    26  C   -0.028233
    27  C   -0.023976
    28  C    0.074705
    29  C    0.076189
    30  C    0.034997
    31  C   -0.004759
    32  N   -0.310430
    33  C    0.079984
    34  C   -0.169825
    35  C    0.007997
    36  C    0.081717
    37  C    0.127409
    38  C    0.045095
    39  O   -0.188922
    40  C   -0.005195
    41  C    0.213625
    42  O   -0.260451
    43  O   -0.304067
    44  C    0.157844
    45  H   -0.017494
    46  H   -0.016588
    47  H   -0.041103
    48  H    0.000882
    49  H   -0.003831
    50  H    0.025444
    51  H    0.016758
    52  H    0.016764
    53  H    0.011311
    54  H    0.041839
    55  H    0.018525
    56  H    0.018797
    57  H    0.005701
    58  H    0.026575
    59  H    0.042074
    60  H    0.036896
    61  H    0.035294
    62  H    0.034297
    63  H    0.016935
    64  H    0.009385
    65  H    0.023254
    66  H    0.012342
    67  H    0.004796
    68  H    0.006407
    69  H    0.005090
    70  H    0.008729
    71  H    0.019782
    72  H    0.028758
    73  H    0.047378
    74  H    0.009750
    75  H    0.045906
    76  H    0.035412
    77  H    0.043580
    78  H    0.046609
    79  H    0.052179
    80  Mg   0.837613
    81  C   -0.017334
    82  C   -0.088244
    83  C   -0.045677
    84  C   -0.064638
    85  N   -0.254624
    86  C   -0.049815
    87  C   -0.015108
    88  C   -0.090387
    89  C    0.045571
    90  C    0.114527
    91  C    0.062600
    92  C   -0.077642
    93  H    0.034420
    94  N   -0.423263
    95  C    0.162631
    96  C   -0.175117
    97  C   -0.008405
    98  C    0.152040
    99  C    0.099507
   100  C    0.015282
   101  O   -0.255005
   102  C    0.061529
   103  N   -0.350261
   104  C    0.037631
   105  C   -0.019136
   106  C   -0.036865
   107  C    0.089176
   108  C    0.074610
   109  C    0.036362
   110  C   -0.013413
   111  N   -0.324262
   112  C    0.078912
   113  C   -0.162213
   114  C    0.001968
   115  C    0.096528
   116  C    0.130844
   117  C    0.042470
   118  O   -0.187997
   119  C    0.000903
   120  C    0.211221
   121  O   -0.251145
   122  O   -0.305670
   123  C    0.152165
   124  H   -0.020405
   125  H   -0.016776
   126  H   -0.037264
   127  H   -0.000937
   128  H   -0.004743
   129  H    0.022251
   130  H    0.014336
   131  H    0.015735
   132  H    0.013938
   133  H    0.037609
   134  H    0.020619
   135  H    0.019398
   136  H    0.008464
   137  H    0.025276
   138  H    0.039280
   139  H    0.038074
   140  H    0.034424
   141  H    0.034342
   142  H    0.013451
   143  H    0.012633
   144  H    0.022846
   145  H    0.010517
   146  H    0.005589
   147  H    0.009680
   148  H    0.012871
   149  H    0.006935
   150  H    0.028701
   151  H    0.026498
   152  H    0.046268
   153  H    0.011774
   154  H    0.046385
   155  H    0.034655
   156  H    0.043680
   157  H    0.049301
   158  H    0.053394
 Sum of Mulliken charges =  -0.00000

 Dipole moment (field-independent basis, Debye):
    X=              0.5066    Y=              6.7857    Z=             -3.2948  Tot=              7.5603
 Quadrupole moment (field-independent basis, Debye-Ang):
   XX=           -443.8041   YY=           -540.2670   ZZ=           -482.9728
   XY=            -24.9283   XZ=            -13.5116   YZ=             -0.6155

 Normal termination of Gaussian 16 at Fri Sep 10 10:41:12 2021.
