 Gaussian 16, Revision A.03,
 Gaussian 16:  ES64L-G16RevA.03 25-Dec-2016

 -----------------------------------
 #p cam-b3lyp/Def2SVP td=(nstates=5)
 -----------------------------------

 --------------------------------
 TDDFT excited states in gaussian
 --------------------------------
 Symbolic Z-matrix:
 Charge =  0 Multiplicity = 1

                         Standard orientation:
 ---------------------------------------------------------------------
 Center     Atomic      Atomic             Coordinates (Angstroms)
 Number     Number       Type             X           Y           Z
 ---------------------------------------------------------------------
      1         12           0        4.852077    0.930718    0.364013
      2          6           0        5.405311   -2.192655   -1.294506
      3          6           0        5.743056    2.465998   -2.550114
      4          6           0        4.810991    3.687613    1.930687
      5          6           0        5.114170   -0.793542    3.381279
      6          7           0        5.473018    0.130015   -1.604223
      7          6           0        5.586822   -1.086589   -2.127763
      8          6           0        5.843111   -1.076382   -3.664508
      9          6           0        6.481657    0.377895   -3.803565
     10          6           0        5.834351    1.043317   -2.601844
     11          6           0        7.995733    0.398587   -3.620134
     12          6           0        4.517920   -1.201441   -4.489106
     13          6           0        4.700826   -1.526262   -5.974498
     14          1           0        3.725898   -2.385957   -6.628553
     15          7           0        4.745906    2.785168   -0.308738
     16          6           0        5.138917    3.228419   -1.527080
     17          6           0        4.854771    4.679506   -1.544013
     18          6           0        4.441002    5.078208   -0.169995
     19          6           0        4.677694    3.855683    0.554427
     20          6           0        4.938401    5.519945   -2.781114
     21          6           0        3.925572    6.360987    0.401793
     22          8           0        3.847012    6.560879    1.662129
     23          6           0        3.593803    7.424245   -0.563843
     24          7           0        5.166040    1.431052    2.366194
     25          6           0        5.031435    2.691940    2.791667
     26          6           0        5.023390    2.764735    4.289857
     27          6           0        4.936598    1.255912    4.805294
     28          6           0        4.995532    0.534992    3.435962
     29          6           0        6.234297    3.454834    4.932880
     30          6           0        3.776937    0.908772    5.772299
     31          6           0        2.454966    1.006762    5.044364
     32          7           0        5.020452   -1.146089    0.971934
     33          6           0        5.139287   -1.634387    2.281177
     34          6           0        5.333867   -3.092620    2.182370
     35          6           0        5.331271   -3.350750    0.812988
     36          6           0        5.173047   -2.127646    0.100756
     37          6           0        5.542716   -3.981341    3.273695
     38          6           0        5.450036   -4.372197   -0.214825
     39          8           0        5.505946   -5.602790   -0.212047
     40          6           0        5.624856   -3.648588   -1.622537
     41          6           0        4.676422   -4.302083   -2.590383
     42          8           0        3.441461   -4.188679   -2.451174
     43          8           0        5.363985   -4.752649   -3.650944
     44          6           0        4.477994   -5.386323   -4.663678
     45          1           0        6.228093    3.054775   -3.331153
     46          1           0        4.691580    4.602316    2.515065
     47          1           0        5.118878   -1.408584    4.283030
     48          1           0        6.551299   -1.828722   -4.012181
     49          1           0        6.170937    0.872499   -4.723642
     50          1           0        8.371026   -0.571847   -3.295583
     51          1           0        8.186307    1.154669   -2.858218
     52          1           0        8.490683    0.753226   -4.524586
     53          1           0        4.050933   -0.219889   -4.569971
     54          1           0        3.851174   -1.937491   -4.038544
     55          1           0        5.714347   -1.868351   -6.185822
     56          1           0        4.603857   -0.600108   -6.541099
     57          1           0        5.427022    4.986430   -3.595458
     58          1           0        5.609759    6.348943   -2.558067
     59          1           0        3.964292    5.906326   -3.081371
     60          1           0        4.481861    7.671812   -1.145746
     61          1           0        3.157067    8.234330    0.019144
     62          1           0        2.859707    7.040659   -1.273007
     63          1           0        4.155518    3.315698    4.649947
     64          1           0        5.833751    0.956772    5.347792
     65          1           0        5.969503    4.296020    5.573968
     66          1           0        6.906856    3.767917    4.134798
     67          1           0        6.879634    2.797117    5.514573
     68          1           0        3.743415    1.621627    6.595499
     69          1           0        3.858801   -0.089893    6.201505
     70          1           0        2.223358    2.069696    5.102330
     71          1           0        1.695191    0.413277    5.554001
     72          1           0        2.561710    0.753587    3.989379
     73          1           0        4.925818   -4.857809    3.075682
     74          1           0        5.275113   -3.514485    4.221343
     75          1           0        6.613873   -4.161897    3.184935
     76          1           0        6.665605   -3.781597   -1.916257
     77          1           0        4.854504   -6.395146   -4.833238
     78          1           0        4.447162   -4.707793   -5.516351
     79          1           0        3.456752   -5.598611   -4.345342
     80         12           0       -5.672799    0.028280   -0.161528
     81          6           0       -2.968052   -2.041718    0.969174
     82          6           0       -3.554340    2.687618    0.111709
     83          6           0       -8.149499    1.931620   -0.718956
     84          6           0       -7.838600   -2.548785    0.740576
     85          7           0       -3.557929    0.176596    0.469013
     86          6           0       -2.614092   -0.684822    0.817543
     87          6           0       -1.193940   -0.069569    0.936657
     88          6           0       -1.614909    1.455663    1.211090
     89          6           0       -2.980105    1.459425    0.526328
     90          6           0       -1.818619    1.768013    2.684276
     91          6           0       -0.369334   -0.207860   -0.391091
     92          6           0        1.125237    0.090826   -0.253960
     93          1           0        2.066393   -0.683018   -1.058868
     94          7           0       -5.729793    1.921432   -0.754217
     95          6           0       -4.773037    2.857389   -0.581318
     96          6           0       -5.305721    4.092180   -1.177721
     97          6           0       -6.720901    3.851084   -1.569950
     98          6           0       -6.932611    2.536435   -0.998143
     99          6           0       -4.466077    5.316558   -1.399819
    100          6           0       -7.722422    4.673679   -2.322609
    101          8           0       -8.966903    4.367523   -2.342045
    102          6           0       -7.218538    5.899667   -2.958646
    103          7           0       -7.713060   -0.175439    0.182255
    104          6           0       -8.577842    0.779147   -0.203539
    105          6           0      -10.004774    0.295073   -0.103894
    106          6           0       -9.906609   -1.271842    0.200625
    107          6           0       -8.372915   -1.411253    0.317876
    108          6           0      -10.862498    0.968633    0.967092
    109          6           0      -10.663844   -2.225058   -0.764078
    110          6           0      -10.020764   -2.192683   -2.131846
    111          7           0       -5.464679   -2.009772    0.524827
    112          6           0       -6.501931   -2.904027    0.869051
    113          6           0       -5.864249   -4.131381    1.388101
    114          6           0       -4.489889   -3.855039    1.330892
    115          6           0       -4.286143   -2.540203    0.831723
    116          6           0       -6.547047   -5.281126    1.875944
    117          6           0       -3.165518   -4.372702    1.589271
    118          8           0       -2.711006   -5.462371    1.935367
    119          6           0       -2.125667   -3.175070    1.485435
    120          6           0       -0.972022   -3.633904    0.636257
    121          8           0       -1.138195   -3.894154   -0.568422
    122          8           0        0.172088   -3.481509    1.327744
    123          6           0        1.346121   -3.912872    0.523135
    124          1           0       -3.045490    3.614402    0.378206
    125          1           0       -9.036255    2.505617   -0.997630
    126          1           0       -8.441884   -3.434564    0.950608
    127          1           0       -0.603333   -0.446711    1.762930
    128          1           0       -0.938186    2.147367    0.716157
    129          1           0       -1.761621    0.879967    3.296039
    130          1           0       -2.801395    2.215117    2.757021
    131          1           0       -1.112449    2.538210    3.007472
    132          1           0       -0.659557    0.597256   -1.078334
    133          1           0       -0.505363   -1.179550   -0.824614
    134          1           0        1.446103    0.115685    0.794544
    135          1           0        1.310962    1.105227   -0.615206
    136          1           0       -3.512776    5.253785   -0.860670
    137          1           0       -4.990689    6.154060   -0.927359
    138          1           0       -4.321806    5.541994   -2.458604
    139          1           0       -6.779240    6.544929   -2.201598
    140          1           0       -8.061432    6.304030   -3.522468
    141          1           0       -6.411440    5.629470   -3.648728
    142          1           0      -10.528237    0.438797   -1.041139
    143          1           0      -10.321286   -1.521735    1.188258
    144          1           0      -11.780163    1.435130    0.561709
    145          1           0      -10.255485    1.704489    1.477585
    146          1           0      -11.174962    0.320139    1.783797
    147          1           0      -11.694709   -1.887988   -0.897742
    148          1           0      -10.703365   -3.251317   -0.414468
    149          1           0      -10.469293   -1.308493   -2.594553
    150          1           0      -10.261606   -3.095271   -2.689844
    151          1           0       -8.942039   -2.013363   -2.055402
    152          1           0       -6.034135   -6.143162    1.470606
    153          1           0       -7.596756   -5.271299    1.589951
    154          1           0       -6.413620   -5.145039    2.952489
    155          1           0       -1.812976   -2.923862    2.499679
    156          1           0        1.877844   -4.666338    1.112404
    157          1           0        1.896526   -2.985440    0.276845
    158          1           0        1.152670   -4.458630   -0.392934
 ---------------------------------------------------------------------

 SCF Done:  E(RCAM-B3LYP) =  -4069.81744175     A.U. after   19 cycles

 Excitation energies and oscillator strengths:

 Excited State   1:      Singlet-A      1.6493 eV  751.73 nm  f=0.0055  <S**2>=0.000
     309 -> 315        0.12369
     310 -> 316       -0.11182
     311 -> 313        0.50778
     312 -> 314        0.46366
 This state for optimization and/or second-order correction.
 Total Energy, E(TD-HF/TD-DFT) =  -4069.75683025
 Copying the excited state density for this state as the 1-particle RhoCI density.

 Excited State   2:      Singlet-A      1.6975 eV  730.40 nm  f=0.7009  <S**2>=0.000
     309 -> 315       -0.12106
     310 -> 316       -0.13188
     311 -> 313       -0.46144
     312 -> 314        0.50552

 Excited State   3:      Singlet-A      2.1824 eV  568.11 nm  f=0.1128  <S**2>=0.000
     310 -> 314        0.64220
     312 -> 316        0.27082

 Excited State   4:      Singlet-A      2.1880 eV  566.66 nm  f=0.0905  <S**2>=0.000
     309 -> 313        0.64120
     311 -> 315       -0.27430

 Excited State   5:      Singlet-A      2.3507 eV  527.43 nm  f=0.0000  <S**2>=0.000
     312 -> 313        0.70622

 The electronic state is 1-A.
 Alpha  occ. eigenvalues --  -46.88161 -46.87395 -19.26651 -19.25068 -19.19622
 Alpha  occ. eigenvalues --  -19.19223 -19.18574 -19.18510 -19.18146 -19.17637
 Alpha  occ. eigenvalues --  -14.42776 -14.42237 -14.41797 -14.41092 -14.39757
 Alpha  occ. eigenvalues --  -14.39090 -14.38923 -14.38320 -10.39576 -10.38115
 Alpha  occ. eigenvalues --  -10.35855 -10.35194 -10.34789 -10.33789 -10.31843
 Alpha  occ. eigenvalues --  -10.31742 -10.31269 -10.31010 -10.30935 -10.30884
 Alpha  occ. eigenvalues --  -10.30737 -10.30551 -10.30281 -10.30129 -10.30070
 Alpha  occ. eigenvalues --  -10.30009 -10.29915 -10.29767 -10.29631 -10.29600
 Alpha  occ. eigenvalues --  -10.29195 -10.29136 -10.29028 -10.28748 -10.28696
 Alpha  occ. eigenvalues --  -10.28632 -10.28430 -10.28393 -10.28162 -10.28102
 Alpha  occ. eigenvalues --  -10.28062 -10.27966 -10.27846 -10.27831 -10.27829
 Alpha  occ. eigenvalues --  -10.27792 -10.27788 -10.27719 -10.27555 -10.27408
 Alpha  occ. eigenvalues --  -10.27320 -10.27287 -10.27208 -10.27172 -10.27166
 Alpha  occ. eigenvalues --  -10.26950 -10.26825 -10.26523 -10.26488 -10.26483
 Alpha  occ. eigenvalues --  -10.26480 -10.26354 -10.26274 -10.26102 -10.25964
 Alpha  occ. eigenvalues --  -10.25729 -10.25721 -10.25680 -10.25598 -10.25223
 Alpha  occ. eigenvalues --  -10.25219 -10.25155 -10.25125 -10.24573 -10.24562
 Alpha  occ. eigenvalues --  -10.24422  -3.16826  -3.16145  -1.91707  -1.91298
 Alpha  occ. eigenvalues --   -1.91141  -1.91028  -1.90616  -1.90453  -1.17023
 Alpha  occ. eigenvalues --   -1.15434  -1.09039  -1.08198  -1.07627  -1.07157
 Alpha  occ. eigenvalues --   -1.06767  -1.05912  -1.04923  -1.04219  -1.04110
 Alpha  occ. eigenvalues --   -1.03593  -1.03397  -1.02775  -1.02766  -1.01839
 Alpha  occ. eigenvalues --   -0.92351  -0.91618  -0.89874  -0.89471  -0.89235
 Alpha  occ. eigenvalues --   -0.88881  -0.88633  -0.88197  -0.88001  -0.87987
 Alpha  occ. eigenvalues --   -0.87649  -0.87524  -0.87427  -0.86898  -0.85283
 Alpha  occ. eigenvalues --   -0.84744  -0.84286  -0.83608  -0.83350  -0.82968
 Alpha  occ. eigenvalues --   -0.82726  -0.82340  -0.81900  -0.80945  -0.80935
 Alpha  occ. eigenvalues --   -0.79808  -0.79156  -0.78385  -0.77542  -0.77226
 Alpha  occ. eigenvalues --   -0.76919  -0.76480  -0.76225  -0.75286  -0.75226
 Alpha  occ. eigenvalues --   -0.74377  -0.73116  -0.72429  -0.72001  -0.71235
 Alpha  occ. eigenvalues --   -0.70264  -0.69535  -0.69188  -0.68575  -0.67995
 Alpha  occ. eigenvalues --   -0.67519  -0.67282  -0.67037  -0.65595  -0.65191
 Alpha  occ. eigenvalues --   -0.64967  -0.64944  -0.64620  -0.64478  -0.64135
 Alpha  occ. eigenvalues --   -0.63836  -0.62630  -0.61354  -0.60808  -0.60109
 Alpha  occ. eigenvalues --   -0.60102  -0.59516  -0.59335  -0.58860  -0.58671
 Alpha  occ. eigenvalues --   -0.58055  -0.57968  -0.57676  -0.57082  -0.56758
 Alpha  occ. eigenvalues --   -0.56652  -0.56289  -0.55920  -0.55865  -0.55690
 Alpha  occ. eigenvalues --   -0.55335  -0.55000  -0.54887  -0.54692  -0.54187
 Alpha  occ. eigenvalues --   -0.53846  -0.53655  -0.53623  -0.53560  -0.53290
 Alpha  occ. eigenvalues --   -0.53104  -0.52876  -0.52839  -0.52798  -0.52418
 Alpha  occ. eigenvalues --   -0.52384  -0.52241  -0.52009  -0.51920  -0.51577
 Alpha  occ. eigenvalues --   -0.51534  -0.51334  -0.50947  -0.50743  -0.50372
 Alpha  occ. eigenvalues --   -0.50285  -0.50268  -0.49851  -0.49740  -0.49638
 Alpha  occ. eigenvalues --   -0.49571  -0.49392  -0.49230  -0.48927  -0.48841
 Alpha  occ. eigenvalues --   -0.48823  -0.48812  -0.48796  -0.48160  -0.48057
 Alpha  occ. eigenvalues --   -0.48030  -0.47951  -0.47634  -0.47254  -0.47133
 Alpha  occ. eigenvalues --   -0.46880  -0.46762  -0.46697  -0.46515  -0.46398
 Alpha  occ. eigenvalues --   -0.46302  -0.46128  -0.45985  -0.45647  -0.45539
 Alpha  occ. eigenvalues --   -0.45237  -0.44937  -0.44909  -0.44850  -0.44501
 Alpha  occ. eigenvalues --   -0.44392  -0.44361  -0.44271  -0.44058  -0.43859
 Alpha  occ. eigenvalues --   -0.43805  -0.43798  -0.43695  -0.43539  -0.43370
 Alpha  occ. eigenvalues --   -0.43145  -0.43060  -0.43001  -0.42725  -0.42567
 Alpha  occ. eigenvalues --   -0.42355  -0.42331  -0.42063  -0.41826  -0.41765
 Alpha  occ. eigenvalues --   -0.41501  -0.41452  -0.41287  -0.41218  -0.41188
 Alpha  occ. eigenvalues --   -0.41166  -0.40905  -0.40676  -0.40536  -0.40517
 Alpha  occ. eigenvalues --   -0.40430  -0.40212  -0.40054  -0.39801  -0.39227
 Alpha  occ. eigenvalues --   -0.38790  -0.38138  -0.38018  -0.37685  -0.37565
 Alpha  occ. eigenvalues --   -0.37367  -0.37111  -0.37016  -0.36914  -0.36557
 Alpha  occ. eigenvalues --   -0.36168  -0.35423  -0.34615  -0.34285  -0.33970
 Alpha  occ. eigenvalues --   -0.33556  -0.33096  -0.32732  -0.31749  -0.31403
 Alpha  occ. eigenvalues --   -0.31065  -0.30662  -0.30421  -0.29823  -0.29684
 Alpha  occ. eigenvalues --   -0.29519  -0.29075  -0.28917  -0.24439  -0.23745
 Alpha  occ. eigenvalues --   -0.21490  -0.20856
 Alpha virt. eigenvalues --   -0.09147  -0.08518  -0.02114  -0.01428  -0.00444
 Alpha virt. eigenvalues --    0.00223   0.01787   0.02516   0.03051   0.03494
 Alpha virt. eigenvalues --    0.04363   0.04593   0.05215   0.05930   0.06037

 Mulliken charges:
               1
     1  Mg   0.802460
     2  C   -0.003974
     3  C   -0.091647
     4  C   -0.045007
     5  C   -0.062256
     6  N   -0.251790
     7  C   -0.056713
     8  C   -0.013401
     9  C   -0.087286
    10  C    0.046847
    11  C    0.104665
    12  C    0.051842
    13  C   -0.073073
    14  H    0.039256
    15  N   -0.431890
    16  C    0.167746
    17  C   -0.177533
    18  C   -0.005153
    19  C    0.147599
    20  C    0.110268
    21  C    0.010567
    22  O   -0.249727
    23  C    0.063028
    24  N   -0.335569
    25  C    0.039941
    26  C   -0.028236
    27  C   -0.024006
    28  C    0.072856
    29  C    0.076041
    30  C    0.035103
    31  C   -0.005915
    32  N   -0.306015
    33  C    0.080516
    34  C   -0.170676
    35  C    0.005273
    36  C    0.075859
    37  C    0.129456
    38  C    0.040744
    39  O   -0.186465
    40  C   -0.004402
    41  C    0.216825
    42  O   -0.259231
    43  O   -0.303601
    44  C    0.155389
    45  H   -0.017507
    46  H   -0.017288
    47  H   -0.041266
    48  H    0.001501
    49  H   -0.003362
    50  H    0.025881
    51  H    0.016697
    52  H    0.017469
    53  H    0.011547
    54  H    0.044632
    55  H    0.018115
    56  H    0.018259
    57  H    0.006825
    58  H    0.027560
    59  H    0.038920
    60  H    0.038616
    61  H    0.035662
    62  H    0.029813
    63  H    0.015541
    64  H    0.010537
    65  H    0.023554
    66  H    0.013032
    67  H    0.005672
    68  H    0.007318
    69  H    0.006768
    70  H    0.007713
    71  H    0.019949
    72  H    0.026441
    73  H    0.047385
    74  H    0.010667
    75  H    0.046829
    76  H    0.037035
    77  H    0.044802
    78  H    0.047557
    79  H    0.057645
    80  Mg   0.837094
    81  C   -0.015333
    82  C   -0.088330
    83  C   -0.046138
    84  C   -0.065831
    85  N   -0.254170
    86  C   -0.049488
    87  C   -0.019678
    88  C   -0.091022
    89  C    0.044990
    90  C    0.113580
    91  C    0.092405
    92  C   -0.157356
    93  H    0.078810
    94  N   -0.423354
    95  C    0.162282
    96  C   -0.175076
    97  C   -0.008575
    98  C    0.151939
    99  C    0.099476
   100  C    0.015054
   101  O   -0.253912
   102  C    0.061476
   103  N   -0.350287
   104  C    0.037300
   105  C   -0.019580
   106  C   -0.034836
   107  C    0.089349
   108  C    0.073900
   109  C    0.034889
   110  C   -0.007567
   111  N   -0.324262
   112  C    0.078940
   113  C   -0.163618
   114  C    0.002866
   115  C    0.095841
   116  C    0.131492
   117  C    0.042080
   118  O   -0.185934
   119  C    0.002280
   120  C    0.210663
   121  O   -0.250577
   122  O   -0.311333
   123  C    0.148416
   124  H   -0.019383
   125  H   -0.016402
   126  H   -0.041000
   127  H    0.001601
   128  H   -0.003977
   129  H    0.021972
   130  H    0.013707
   131  H    0.018507
   132  H    0.008776
   133  H    0.042320
   134  H    0.041350
   135  H    0.036317
   136  H    0.008477
   137  H    0.025684
   138  H    0.037934
   139  H    0.037980
   140  H    0.035587
   141  H    0.033066
   142  H    0.013858
   143  H    0.012029
   144  H    0.024515
   145  H    0.011550
   146  H    0.005199
   147  H    0.005711
   148  H    0.003482
   149  H    0.010568
   150  H    0.017529
   151  H    0.030523
   152  H    0.046471
   153  H    0.007872
   154  H    0.046506
   155  H    0.033107
   156  H    0.042541
   157  H    0.055652
   158  H    0.062268
 Sum of Mulliken charges =  -0.00000

 Dipole moment (field-independent basis, Debye):
    X=              3.7933    Y=              6.8756    Z=             -1.9801  Tot=              8.0984
 Quadrupole moment (field-independent basis, Debye-Ang):
   XX=           -487.8188   YY=           -547.9167   ZZ=           -473.4250
   XY=             27.6907   XZ=            -26.5544   YZ=             -9.1633

 Normal termination of Gaussian 16 at Fri Sep 10 18:25:53 2021.
