 Gaussian 16, Revision A.03,
 Gaussian 16:  ES64L-G16RevA.03 25-Dec-2016

 -----------------------------------
 #p cam-b3lyp/Def2SVP td=(nstates=5)
 -----------------------------------

 --------------------------------
 TDDFT excited states in gaussian
 --------------------------------
 Symbolic Z-matrix:
 Charge =  0 Multiplicity = 1

                         Standard orientation:
 ---------------------------------------------------------------------
 Center     Atomic      Atomic             Coordinates (Angstroms)
 Number     Number       Type             X           Y           Z
 ---------------------------------------------------------------------
      1         12           0       -4.319717    0.709567    0.798820
      2          6           0       -5.114253   -2.049356   -1.338765
      3          6           0       -4.726785   -1.412017    3.440077
      4          6           0       -4.069538    3.222950    2.716354
      5          6           0       -5.085027    2.810421   -1.874451
      6          7           0       -4.851397   -1.436571    0.908613
      7          6           0       -5.072007   -2.394662    0.013871
      8          6           0       -5.179316   -3.815549    0.643904
      9          6           0       -5.608371   -3.403287    2.123076
     10          6           0       -4.996167   -2.014622    2.175431
     11          6           0       -7.117515   -3.282061    2.308254
     12          6           0       -3.809904   -4.574735    0.635208
     13          6           0       -3.892957   -6.075518    0.928649
     14          1           0       -2.980395   -6.975355    0.239539
     15          7           0       -3.911714    0.812847    2.729031
     16          6           0       -4.127852   -0.151911    3.655213
     17          6           0       -3.657975    0.405567    4.941725
     18          6           0       -3.327006    1.840914    4.721880
     19          6           0       -3.786920    2.025428    3.369174
     20          6           0       -3.515548   -0.411082    6.189343
     21          6           0       -2.705907    2.883888    5.596278
     22          8           0       -2.720883    4.125105    5.290123
     23          6           0       -2.150091    2.418955    6.880002
     24          7           0       -4.752969    2.736090    0.547556
     25          6           0       -4.496883    3.621792    1.516543
     26          6           0       -4.620259    5.030210    1.015466
     27          6           0       -4.778273    4.923147   -0.569880
     28          6           0       -4.801116    3.380250   -0.701098
     29          6           0       -5.786676    5.845442    1.590688
     30          6           0       -3.769302    5.721903   -1.432658
     31          6           0       -2.383281    5.138109   -1.273822
     32          7           0       -4.811809    0.458074   -1.300142
     33          6           0       -5.115299    1.470245   -2.222138
     34          6           0       -5.486815    0.806692   -3.485365
     35          6           0       -5.389021   -0.554553   -3.203775
     36          6           0       -5.007634   -0.730504   -1.842938
     37          6           0       -5.910511    1.459587   -4.676434
     38          6           0       -5.541899   -1.901618   -3.729038
     39          8           0       -5.756612   -2.378240   -4.844485
     40          6           0       -5.488582   -2.924061   -2.509369
     41          6           0       -4.546010   -4.033941   -2.887566
     42          8           0       -3.325344   -3.816286   -3.028872
     43          8           0       -5.183408   -5.210769   -2.790922
     44          6           0       -4.295693   -6.356607   -3.124346
     45          1           0       -5.056011   -1.920965    4.348110
     46          1           0       -3.888180    4.120230    3.311699
     47          1           0       -5.253981    3.402336   -2.775863
     48          1           0       -5.943098   -4.453540    0.198899
     49          1           0       -5.151208   -4.047509    2.873875
     50          1           0       -7.644059   -3.373208    1.358325
     51          1           0       -7.279359   -2.294174    2.739971
     52          1           0       -7.475235   -3.995823    3.050788
     53          1           0       -3.214299   -4.251457    1.488910
     54          1           0       -3.289322   -4.420580   -0.310602
     55          1           0       -4.917856   -6.440106    0.854040
     56          1           0       -3.624148   -6.234724    1.972964
     57          1           0       -3.990429   -1.385971    6.086264
     58          1           0       -4.091931    0.091053    6.966100
     59          1           0       -2.475765   -0.501960    6.503866
     60          1           0       -2.940018    1.946287    7.464083
     61          1           0       -1.668901    3.286075    7.331011
     62          1           0       -1.408468    1.644089    6.683720
     63          1           0       -3.726078    5.607439    1.247141
     64          1           0       -5.753556    5.273797   -0.908317
     65          1           0       -5.476647    6.771804    2.074879
     66          1           0       -6.335088    5.207000    2.282733
     67          1           0       -6.563471    6.102438    0.870994
     68          1           0       -3.721286    6.757727   -1.098428
     69          1           0       -4.019678    5.727006   -2.493571
     70          1           0       -2.022536    5.612144   -0.361690
     71          1           0       -1.757967    5.405375   -2.126326
     72          1           0       -2.422313    4.064332   -1.089524
     73          1           0       -5.396382    0.960099   -5.497501
     74          1           0       -5.674953    2.523272   -4.650179
     75          1           0       -6.982912    1.268393   -4.640974
     76          1           0       -6.505559   -3.284478   -2.357781
     77          1           0       -4.781990   -6.917780   -3.922366
     78          1           0       -4.097344   -6.877742   -2.187607
     79          1           0       -3.344973   -6.108114   -3.597337
     80         12           0        4.467866    0.339597   -1.124719
     81          6           0        4.780174   -1.868381    1.687102
     82          6           0        4.168744    2.900005    1.108992
     83          6           0        3.741196    2.244136   -3.556198
     84          6           0        3.652708   -2.449999   -3.048100
     85          7           0        4.488374    0.384008    1.086589
     86          6           0        4.675526   -0.508635    2.047055
     87          6           0        4.835376    0.098180    3.466842
     88          6           0        4.062606    1.484814    3.224105
     89          6           0        4.278563    1.624710    1.718626
     90          6           0        2.568379    1.394900    3.485954
     91          6           0        6.338320    0.337419    3.848876
     92          6           0        6.585851    0.636436    5.329103
     93          1           0        7.808229    0.129569    5.946647
     94          7           0        4.505629    2.319105   -1.261349
     95          6           0        4.393588    3.206789   -0.251033
     96          6           0        4.461426    4.537258   -0.875074
     97          6           0        4.457078    4.362934   -2.353015
     98          6           0        4.208041    2.938594   -2.449711
     99          6           0        4.602107    5.802736   -0.079975
    100          6           0        4.633481    5.321890   -3.491201
    101          8           0        4.355260    4.992733   -4.698289
    102          6           0        5.052453    6.686594   -3.139709
    103          7           0        3.589913   -0.010498   -2.976465
    104          6           0        3.436719    0.984234   -3.868070
    105          6           0        3.040163    0.446612   -5.222359
    106          6           0        3.195020   -1.141576   -5.116286
    107          6           0        3.585758   -1.258801   -3.626660
    108          6           0        1.624625    0.789834   -5.685881
    109          6           0        4.098402   -1.832812   -6.174007
    110          6           0        5.539265   -1.424136   -5.968372
    111          7           0        4.427121   -1.799463   -0.823318
    112          6           0        4.029504   -2.784536   -1.753685
    113          6           0        4.062399   -4.084328   -1.052332
    114          6           0        4.457822   -3.759854    0.254122
    115          6           0        4.637749   -2.354559    0.364950
    116          6           0        3.705805   -5.342339   -1.614796
    117          6           0        4.753640   -4.285409    1.567509
    118          8           0        4.854484   -5.412904    2.049511
    119          6           0        4.853040   -3.070367    2.587410
    120          6           0        6.098727   -3.255126    3.409990
    121          8           0        7.221547   -3.196653    2.878526
    122          8           0        5.769599   -3.253031    4.714615
    123          6           0        6.973436   -3.422299    5.571320
    124          1           0        3.838133    3.740403    1.719985
    125          1           0        3.581388    2.843016   -4.455802
    126          1           0        3.506893   -3.378286   -3.604607
    127          1           0        4.352478   -0.463099    4.257755
    128          1           0        4.542182    2.302592    3.755719
    129          1           0        2.253483    0.380086    3.678639
    130          1           0        2.089849    1.776543    2.593539
    131          1           0        2.285670    2.075566    4.294091
    132          1           0        6.673616    1.284657    3.407222
    133          1           0        6.946226   -0.491004    3.540994
    134          1           0        5.713810    0.396498    5.949524
    135          1           0        6.711359    1.715286    5.448923
    136          1           0        4.410852    5.631092    0.986500
    137          1           0        3.793975    6.470903   -0.396743
    138          1           0        5.559143    6.301365   -0.247671
    139          1           0        4.323366    7.125046   -2.462480
    140          1           0        5.211393    7.197699   -4.091226
    141          1           0        5.998921    6.631431   -2.590377
    142          1           0        3.705450    0.813794   -5.994153
    143          1           0        2.228098   -1.653664   -5.228768
    144          1           0        1.599549    1.317127   -6.658190
    145          1           0        1.148981    1.385337   -4.917977
    146          1           0        0.948358   -0.058961   -5.772029
    147          1           0        3.823246   -1.504896   -7.179448
    148          1           0        4.030716   -2.915480   -6.158565
    149          1           0        5.600334   -0.464210   -6.489818
    150          1           0        6.211967   -2.156650   -6.409888
    151          1           0        5.747979   -1.237410   -4.908541
    152          1           0        4.455137   -6.052082   -1.290341
    153          1           0        3.649314   -5.290933   -2.700130
    154          1           0        2.722798   -5.488155   -1.159047
    155          1           0        3.951520   -3.083240    3.201145
    156          1           0        6.787521   -4.286571    6.216428
    157          1           0        7.125838   -2.446002    6.068685
    158          1           0        7.896888   -3.715530    5.085820
 ---------------------------------------------------------------------

 SCF Done:  E(RCAM-B3LYP) =  -4069.81232116     A.U. after   19 cycles

 Excitation energies and oscillator strengths:

 Excited State   1:      Singlet-A      1.6710 eV  741.99 nm  f=0.3432  <S**2>=0.000
     310 -> 316       -0.17194
     312 -> 314        0.68320
     310 <- 316       -0.10407
 This state for optimization and/or second-order correction.
 Total Energy, E(TD-HF/TD-DFT) =  -4069.75091392
 Copying the excited state density for this state as the 1-particle RhoCI density.

 Excited State   2:      Singlet-A      1.6750 eV  740.22 nm  f=0.3277  <S**2>=0.000
     309 -> 315       -0.17280
     311 -> 313        0.68281
     309 <- 315       -0.10388

 Excited State   3:      Singlet-A      2.1838 eV  567.74 nm  f=0.1000  <S**2>=0.000
     309 -> 313        0.11808
     310 -> 314        0.63188
     312 -> 316        0.26706

 Excited State   4:      Singlet-A      2.1907 eV  565.96 nm  f=0.0978  <S**2>=0.000
     309 -> 313        0.63000
     310 -> 314       -0.11761
     311 -> 315        0.27175

 Excited State   5:      Singlet-A      2.3477 eV  528.12 nm  f=0.0000  <S**2>=0.000
     312 -> 313        0.70706

 The electronic state is 1-A.
 Alpha  occ. eigenvalues --  -46.87909 -46.87454 -19.26379 -19.26318 -19.19134
 Alpha  occ. eigenvalues --  -19.19099 -19.19018 -19.18554 -19.18292 -19.17928
 Alpha  occ. eigenvalues --  -14.42552 -14.42303 -14.41563 -14.41126 -14.39525
 Alpha  occ. eigenvalues --  -14.39153 -14.38700 -14.38398 -10.39190 -10.39025
 Alpha  occ. eigenvalues --  -10.35655 -10.35235 -10.34509 -10.34108 -10.31758
 Alpha  occ. eigenvalues --  -10.31755 -10.31494 -10.31124 -10.31013 -10.30855
 Alpha  occ. eigenvalues --  -10.30676 -10.30634 -10.30329 -10.30192 -10.30163
 Alpha  occ. eigenvalues --  -10.30039 -10.29881 -10.29758 -10.29649 -10.29379
 Alpha  occ. eigenvalues --  -10.29223 -10.29208 -10.28800 -10.28611 -10.28607
 Alpha  occ. eigenvalues --  -10.28500 -10.28484 -10.28225 -10.28170 -10.28005
 Alpha  occ. eigenvalues --  -10.27916 -10.27827 -10.27816 -10.27720 -10.27614
 Alpha  occ. eigenvalues --  -10.27606 -10.27580 -10.27513 -10.27465 -10.27300
 Alpha  occ. eigenvalues --  -10.27293 -10.27279 -10.27265 -10.27152 -10.27038
 Alpha  occ. eigenvalues --  -10.26948 -10.26717 -10.26660 -10.26605 -10.26289
 Alpha  occ. eigenvalues --  -10.26286 -10.26284 -10.26129 -10.25947 -10.25903
 Alpha  occ. eigenvalues --  -10.25820 -10.25681 -10.25642 -10.25562 -10.24957
 Alpha  occ. eigenvalues --  -10.24954 -10.24914 -10.24783 -10.24693 -10.24474
 Alpha  occ. eigenvalues --  -10.24468  -3.16652  -3.16204  -1.91533  -1.91120
 Alpha  occ. eigenvalues --   -1.91086  -1.90962  -1.90674  -1.90512  -1.16731
 Alpha  occ. eigenvalues --   -1.16604  -1.08748  -1.08546  -1.07426  -1.06885
 Alpha  occ. eigenvalues --   -1.06809  -1.06754  -1.04684  -1.04309  -1.03874
 Alpha  occ. eigenvalues --   -1.03457  -1.03353  -1.02815  -1.02527  -1.01899
 Alpha  occ. eigenvalues --   -0.92083  -0.91817  -0.89633  -0.89246  -0.89245
 Alpha  occ. eigenvalues --   -0.89010  -0.88403  -0.87982  -0.87939  -0.87768
 Alpha  occ. eigenvalues --   -0.87599  -0.87481  -0.87424  -0.86944  -0.85057
 Alpha  occ. eigenvalues --   -0.84849  -0.84051  -0.83606  -0.83142  -0.82745
 Alpha  occ. eigenvalues --   -0.82743  -0.82498  -0.81684  -0.81469  -0.80709
 Alpha  occ. eigenvalues --   -0.80288  -0.78927  -0.78449  -0.77317  -0.77009
 Alpha  occ. eigenvalues --   -0.76974  -0.76721  -0.76008  -0.75695  -0.75009
 Alpha  occ. eigenvalues --   -0.74530  -0.72884  -0.72494  -0.71775  -0.71370
 Alpha  occ. eigenvalues --   -0.70015  -0.69470  -0.68963  -0.68675  -0.67766
 Alpha  occ. eigenvalues --   -0.67418  -0.67296  -0.67069  -0.65361  -0.65132
 Alpha  occ. eigenvalues --   -0.64960  -0.64718  -0.64585  -0.64487  -0.64382
 Alpha  occ. eigenvalues --   -0.63946  -0.62400  -0.62144  -0.60583  -0.60136
 Alpha  occ. eigenvalues --   -0.59884  -0.59645  -0.59097  -0.58790  -0.58617
 Alpha  occ. eigenvalues --   -0.58239  -0.57695  -0.57435  -0.57433  -0.57023
 Alpha  occ. eigenvalues --   -0.56428  -0.56070  -0.56032  -0.55775  -0.55655
 Alpha  occ. eigenvalues --   -0.55451  -0.55313  -0.55030  -0.54631  -0.54278
 Alpha  occ. eigenvalues --   -0.53958  -0.53778  -0.53435  -0.53328  -0.53041
 Alpha  occ. eigenvalues --   -0.53031  -0.52987  -0.52883  -0.52756  -0.52548
 Alpha  occ. eigenvalues --   -0.52522  -0.52132  -0.52026  -0.51706  -0.51688
 Alpha  occ. eigenvalues --   -0.51528  -0.51298  -0.51029  -0.50739  -0.50302
 Alpha  occ. eigenvalues --   -0.50143  -0.50061  -0.49820  -0.49624  -0.49594
 Alpha  occ. eigenvalues --   -0.49335  -0.49333  -0.49172  -0.49059  -0.48958
 Alpha  occ. eigenvalues --   -0.48692  -0.48616  -0.48569  -0.48417  -0.48193
 Alpha  occ. eigenvalues --   -0.48102  -0.47804  -0.47417  -0.47416  -0.46911
 Alpha  occ. eigenvalues --   -0.46897  -0.46626  -0.46512  -0.46473  -0.46389
 Alpha  occ. eigenvalues --   -0.46273  -0.46066  -0.45917  -0.45859  -0.45668
 Alpha  occ. eigenvalues --   -0.45317  -0.44934  -0.44692  -0.44626  -0.44371
 Alpha  occ. eigenvalues --   -0.44305  -0.44263  -0.44163  -0.44138  -0.43978
 Alpha  occ. eigenvalues --   -0.43869  -0.43796  -0.43600  -0.43476  -0.43422
 Alpha  occ. eigenvalues --   -0.43206  -0.43133  -0.42830  -0.42810  -0.42760
 Alpha  occ. eigenvalues --   -0.42707  -0.42306  -0.42105  -0.41816  -0.41760
 Alpha  occ. eigenvalues --   -0.41602  -0.41495  -0.41289  -0.41241  -0.41005
 Alpha  occ. eigenvalues --   -0.40934  -0.40800  -0.40673  -0.40578  -0.40535
 Alpha  occ. eigenvalues --   -0.40271  -0.40227  -0.40121  -0.39548  -0.39136
 Alpha  occ. eigenvalues --   -0.38571  -0.38087  -0.37802  -0.37525  -0.37429
 Alpha  occ. eigenvalues --   -0.37336  -0.37055  -0.37004  -0.36819  -0.36669
 Alpha  occ. eigenvalues --   -0.36296  -0.35995  -0.34397  -0.34055  -0.33887
 Alpha  occ. eigenvalues --   -0.33772  -0.33302  -0.32967  -0.31546  -0.31151
 Alpha  occ. eigenvalues --   -0.31110  -0.30776  -0.30148  -0.29837  -0.29587
 Alpha  occ. eigenvalues --   -0.29443  -0.29144  -0.29027  -0.24192  -0.23828
 Alpha  occ. eigenvalues --   -0.21241  -0.20909
 Alpha virt. eigenvalues --   -0.08898  -0.08596  -0.01872  -0.01468  -0.00205
 Alpha virt. eigenvalues --    0.00136   0.02074   0.02375   0.02843   0.03486
 Alpha virt. eigenvalues --    0.04639   0.04916   0.04990   0.05240   0.06146

 Mulliken charges:
               1
     1  Mg   0.838960
     2  C   -0.002935
     3  C   -0.093480
     4  C   -0.046557
     5  C   -0.063801
     6  N   -0.256889
     7  C   -0.051946
     8  C   -0.014166
     9  C   -0.087078
    10  C    0.046382
    11  C    0.104727
    12  C    0.053237
    13  C   -0.072454
    14  H    0.037398
    15  N   -0.433044
    16  C    0.168140
    17  C   -0.177201
    18  C   -0.004689
    19  C    0.148524
    20  C    0.110057
    21  C    0.010842
    22  O   -0.250700
    23  C    0.062695
    24  N   -0.341219
    25  C    0.041488
    26  C   -0.027980
    27  C   -0.024004
    28  C    0.075027
    29  C    0.076191
    30  C    0.035109
    31  C   -0.004585
    32  N   -0.310541
    33  C    0.080671
    34  C   -0.169730
    35  C    0.008165
    36  C    0.083066
    37  C    0.127378
    38  C    0.045776
    39  O   -0.188430
    40  C   -0.005198
    41  C    0.213024
    42  O   -0.257957
    43  O   -0.304489
    44  C    0.157864
    45  H   -0.017175
    46  H   -0.017557
    47  H   -0.041097
    48  H    0.001080
    49  H   -0.003233
    50  H    0.025465
    51  H    0.016242
    52  H    0.017119
    53  H    0.012022
    54  H    0.043666
    55  H    0.017635
    56  H    0.019136
    57  H    0.006795
    58  H    0.026879
    59  H    0.038978
    60  H    0.038461
    61  H    0.034364
    62  H    0.030264
    63  H    0.015431
    64  H    0.009720
    65  H    0.022763
    66  H    0.012714
    67  H    0.005086
    68  H    0.005897
    69  H    0.005582
    70  H    0.006383
    71  H    0.020532
    72  H    0.029240
    73  H    0.047320
    74  H    0.009622
    75  H    0.046295
    76  H    0.035544
    77  H    0.043117
    78  H    0.047283
    79  H    0.052696
    80  Mg   0.838005
    81  C   -0.017365
    82  C   -0.088319
    83  C   -0.045644
    84  C   -0.061045
    85  N   -0.254594
    86  C   -0.050109
    87  C   -0.015004
    88  C   -0.090426
    89  C    0.045287
    90  C    0.114084
    91  C    0.062670
    92  C   -0.077457
    93  H    0.034297
    94  N   -0.423487
    95  C    0.162810
    96  C   -0.174704
    97  C   -0.008193
    98  C    0.152291
    99  C    0.099454
   100  C    0.015022
   101  O   -0.253380
   102  C    0.061357
   103  N   -0.350023
   104  C    0.038375
   105  C   -0.020576
   106  C   -0.035655
   107  C    0.089030
   108  C    0.072264
   109  C    0.034522
   110  C   -0.007509
   111  N   -0.324182
   112  C    0.078094
   113  C   -0.162257
   114  C    0.001492
   115  C    0.096564
   116  C    0.131852
   117  C    0.041856
   118  O   -0.189507
   119  C    0.001103
   120  C    0.211148
   121  O   -0.250859
   122  O   -0.306193
   123  C    0.152124
   124  H   -0.018823
   125  H   -0.015647
   126  H   -0.038956
   127  H   -0.002465
   128  H   -0.004364
   129  H    0.020137
   130  H    0.016379
   131  H    0.016580
   132  H    0.014213
   133  H    0.037538
   134  H    0.019605
   135  H    0.019815
   136  H    0.009204
   137  H    0.025723
   138  H    0.039229
   139  H    0.037779
   140  H    0.035869
   141  H    0.033842
   142  H    0.013495
   143  H    0.018095
   144  H    0.023686
   145  H    0.011344
   146  H    0.012144
   147  H    0.006634
   148  H    0.003912
   149  H    0.010501
   150  H    0.017156
   151  H    0.029383
   152  H    0.044732
   153  H    0.009222
   154  H    0.047630
   155  H    0.033227
   156  H    0.043044
   157  H    0.049330
   158  H    0.053675
 Sum of Mulliken charges =  -0.00000

 Dipole moment (field-independent basis, Debye):
    X=             -2.9550    Y=              2.5022    Z=              5.4663  Tot=              6.6988
 Quadrupole moment (field-independent basis, Debye-Ang):
   XX=           -520.6262   YY=           -499.5701   ZZ=           -499.2874
   XY=             28.3764   XZ=             -9.3528   YZ=             -2.3339

 Normal termination of Gaussian 16 at Thu Sep  9 22:52:27 2021.
