 Gaussian 16, Revision A.03,
 Gaussian 16:  ES64L-G16RevA.03 25-Dec-2016

 -----------------------------------
 #p cam-b3lyp/Def2SVP td=(nstates=5)
 -----------------------------------

 --------------------------------
 TDDFT excited states in gaussian
 --------------------------------
 Symbolic Z-matrix:
 Charge =  0 Multiplicity = 1

                         Standard orientation:
 ---------------------------------------------------------------------
 Center     Atomic      Atomic             Coordinates (Angstroms)
 Number     Number       Type             X           Y           Z
 ---------------------------------------------------------------------
      1         12           0       16.145414    0.508947    0.473203
      2          6           0       16.365414   -2.620026   -1.251136
      3          6           0       17.065252    2.013738   -2.447853
      4          6           0       16.400053    3.230083    2.081680
      5          6           0       16.360599   -1.286078    3.452672
      6          7           0       16.625104   -0.306767   -1.528086
      7          6           0       16.613821   -1.518947   -2.073671
      8          6           0       16.816388   -1.503122   -3.618368
      9          6           0       17.574403   -0.107501   -3.758562
     10          6           0       17.029963    0.589678   -2.524280
     11          6           0       19.089953   -0.221695   -3.629847
     12          6           0       15.457448   -1.497638   -4.396175
     13          6           0       15.559453   -1.810081   -5.891946
     14          1           0       14.490931   -2.569849   -6.523104
     15          7           0       16.178429    2.377524   -0.167251
     16          6           0       16.566050    2.807030   -1.392225
     17          6           0       16.409437    4.277378   -1.376989
     18          6           0       16.080177    4.685479    0.016975
     19          6           0       16.234148    3.434063    0.713845
     20          6           0       16.523122    5.129711   -2.603510
     21          6           0       15.699079    5.997572    0.626326
     22          8           0       15.682203    6.180605    1.891549
     23          6           0       15.428135    7.102986   -0.310525
     24          7           0       16.571400    0.943678    2.469995
     25          6           0       16.562433    2.203555    2.919009
     26          6           0       16.612924    2.249549    4.417433
     27          6           0       16.412544    0.744850    4.912894
     28          6           0       16.360538    0.046526    3.531623
     29          6           0       17.901168    2.820099    5.026459
     30          6           0       15.261331    0.482212    5.915963
     31          6           0       13.928460    0.707830    5.237987
     32          7           0       16.152631   -1.585334    1.043272
     33          6           0       16.273810   -2.105806    2.339844
     34          6           0       16.336601   -3.573391    2.212096
     35          6           0       16.263795   -3.805405    0.839976
     36          6           0       16.188418   -2.560448    0.152450
     37          6           0       16.504804   -4.496566    3.281624
     38          6           0       16.256965   -4.814468   -0.206734
     39          8           0       16.205138   -6.045115   -0.224519
     40          6           0       16.445284   -4.083324   -1.608800
     41          6           0       15.410245   -4.634306   -2.551362
     42          8           0       14.195523   -4.416641   -2.365785
     43          8           0       16.018460   -5.123536   -3.642815
     44          6           0       15.045758   -5.659382   -4.632196
     45          1           0       17.572431    2.572262   -3.237005
     46          1           0       16.381477    4.140934    2.683713
     47          1           0       16.342895   -1.915482    4.344295
     48          1           0       17.443561   -2.307676   -4.002776
     49          1           0       17.276284    0.428846   -4.659217
     50          1           0       19.390034   -1.226787   -3.333766
     51          1           0       19.372296    0.501017   -2.864039
     52          1           0       19.582237    0.104994   -4.546202
     53          1           0       15.075531   -0.477937   -4.445267
     54          1           0       14.744989   -2.181073   -3.932877
     55          1           0       16.531217   -2.234992   -6.144999
     56          1           0       15.524167   -0.868867   -6.440645
     57          1           0       16.934594    4.570662   -3.442975
     58          1           0       17.271739    5.893092   -2.392486
     59          1           0       15.576666    5.604608   -2.862404
     60          1           0       16.313647    7.283033   -0.920443
     61          1           0       15.084447    7.937211    0.300046
     62          1           0       14.639082    6.797538   -0.998309
     63          1           0       15.809602    2.867160    4.817004
     64          1           0       17.298443    0.359132    5.417946
     65          1           0       17.733400    3.669318    5.689321
     66          1           0       18.570341    3.088044    4.209326
     67          1           0       18.506382    2.098373    5.574404
     68          1           0       15.318927    1.180215    6.750481
     69          1           0       15.270459   -0.527419    6.326830
     70          1           0       13.792825    1.785632    5.320314
     71          1           0       13.137906    0.173403    5.765835
     72          1           0       13.975884    0.465547    4.176132
     73          1           0       15.807126   -5.312414    3.092925
     74          1           0       16.312180   -4.025526    4.245273
     75          1           0       17.552334   -4.767811    3.151383
     76          1           0       17.459565   -4.300847   -1.942025
     77          1           0       15.326499   -6.693842   -4.830468
     78          1           0       15.044710   -4.965363   -5.472874
     79          1           0       14.021566   -5.787937   -4.280282
     80         12           0      -15.609583    0.584037    0.029954
     81          6           0      -18.153509   -1.937370    0.253616
     82          6           0      -17.831654    2.455628   -1.757252
     83          6           0      -13.255740    2.625271   -0.570193
     84          6           0      -13.283148   -1.890990    0.809489
     85          7           0      -17.693503    0.200644   -0.604496
     86          6           0      -18.577184   -0.766391   -0.408775
     87          6           0      -20.016160   -0.428325   -0.882710
     88          6           0      -19.652474    0.688257   -1.978084
     89          6           0      -18.326250    1.176210   -1.398683
     90          6           0      -19.387294    0.112526   -3.359220
     91          6           0      -20.901234    0.164171    0.269516
     92          6           0      -22.398886    0.228379   -0.038169
     93          1           0      -23.343738   -0.005714    1.050371
     94          7           0      -15.670954    2.473538   -0.573828
     95          6           0      -16.659685    3.073977   -1.268932
     96          6           0      -16.216279    4.460190   -1.483325
     97          6           0      -14.813707    4.583891   -1.001449
     98          6           0      -14.512106    3.196914   -0.709194
     99          6           0      -17.121997    5.530513   -2.019539
    100          6           0      -13.891645    5.754802   -0.843446
    101          8           0      -12.637031    5.600109   -0.631663
    102          6           0      -14.483962    7.086444   -1.036785
    103          7           0      -13.547013    0.358577   -0.101601
    104          6           0      -12.748440    1.417704   -0.321714
    105          6           0      -11.297410    1.061807   -0.102040
    106          6           0      -11.307139   -0.398892    0.549019
    107          6           0      -12.824603   -0.683660    0.509049
    108          6           0      -10.417361    1.055816   -1.351787
    109          6           0      -10.557697   -0.572979    1.898353
    110          6           0      -11.271648    0.194085    2.987966
    111          7           0      -15.687432   -1.487712    0.638140
    112          6           0      -14.593502   -2.345118    0.887663
    113          6           0      -15.146016   -3.687997    1.159360
    114          6           0      -16.532791   -3.522505    1.025349
    115          6           0      -16.822694   -2.176467    0.673728
    116          6           0      -14.386435   -4.860338    1.432838
    117          6           0      -17.816636   -4.182888    1.090962
    118          8           0      -18.201756   -5.301818    1.427757
    119          6           0      -18.914708   -3.215744    0.470261
    120          6           0      -20.088393   -3.181608    1.410373
    121          8           0      -19.973072   -2.692247    2.547844
    122          8           0      -21.200936   -3.530950    0.739120
    123          6           0      -22.393913   -3.501307    1.626671
    124          1           0      -18.368293    3.025216   -2.516519
    125          1           0      -12.412093    3.313711   -0.658549
    126          1           0      -12.629491   -2.693888    1.156992
    127          1           0      -20.545063   -1.249922   -1.350702
    128          1           0      -20.385191    1.491046   -1.982104
    129          1           0      -19.371399   -0.967197   -3.349376
    130          1           0      -18.423786    0.502365   -3.660404
    131          1           0      -20.110591    0.508383   -4.077871
    132          1           0      -20.684557    1.235208    0.372800
    133          1           0      -20.743112   -0.371537    1.185290
    134          1           0      -22.665765   -0.374119   -0.914932
    135          1           0      -22.649771    1.251234   -0.329421
    136          1           0      -18.042140    5.105701   -2.439395
    137          1           0      -16.612851    5.979001   -2.879477
    138          1           0      -17.331229    6.311822   -1.285758
    139          1           0      -14.912753    7.149625   -2.034081
    140          1           0      -13.691020    7.796872   -0.795068
    141          1           0      -15.312390    7.206854   -0.329814
    142          1           0      -10.830455    1.751875    0.589948
    143          1           0      -10.830698   -1.141103   -0.108214
    144          1           0       -9.544486    1.731204   -1.274179
    145          1           0      -11.030438    1.322976   -2.202256
    146          1           0      -10.033322    0.079203   -1.641507
    147          1           0       -9.551839   -0.151405    1.830026
    148          1           0      -10.452717   -1.608732    2.203627
    149          1           0      -10.889050    1.211686    2.864664
    150          1           0      -11.018597   -0.206745    3.967425
    151          1           0      -12.352096    0.223741    2.805191
    152          1           0      -14.879283   -5.366553    2.252193
    153          1           0      -13.354542   -4.617371    1.677675
    154          1           0      -14.470011   -5.375410    0.472124
    155          1           0      -19.185673   -3.613229   -0.508599
    156          1           0      -22.858978   -4.490338    1.569950
    157          1           0      -22.998621   -2.640031    1.285682
    158          1           0      -22.223214   -3.408698    2.692850
 ---------------------------------------------------------------------

 SCF Done:  E(RCAM-B3LYP) =  -4069.81176464     A.U. after   19 cycles

 Excitation energies and oscillator strengths:

 Excited State   1:      Singlet-A      1.6753 eV  740.08 nm  f=0.2134  <S**2>=0.000
     310 -> 316        0.16866
     311 -> 313        0.66677
     312 -> 314       -0.16151
     310 <- 316        0.10169
 This state for optimization and/or second-order correction.
 Total Energy, E(TD-HF/TD-DFT) =  -4069.75019960
 Copying the excited state density for this state as the 1-particle RhoCI density.

 Excited State   2:      Singlet-A      1.6801 eV  737.95 nm  f=0.5640  <S**2>=0.000
     309 -> 315        0.17069
     311 -> 313        0.16146
     312 -> 314        0.66641
     309 <- 315        0.10219

 Excited State   3:      Singlet-A      2.1861 eV  567.16 nm  f=0.1029  <S**2>=0.000
     310 -> 313        0.64247
     311 -> 316       -0.27312

 Excited State   4:      Singlet-A      2.1926 eV  565.48 nm  f=0.0986  <S**2>=0.000
     309 -> 314        0.64070
     312 -> 315       -0.27831

 Excited State   5:      Singlet-A      3.0622 eV  404.89 nm  f=0.0000  <S**2>=0.000
     312 -> 313        0.70710

 The electronic state is 1-A.
 Alpha  occ. eigenvalues --  -46.87775 -46.87660 -19.26350 -19.26264 -19.19161
 Alpha  occ. eigenvalues --  -19.18999 -19.18792 -19.18714 -19.18148 -19.18051
 Alpha  occ. eigenvalues --  -14.42498 -14.42428 -14.41428 -14.41358 -14.39381
 Alpha  occ. eigenvalues --  -14.39352 -14.38599 -14.38565 -10.39091 -10.39059
 Alpha  occ. eigenvalues --  -10.35426 -10.35392 -10.34368 -10.34228 -10.31757
 Alpha  occ. eigenvalues --  -10.31659 -10.31384 -10.31309 -10.31024 -10.30887
 Alpha  occ. eigenvalues --  -10.30548 -10.30486 -10.30397 -10.30360 -10.30185
 Alpha  occ. eigenvalues --  -10.30139 -10.29899 -10.29892 -10.29609 -10.29436
 Alpha  occ. eigenvalues --  -10.29400 -10.29232 -10.28728 -10.28721 -10.28656
 Alpha  occ. eigenvalues --  -10.28517 -10.28405 -10.28343 -10.28142 -10.28095
 Alpha  occ. eigenvalues --  -10.28000 -10.27771 -10.27705 -10.27669 -10.27562
 Alpha  occ. eigenvalues --  -10.27512 -10.27483 -10.27479 -10.27469 -10.27465
 Alpha  occ. eigenvalues --  -10.27459 -10.27427 -10.27382 -10.27371 -10.27137
 Alpha  occ. eigenvalues --  -10.27051 -10.26694 -10.26683 -10.26416 -10.26387
 Alpha  occ. eigenvalues --  -10.26214 -10.26161 -10.26128 -10.26028 -10.25997
 Alpha  occ. eigenvalues --  -10.25932 -10.25847 -10.25822 -10.25414 -10.25392
 Alpha  occ. eigenvalues --  -10.24872 -10.24811 -10.24766 -10.24722 -10.24689
 Alpha  occ. eigenvalues --  -10.24663  -3.16517  -3.16410  -1.91399  -1.91292
 Alpha  occ. eigenvalues --   -1.90986  -1.90880  -1.90828  -1.90717  -1.16644
 Alpha  occ. eigenvalues --   -1.16612  -1.08658  -1.08606  -1.07193  -1.06967
 Alpha  occ. eigenvalues --   -1.06946  -1.06621  -1.04559  -1.04495  -1.03739
 Alpha  occ. eigenvalues --   -1.03662  -1.03212  -1.03038  -1.02389  -1.02111
 Alpha  occ. eigenvalues --   -0.91987  -0.91951  -0.89497  -0.89491  -0.89167
 Alpha  occ. eigenvalues --   -0.89152  -0.88265  -0.88216  -0.87849  -0.87792
 Alpha  occ. eigenvalues --   -0.87684  -0.87651  -0.87252  -0.87121  -0.85000
 Alpha  occ. eigenvalues --   -0.84961  -0.83914  -0.83872  -0.82945  -0.82931
 Alpha  occ. eigenvalues --   -0.82653  -0.82627  -0.81596  -0.81564  -0.80575
 Alpha  occ. eigenvalues --   -0.80442  -0.78775  -0.78635  -0.77197  -0.77144
 Alpha  occ. eigenvalues --   -0.76913  -0.76898  -0.75902  -0.75839  -0.74876
 Alpha  occ. eigenvalues --   -0.74800  -0.72752  -0.72698  -0.71651  -0.71580
 Alpha  occ. eigenvalues --   -0.69885  -0.69752  -0.68851  -0.68828  -0.67619
 Alpha  occ. eigenvalues --   -0.67601  -0.67201  -0.67198  -0.65272  -0.65265
 Alpha  occ. eigenvalues --   -0.64832  -0.64769  -0.64653  -0.64599  -0.64247
 Alpha  occ. eigenvalues --   -0.64200  -0.62278  -0.62276  -0.60420  -0.60339
 Alpha  occ. eigenvalues --   -0.59797  -0.59783  -0.58992  -0.58966  -0.58482
 Alpha  occ. eigenvalues --   -0.58425  -0.57563  -0.57554  -0.57287  -0.57235
 Alpha  occ. eigenvalues --   -0.56288  -0.56204  -0.55957  -0.55887  -0.55498
 Alpha  occ. eigenvalues --   -0.55452  -0.55318  -0.55245  -0.54502  -0.54485
 Alpha  occ. eigenvalues --   -0.53914  -0.53874  -0.53277  -0.53227  -0.53200
 Alpha  occ. eigenvalues --   -0.53142  -0.52902  -0.52893  -0.52734  -0.52669
 Alpha  occ. eigenvalues --   -0.52416  -0.52395  -0.51893  -0.51883  -0.51660
 Alpha  occ. eigenvalues --   -0.51595  -0.51200  -0.51174  -0.50550  -0.50476
 Alpha  occ. eigenvalues --   -0.50009  -0.49980  -0.49896  -0.49864  -0.49493
 Alpha  occ. eigenvalues --   -0.49488  -0.49203  -0.49193  -0.49105  -0.49075
 Alpha  occ. eigenvalues --   -0.48572  -0.48559  -0.48439  -0.48423  -0.48373
 Alpha  occ. eigenvalues --   -0.48339  -0.47673  -0.47594  -0.47275  -0.47118
 Alpha  occ. eigenvalues --   -0.46775  -0.46708  -0.46554  -0.46534  -0.46337
 Alpha  occ. eigenvalues --   -0.46269  -0.46141  -0.46084  -0.45821  -0.45801
 Alpha  occ. eigenvalues --   -0.45206  -0.45179  -0.44556  -0.44514  -0.44485
 Alpha  occ. eigenvalues --   -0.44476  -0.44127  -0.44122  -0.44076  -0.44067
 Alpha  occ. eigenvalues --   -0.43998  -0.43939  -0.43552  -0.43473  -0.43385
 Alpha  occ. eigenvalues --   -0.43364  -0.43005  -0.42930  -0.42900  -0.42678
 Alpha  occ. eigenvalues --   -0.42633  -0.42550  -0.41987  -0.41961  -0.41682
 Alpha  occ. eigenvalues --   -0.41669  -0.41512  -0.41458  -0.41119  -0.40989
 Alpha  occ. eigenvalues --   -0.40847  -0.40801  -0.40722  -0.40698  -0.40549
 Alpha  occ. eigenvalues --   -0.40490  -0.40228  -0.40212  -0.39420  -0.39418
 Alpha  occ. eigenvalues --   -0.38447  -0.38347  -0.37727  -0.37655  -0.37298
 Alpha  occ. eigenvalues --   -0.37263  -0.37242  -0.37200  -0.36771  -0.36692
 Alpha  occ. eigenvalues --   -0.36215  -0.36171  -0.34264  -0.34253  -0.33862
 Alpha  occ. eigenvalues --   -0.33749  -0.33175  -0.33165  -0.31322  -0.31273
 Alpha  occ. eigenvalues --   -0.31014  -0.30972  -0.30008  -0.29955  -0.29427
 Alpha  occ. eigenvalues --   -0.29327  -0.29300  -0.29211  -0.24059  -0.24036
 Alpha  occ. eigenvalues --   -0.21116  -0.21106
 Alpha virt. eigenvalues --   -0.08792  -0.08752  -0.01728  -0.01683  -0.00036
 Alpha virt. eigenvalues --   -0.00029   0.02208   0.02222   0.03144   0.03226
 Alpha virt. eigenvalues --    0.04729   0.04739   0.05119   0.05165   0.06181

 Mulliken charges:
               1
     1  Mg   0.838734
     2  C   -0.002959
     3  C   -0.094126
     4  C   -0.045898
     5  C   -0.063952
     6  N   -0.256783
     7  C   -0.052482
     8  C   -0.013996
     9  C   -0.087000
    10  C    0.046336
    11  C    0.104813
    12  C    0.053465
    13  C   -0.071810
    14  H    0.036132
    15  N   -0.433152
    16  C    0.168436
    17  C   -0.177149
    18  C   -0.003995
    19  C    0.148734
    20  C    0.110182
    21  C    0.012295
    22  O   -0.249613
    23  C    0.062471
    24  N   -0.341129
    25  C    0.041256
    26  C   -0.028165
    27  C   -0.023965
    28  C    0.074818
    29  C    0.076171
    30  C    0.035135
    31  C   -0.004511
    32  N   -0.310461
    33  C    0.080406
    34  C   -0.169724
    35  C    0.008359
    36  C    0.082992
    37  C    0.127311
    38  C    0.046115
    39  O   -0.188455
    40  C   -0.005352
    41  C    0.212885
    42  O   -0.257099
    43  O   -0.304801
    44  C    0.157689
    45  H   -0.017611
    46  H   -0.016829
    47  H   -0.041494
    48  H    0.000924
    49  H   -0.004031
    50  H    0.025464
    51  H    0.016443
    52  H    0.016645
    53  H    0.011220
    54  H    0.044128
    55  H    0.017856
    56  H    0.017956
    57  H    0.005867
    58  H    0.026814
    59  H    0.039579
    60  H    0.037330
    61  H    0.035670
    62  H    0.031529
    63  H    0.016570
    64  H    0.009448
    65  H    0.023217
    66  H    0.012534
    67  H    0.004741
    68  H    0.006368
    69  H    0.004724
    70  H    0.008796
    71  H    0.018157
    72  H    0.028982
    73  H    0.047567
    74  H    0.009115
    75  H    0.045993
    76  H    0.035137
    77  H    0.042934
    78  H    0.046403
    79  H    0.053691
    80  Mg   0.837781
    81  C   -0.016859
    82  C   -0.087783
    83  C   -0.045503
    84  C   -0.064878
    85  N   -0.254552
    86  C   -0.049839
    87  C   -0.015095
    88  C   -0.090494
    89  C    0.045728
    90  C    0.114380
    91  C    0.062529
    92  C   -0.077899
    93  H    0.034912
    94  N   -0.423471
    95  C    0.162915
    96  C   -0.174649
    97  C   -0.007815
    98  C    0.152130
    99  C    0.099377
   100  C    0.015576
   101  O   -0.253160
   102  C    0.061193
   103  N   -0.350056
   104  C    0.037521
   105  C   -0.019832
   106  C   -0.034865
   107  C    0.088943
   108  C    0.073645
   109  C    0.034735
   110  C   -0.007706
   111  N   -0.324123
   112  C    0.078463
   113  C   -0.163106
   114  C    0.002247
   115  C    0.096225
   116  C    0.131486
   117  C    0.042394
   118  O   -0.187864
   119  C    0.000920
   120  C    0.211270
   121  O   -0.251008
   122  O   -0.305646
   123  C    0.152030
   124  H   -0.019685
   125  H   -0.015542
   126  H   -0.040372
   127  H   -0.000657
   128  H   -0.004331
   129  H    0.022457
   130  H    0.014420
   131  H    0.016260
   132  H    0.013922
   133  H    0.037691
   134  H    0.020775
   135  H    0.019586
   136  H    0.008747
   137  H    0.026118
   138  H    0.039792
   139  H    0.038228
   140  H    0.036402
   141  H    0.033902
   142  H    0.014437
   143  H    0.012483
   144  H    0.025190
   145  H    0.011581
   146  H    0.005736
   147  H    0.006366
   148  H    0.003723
   149  H    0.010943
   150  H    0.018003
   151  H    0.030048
   152  H    0.046036
   153  H    0.008593
   154  H    0.046953
   155  H    0.035010
   156  H    0.043912
   157  H    0.049481
   158  H    0.053594
 Sum of Mulliken charges =  -0.00000

 Dipole moment (field-independent basis, Debye):
    X=              0.7370    Y=              6.0826    Z=             -5.7259  Tot=              8.3862
 Quadrupole moment (field-independent basis, Debye-Ang):
   XX=           -379.4697   YY=           -552.2987   ZZ=           -474.6934
   XY=            -24.4797   XZ=             20.4277   YZ=            -11.4615

 Normal termination of Gaussian 16 at Sun Sep 12 22:12:24 2021.
