 Gaussian 16, Revision A.03,
 Gaussian 16:  ES64L-G16RevA.03 25-Dec-2016

 -----------------------------------
 #p cam-b3lyp/Def2SVP td=(nstates=5)
 -----------------------------------

 --------------------------------
 TDDFT excited states in gaussian
 --------------------------------
 Symbolic Z-matrix:
 Charge =  0 Multiplicity = 1

                         Standard orientation:
 ---------------------------------------------------------------------
 Center     Atomic      Atomic             Coordinates (Angstroms)
 Number     Number       Type             X           Y           Z
 ---------------------------------------------------------------------
      1         12           0        5.196489   -0.908096    0.469359
      2          6           0        5.848865    1.573654   -2.026145
      3          6           0        6.461304    1.279239    2.762582
      4          6           0        5.052848   -3.240985    2.612631
      5          6           0        5.059288   -3.250789   -2.107194
      6          7           0        6.017702    1.138103    0.271048
      7          6           0        6.156696    1.999303   -0.732040
      8          6           0        6.588984    3.422672   -0.268875
      9          6           0        7.280280    3.037838    1.115325
     10          6           0        6.517604    1.760794    1.420953
     11          6           0        8.763003    2.704969    0.984054
     12          6           0        5.364917    4.374859   -0.052702
     13          6           0        5.708914    5.861173    0.081056
     14          1           0        4.792100    6.844942   -0.474819
     15          7           0        5.221351   -0.837515    2.443505
     16          6           0        5.764880    0.136588    3.212260
     17          6           0        5.525836   -0.269396    4.613943
     18          6           0        4.967576   -1.650052    4.598877
     19          6           0        5.084249   -1.978944    3.201166
     20          6           0        5.775606    0.630347    5.785194
     21          6           0        4.426108   -2.536804    5.675267
     22          8           0        4.208175   -3.782151    5.485036
     23          6           0        4.238383   -1.920847    7.001314
     24          7           0        5.291106   -2.987599    0.313322
     25          6           0        5.144043   -3.767763    1.389752
     26          6           0        4.965044   -5.205571    1.001671
     27          6           0        4.776558   -5.215311   -0.583930
     28          6           0        4.972830   -3.703127   -0.854204
     29          6           0        6.112630   -6.150093    1.384991
     30          6           0        3.503580   -5.904208   -1.136531
     31          6           0        2.277865   -5.112987   -0.738172
     32          7           0        5.234576   -0.854626   -1.700142
     33          6           0        5.187481   -1.952400   -2.571548
     34          6           0        5.350763   -1.425749   -3.939045
     35          6           0        5.499064   -0.051043   -3.765742
     36          6           0        5.458908    0.258215   -2.376124
     37          6           0        5.406867   -2.202285   -5.129960
     38          6           0        5.706770    1.225651   -4.429646
     39          8           0        5.727083    1.599602   -5.603205
     40          6           0        6.063480    2.313716   -3.322984
     41          6           0        5.215066    3.527338   -3.588732
     42          8           0        3.976006    3.485396   -3.446123
     43          8           0        6.007496    4.600159   -3.735874
     44          6           0        5.226829    5.843739   -3.972987
     45          1           0        7.049813    1.785522    3.530226
     46          1           0        4.892701   -4.065347    3.310642
     47          1           0        4.942357   -3.912517   -2.967366
     48          1           0        7.310985    3.913357   -0.921843
     49          1           0        7.092074    3.785233    1.885845
     50          1           0        9.070633    2.661700   -0.060653
     51          1           0        8.885635    1.730736    1.457684
     52          1           0        9.368975    3.399616    1.566324
     53          1           0        4.938407    4.193626    0.933860
     54          1           0        4.629992    4.245041   -0.847912
     55          1           0        6.729957    6.064692   -0.242920
     56          1           0        5.704339    6.118829    1.140203
     57          1           0        6.339712    1.516335    5.496481
     58          1           0        6.439927    0.094170    6.462615
     59          1           0        4.854051    0.892604    6.305087
     60          1           0        5.194377   -1.537541    7.358668
     61          1           0        3.760360   -2.679318    7.620236
     62          1           0        3.580552   -1.057221    6.899543
     63          1           0        4.077351   -5.629298    1.469520
     64          1           0        5.596193   -5.725839   -1.090126
     65          1           0        5.799497   -6.990522    2.004937
     66          1           0        6.881484   -5.561029    1.884149
     67          1           0        6.667544   -6.560832    0.541913
     68          1           0        3.395403   -6.900281   -0.708652
     69          1           0        3.506975   -6.007957   -2.221647
     70          1           0        2.071332   -5.474511    0.268544
     71          1           0        1.447789   -5.333517   -1.410148
     72          1           0        2.498550   -4.048025   -0.663072
     73          1           0        4.792382   -1.680530   -5.863545
     74          1           0        5.044921   -3.215905   -4.959160
     75          1           0        6.475556   -2.170607   -5.341519
     76          1           0        7.127002    2.527418   -3.424842
     77          1           0        5.591660    6.279278   -4.903276
     78          1           0        5.313949    6.442002   -3.065851
     79          1           0        4.170045    5.712049   -4.207947
     80         12           0       -5.220428    0.919353    0.432158
     81          6           0       -5.782204   -1.609205   -2.051763
     82          6           0       -6.431715   -1.285527    2.735610
     83          6           0       -5.161277    3.267909    2.564810
     84          6           0       -5.146063    3.250395   -2.157514
     85          7           0       -5.977277   -1.150439    0.243998
     86          6           0       -6.085799   -2.030127   -0.740245
     87          6           0       -6.468542   -3.463211   -0.282738
     88          6           0       -7.187629   -3.089062    1.103558
     89          6           0       -6.467367   -1.776671    1.406100
     90          6           0       -8.671020   -2.795894    0.952130
     91          6           0       -5.210972   -4.372366   -0.050437
     92          6           0       -5.514806   -5.864937    0.096724
     93          1           0       -4.558111   -6.826613   -0.444021
     94          7           0       -5.253576    0.854314    2.415398
     95          6           0       -5.763825   -0.126765    3.188964
     96          6           0       -5.560268    0.309928    4.578937
     97          6           0       -5.037173    1.703044    4.561116
     98          6           0       -5.152559    2.009898    3.149514
     99          6           0       -5.781137   -0.594374    5.756600
    100          6           0       -4.530470    2.613512    5.638372
    101          8           0       -4.349089    3.865404    5.431788
    102          6           0       -4.341808    2.014718    6.967793
    103          7           0       -5.373089    2.985507    0.258788
    104          6           0       -5.262896    3.779838    1.338057
    105          6           0       -5.128444    5.229472    0.936979
    106          6           0       -4.927482    5.219426   -0.649553
    107          6           0       -5.076261    3.705037   -0.913897
    108          6           0       -6.310002    6.130920    1.294350
    109          6           0       -3.672284    5.946828   -1.204579
    110          6           0       -2.421000    5.208549   -0.786696
    111          7           0       -5.238320    0.846478   -1.727111
    112          6           0       -5.226838    1.942308   -2.617678
    113          6           0       -5.365058    1.395221   -3.982974
    114          6           0       -5.471334    0.009764   -3.788796
    115          6           0       -5.424390   -0.284061   -2.399213
    116          6           0       -5.427870    2.158687   -5.182671
    117          6           0       -5.623239   -1.270076   -4.442736
    118          8           0       -5.631324   -1.652589   -5.612074
    119          6           0       -5.958372   -2.364481   -3.339848
    120          6           0       -5.070514   -3.554384   -3.581391
    121          8           0       -3.838226   -3.462287   -3.441411
    122          8           0       -5.834671   -4.652577   -3.724232
    123          6           0       -4.998785   -5.860837   -3.954937
    124          1           0       -7.003883   -1.813243    3.499162
    125          1           0       -5.031230    4.107792    3.251222
    126          1           0       -5.033252    3.903942   -3.025177
    127          1           0       -7.163727   -3.977863   -0.935146
    128          1           0       -6.973168   -3.827565    1.871668
    129          1           0       -8.973248   -2.772116   -0.084316
    130          1           0       -8.828726   -1.830271    1.414464
    131          1           0       -9.257987   -3.509652    1.537240
    132          1           0       -4.798620   -4.165480    0.945503
    133          1           0       -4.486252   -4.226028   -0.827614
    134          1           0       -6.533060   -6.112196   -0.227242
    135          1           0       -5.502726   -6.118382    1.159566
    136          1           0       -6.322890   -1.503963    5.469273
    137          1           0       -6.465189   -0.073865    6.435583
    138          1           0       -4.856944   -0.822006    6.292048
    139          1           0       -5.286120    1.602681    7.315586
    140          1           0       -3.890423    2.798058    7.579751
    141          1           0       -3.645753    1.173365    6.876956
    142          1           0       -4.258017    5.679314    1.398616
    143          1           0       -5.762141    5.712616   -1.169122
    144          1           0       -6.024333    6.997272    1.920358
    145          1           0       -7.058278    5.530590    1.794579
    146          1           0       -6.862340    6.527135    0.443977
    147          1           0       -3.597146    6.950549   -0.779072
    148          1           0       -3.677381    6.054240   -2.284129
    149          1           0       -2.237890    5.585617    0.223935
    150          1           0       -1.594592    5.447686   -1.452953
    151          1           0       -2.607497    4.131219   -0.707811
    152          1           0       -4.799049    1.655603   -5.905161
    153          1           0       -5.104107    3.184375   -5.018612
    154          1           0       -6.497816    2.095488   -5.398287
    155          1           0       -7.015198   -2.615593   -3.438036
    156          1           0       -5.347482   -6.317484   -4.886371
    157          1           0       -5.087582   -6.465994   -3.033172
    158          1           0       -3.948336   -5.709194   -4.174055
 ---------------------------------------------------------------------

 SCF Done:  E(RCAM-B3LYP) =  -4069.81165127     A.U. after   19 cycles

 Excitation energies and oscillator strengths:

 Excited State   1:      Singlet-A      1.6566 eV  748.42 nm  f=0.0049  <S**2>=0.000
     309 -> 315       -0.11347
     310 -> 316        0.12490
     311 -> 313        0.50984
     312 -> 314       -0.46067
 This state for optimization and/or second-order correction.
 Total Energy, E(TD-HF/TD-DFT) =  -4069.75077167
 Copying the excited state density for this state as the 1-particle RhoCI density.

 Excited State   2:      Singlet-A      1.6955 eV  731.25 nm  f=0.7190  <S**2>=0.000
     309 -> 315        0.13299
     310 -> 316        0.11951
     311 -> 313        0.45913
     312 -> 314        0.50798

 Excited State   3:      Singlet-A      2.1829 eV  567.97 nm  f=0.0235  <S**2>=0.000
     309 -> 314        0.27672
     310 -> 313        0.58083
     311 -> 316       -0.24450
     312 -> 315       -0.11580

 Excited State   4:      Singlet-A      2.1930 eV  565.35 nm  f=0.1601  <S**2>=0.000
     309 -> 314        0.57767
     310 -> 313       -0.27421
     311 -> 316        0.12035
     312 -> 315       -0.25242

 Excited State   5:      Singlet-A      2.5754 eV  481.42 nm  f=0.0000  <S**2>=0.000
     312 -> 313        0.70710

 The electronic state is 1-A.
 Alpha  occ. eigenvalues --  -46.87609 -46.87515 -19.26256 -19.26144 -19.19049
 Alpha  occ. eigenvalues --  -19.18863 -19.18693 -19.18631 -19.17986 -19.17910
 Alpha  occ. eigenvalues --  -14.42360 -14.42269 -14.41264 -14.41214 -14.39223
 Alpha  occ. eigenvalues --  -14.39214 -14.38448 -14.38392 -10.38979 -10.38922
 Alpha  occ. eigenvalues --  -10.35331 -10.35313 -10.34206 -10.34088 -10.31693
 Alpha  occ. eigenvalues --  -10.31568 -10.31217 -10.31164 -10.30902 -10.30745
 Alpha  occ. eigenvalues --  -10.30375 -10.30320 -10.30253 -10.30208 -10.30028
 Alpha  occ. eigenvalues --  -10.30003 -10.29745 -10.29729 -10.29446 -10.29301
 Alpha  occ. eigenvalues --  -10.29259 -10.29076 -10.28609 -10.28595 -10.28573
 Alpha  occ. eigenvalues --  -10.28411 -10.28270 -10.28188 -10.28024 -10.27957
 Alpha  occ. eigenvalues --  -10.27858 -10.27608 -10.27546 -10.27531 -10.27410
 Alpha  occ. eigenvalues --  -10.27361 -10.27359 -10.27349 -10.27334 -10.27333
 Alpha  occ. eigenvalues --  -10.27304 -10.27274 -10.27239 -10.27226 -10.26989
 Alpha  occ. eigenvalues --  -10.26925 -10.26588 -10.26555 -10.26378 -10.26335
 Alpha  occ. eigenvalues --  -10.26087 -10.25940 -10.25933 -10.25921 -10.25821
 Alpha  occ. eigenvalues --  -10.25778 -10.25651 -10.25601 -10.25292 -10.25292
 Alpha  occ. eigenvalues --  -10.24726 -10.24644 -10.24611 -10.24554 -10.24457
 Alpha  occ. eigenvalues --  -10.24370  -3.16351  -3.16264  -1.91232  -1.91146
 Alpha  occ. eigenvalues --   -1.90819  -1.90735  -1.90661  -1.90572  -1.16546
 Alpha  occ. eigenvalues --   -1.16489  -1.08517  -1.08443  -1.07099  -1.06888
 Alpha  occ. eigenvalues --   -1.06835  -1.06486  -1.04402  -1.04359  -1.03578
 Alpha  occ. eigenvalues --   -1.03523  -1.03048  -1.02894  -1.02226  -1.01967
 Alpha  occ. eigenvalues --   -0.91850  -0.91793  -0.89337  -0.89319  -0.89032
 Alpha  occ. eigenvalues --   -0.89026  -0.88095  -0.88068  -0.87667  -0.87633
 Alpha  occ. eigenvalues --   -0.87547  -0.87496  -0.87119  -0.87008  -0.84881
 Alpha  occ. eigenvalues --   -0.84821  -0.83736  -0.83716  -0.82831  -0.82828
 Alpha  occ. eigenvalues --   -0.82538  -0.82491  -0.81476  -0.81422  -0.80430
 Alpha  occ. eigenvalues --   -0.80321  -0.78626  -0.78504  -0.77035  -0.77010
 Alpha  occ. eigenvalues --   -0.76771  -0.76767  -0.75758  -0.75717  -0.74721
 Alpha  occ. eigenvalues --   -0.74666  -0.72585  -0.72551  -0.71502  -0.71452
 Alpha  occ. eigenvalues --   -0.69686  -0.69577  -0.68710  -0.68707  -0.67473
 Alpha  occ. eigenvalues --   -0.67471  -0.67095  -0.67070  -0.65149  -0.65119
 Alpha  occ. eigenvalues --   -0.64676  -0.64632  -0.64528  -0.64447  -0.64075
 Alpha  occ. eigenvalues --   -0.64050  -0.62159  -0.62136  -0.60279  -0.60217
 Alpha  occ. eigenvalues --   -0.59671  -0.59635  -0.58855  -0.58807  -0.58326
 Alpha  occ. eigenvalues --   -0.58291  -0.57426  -0.57412  -0.57134  -0.57102
 Alpha  occ. eigenvalues --   -0.56134  -0.56068  -0.55829  -0.55778  -0.55364
 Alpha  occ. eigenvalues --   -0.55344  -0.55154  -0.55105  -0.54347  -0.54344
 Alpha  occ. eigenvalues --   -0.53797  -0.53735  -0.53136  -0.53101  -0.53061
 Alpha  occ. eigenvalues --   -0.53022  -0.52779  -0.52747  -0.52615  -0.52576
 Alpha  occ. eigenvalues --   -0.52207  -0.52207  -0.51709  -0.51699  -0.51550
 Alpha  occ. eigenvalues --   -0.51462  -0.51058  -0.51010  -0.50438  -0.50377
 Alpha  occ. eigenvalues --   -0.49863  -0.49841  -0.49767  -0.49719  -0.49382
 Alpha  occ. eigenvalues --   -0.49363  -0.49083  -0.49046  -0.48978  -0.48933
 Alpha  occ. eigenvalues --   -0.48435  -0.48424  -0.48313  -0.48278  -0.48244
 Alpha  occ. eigenvalues --   -0.48235  -0.47531  -0.47473  -0.47135  -0.46999
 Alpha  occ. eigenvalues --   -0.46608  -0.46566  -0.46438  -0.46399  -0.46175
 Alpha  occ. eigenvalues --   -0.46129  -0.45979  -0.45945  -0.45684  -0.45639
 Alpha  occ. eigenvalues --   -0.45068  -0.45021  -0.44408  -0.44396  -0.44340
 Alpha  occ. eigenvalues --   -0.44339  -0.44009  -0.43964  -0.43924  -0.43924
 Alpha  occ. eigenvalues --   -0.43853  -0.43831  -0.43428  -0.43324  -0.43261
 Alpha  occ. eigenvalues --   -0.43214  -0.42850  -0.42816  -0.42766  -0.42543
 Alpha  occ. eigenvalues --   -0.42450  -0.42397  -0.41805  -0.41802  -0.41533
 Alpha  occ. eigenvalues --   -0.41527  -0.41370  -0.41329  -0.40973  -0.40862
 Alpha  occ. eigenvalues --   -0.40714  -0.40676  -0.40631  -0.40572  -0.40379
 Alpha  occ. eigenvalues --   -0.40339  -0.40128  -0.40087  -0.39236  -0.39210
 Alpha  occ. eigenvalues --   -0.38284  -0.38208  -0.37592  -0.37543  -0.37132
 Alpha  occ. eigenvalues --   -0.37121  -0.37096  -0.37072  -0.36657  -0.36550
 Alpha  occ. eigenvalues --   -0.36081  -0.36018  -0.34111  -0.34100  -0.33745
 Alpha  occ. eigenvalues --   -0.33608  -0.33034  -0.33003  -0.31223  -0.31189
 Alpha  occ. eigenvalues --   -0.30859  -0.30839  -0.29844  -0.29813  -0.29277
 Alpha  occ. eigenvalues --   -0.29197  -0.29129  -0.29060  -0.23896  -0.23894
 Alpha  occ. eigenvalues --   -0.20975  -0.20942
 Alpha virt. eigenvalues --   -0.08654  -0.08594  -0.01571  -0.01547   0.00084
 Alpha virt. eigenvalues --    0.00097   0.02351   0.02387   0.03290   0.03477
 Alpha virt. eigenvalues --    0.04855   0.04887   0.05257   0.05279   0.06277

 Mulliken charges:
               1
     1  Mg   0.839522
     2  C   -0.003019
     3  C   -0.094137
     4  C   -0.046024
     5  C   -0.063080
     6  N   -0.256742
     7  C   -0.052369
     8  C   -0.014071
     9  C   -0.086986
    10  C    0.046207
    11  C    0.104907
    12  C    0.053447
    13  C   -0.071444
    14  H    0.035256
    15  N   -0.432950
    16  C    0.168268
    17  C   -0.177429
    18  C   -0.004467
    19  C    0.148606
    20  C    0.110264
    21  C    0.011749
    22  O   -0.250488
    23  C    0.062673
    24  N   -0.341247
    25  C    0.041295
    26  C   -0.027871
    27  C   -0.024101
    28  C    0.075241
    29  C    0.076406
    30  C    0.034991
    31  C   -0.004641
    32  N   -0.310792
    33  C    0.081279
    34  C   -0.168135
    35  C    0.008442
    36  C    0.083760
    37  C    0.127050
    38  C    0.046692
    39  O   -0.188220
    40  C   -0.005616
    41  C    0.212878
    42  O   -0.256732
    43  O   -0.304841
    44  C    0.157950
    45  H   -0.018047
    46  H   -0.017520
    47  H   -0.040818
    48  H    0.000682
    49  H   -0.004174
    50  H    0.025291
    51  H    0.016356
    52  H    0.016295
    53  H    0.011647
    54  H    0.044108
    55  H    0.017676
    56  H    0.018082
    57  H    0.005836
    58  H    0.026207
    59  H    0.039248
    60  H    0.037420
    61  H    0.034394
    62  H    0.031192
    63  H    0.016067
    64  H    0.009061
    65  H    0.022443
    66  H    0.012268
    67  H    0.004516
    68  H    0.005030
    69  H    0.005423
    70  H    0.006778
    71  H    0.021876
    72  H    0.030001
    73  H    0.048975
    74  H    0.009965
    75  H    0.045379
    76  H    0.034832
    77  H    0.042733
    78  H    0.046131
    79  H    0.053170
    80  Mg   0.838643
    81  C   -0.016911
    82  C   -0.087790
    83  C   -0.045670
    84  C   -0.064138
    85  N   -0.254524
    86  C   -0.049737
    87  C   -0.015168
    88  C   -0.090497
    89  C    0.045630
    90  C    0.114474
    91  C    0.062481
    92  C   -0.077481
    93  H    0.033878
    94  N   -0.423326
    95  C    0.162769
    96  C   -0.174881
    97  C   -0.008265
    98  C    0.152028
    99  C    0.099463
   100  C    0.015027
   101  O   -0.253969
   102  C    0.061404
   103  N   -0.350201
   104  C    0.037591
   105  C   -0.019587
   106  C   -0.034962
   107  C    0.089330
   108  C    0.073899
   109  C    0.034636
   110  C   -0.007793
   111  N   -0.324416
   112  C    0.079329
   113  C   -0.161588
   114  C    0.002317
   115  C    0.096972
   116  C    0.131261
   117  C    0.042995
   118  O   -0.187632
   119  C    0.000627
   120  C    0.211265
   121  O   -0.250672
   122  O   -0.305652
   123  C    0.152311
   124  H   -0.020071
   125  H   -0.016194
   126  H   -0.039735
   127  H   -0.000893
   128  H   -0.004441
   129  H    0.022284
   130  H    0.014349
   131  H    0.015949
   132  H    0.014399
   133  H    0.037622
   134  H    0.020623
   135  H    0.019771
   136  H    0.008741
   137  H    0.025557
   138  H    0.039511
   139  H    0.038336
   140  H    0.035194
   141  H    0.033542
   142  H    0.013997
   143  H    0.012054
   144  H    0.024431
   145  H    0.011352
   146  H    0.005462
   147  H    0.005080
   148  H    0.004331
   149  H    0.009085
   150  H    0.021408
   151  H    0.031060
   152  H    0.047409
   153  H    0.009355
   154  H    0.046331
   155  H    0.034721
   156  H    0.043746
   157  H    0.049201
   158  H    0.052964
 Sum of Mulliken charges =  -0.00000

 Dipole moment (field-independent basis, Debye):
    X=              0.0682    Y=             -0.0865    Z=              6.9576  Tot=              6.9585
 Quadrupole moment (field-independent basis, Debye-Ang):
   XX=           -468.8647   YY=           -464.6442   ZZ=           -540.3289
   XY=             25.5596   XZ=              1.8489   YZ=             -0.5426

 Normal termination of Gaussian 16 at Fri Sep 10 13:30:57 2021.
