 Gaussian 16, Revision A.03,
 Gaussian 16:  ES64L-G16RevA.03 25-Dec-2016

 -----------------------------------
 #p cam-b3lyp/Def2SVP td=(nstates=5)
 -----------------------------------

 --------------------------------
 TDDFT excited states in gaussian
 --------------------------------
 Symbolic Z-matrix:
 Charge =  0 Multiplicity = 1

                         Standard orientation:
 ---------------------------------------------------------------------
 Center     Atomic      Atomic             Coordinates (Angstroms)
 Number     Number       Type             X           Y           Z
 ---------------------------------------------------------------------
      1         12           0      -15.783723    0.514248   -0.608443
      2          6           0      -16.056565   -2.279140    1.612988
      3          6           0      -16.760181    2.490757    1.995978
      4          6           0      -15.989906    2.925655   -2.657645
      5          6           0      -15.942117   -1.757000   -3.247004
      6          7           0      -16.311131    0.047977    1.490384
      7          6           0      -16.317658   -1.054930    2.232493
      8          6           0      -16.553992   -0.778795    3.747508
      9          6           0      -17.308174    0.621284    3.633543
     10          6           0      -16.733433    1.099909    2.311985
     11          6           0      -18.821067    0.488617    3.491928
     12          6           0      -15.212435   -0.643731    4.543570
     13          6           0      -15.348740   -0.699518    6.067927
     14          1           0      -14.297994   -1.343170    6.841873
     15          7           0      -15.821789    2.464066   -0.292832
     16          6           0      -16.234122    3.094277    0.833268
     17          6           0      -16.070138    4.540861    0.574070
     18          6           0      -15.708409    4.707859   -0.860976
     19          6           0      -15.853074    3.357062   -1.340348
     20          6           0      -16.206604    5.587825    1.636611
     21          6           0      -15.307721    5.898092   -1.673950
     22          8           0      -15.262206    5.865265   -2.951222
     23          6           0      -15.052081    7.145297   -0.930868
     24          7           0      -16.163695    0.606692   -2.658982
     25          6           0      -16.138813    1.772867   -3.313505
     26          6           0      -16.156191    1.565730   -4.799012
     27          6           0      -15.952232   -0.001155   -5.029284
     28          6           0      -15.933909   -0.456762   -3.549298
     29          6           0      -17.427999    2.026831   -5.524202
     30          6           0      -14.780564   -0.430287   -5.947683
     31          6           0      -13.461820   -0.095034   -5.287669
     32          7           0      -15.788510   -1.646142   -0.817574
     33          6           0      -15.883714   -2.377551   -2.010323
     34          6           0      -15.956357   -3.802550   -1.638610
     35          6           0      -15.914794   -3.800081   -0.245732
     36          6           0      -15.848529   -2.457143    0.223755
     37          6           0      -16.105493   -4.892589   -2.540834
     38          6           0      -15.935790   -4.618318    0.955894
     39          8           0      -15.890290   -5.828419    1.181901
     40          6           0      -16.151306   -3.661147    2.210168
     41          6           0      -15.139863   -4.046484    3.255063
     42          8           0      -13.920328   -3.864480    3.062775
     43          8           0      -15.774229   -4.344140    4.399407
     44          6           0      -14.826061   -4.706602    5.486492
     45          1           0      -17.281859    3.174818    2.668178
     46          1           0      -15.953739    3.721999   -3.403947
     47          1           0      -15.907883   -2.527683   -4.019227
     48          1           0      -17.193315   -1.506401    4.247787
     49          1           0      -17.027311    1.301432    4.437431
     50          1           0      -19.119414   -0.551681    3.362741
     51          1           0      -19.083057    1.072228    2.609176
     52          1           0      -19.331761    0.965581    4.328872
     53          1           0      -14.826784    0.369259    4.428736
     54          1           0      -14.493281   -1.396215    4.218132
     55          1           0      -16.327856   -1.074687    6.367074
     56          1           0      -15.320972    0.320667    6.450877
     57          1           0      -16.639083    5.178677    2.548809
     58          1           0      -16.946727    6.305507    1.283258
     59          1           0      -15.263782    6.098569    1.832975
     60          1           0      -15.949886    7.426484   -0.380024
     61          1           0      -14.691066    7.864332   -1.665380
     62          1           0      -14.279789    6.959303   -0.183927
     63          1           0      -15.341331    2.106327   -5.278788
     64          1           0      -16.828683   -0.465544   -5.481889
     65          1           0      -17.241641    2.752016   -6.316718
     66          1           0      -18.113643    2.429352   -4.779112
     67          1           0      -18.024512    1.223717   -5.956173
     68          1           0      -14.816474    0.117153   -6.888941
     69          1           0      -14.785535   -1.494710   -6.182693
     70          1           0      -13.319225    0.953335   -5.547323
     71          1           0      -12.662456   -0.711602   -5.700067
     72          1           0      -13.533698   -0.154850   -4.201510
     73          1           0      -15.416059   -5.665697   -2.201785
     74          1           0      -15.889506   -4.590890   -3.565495
     75          1           0      -17.156922   -5.136908   -2.390300
     76          1           0      -17.173691   -3.818339    2.552429
     77          1           0      -15.116062   -5.692556    5.849848
     78          1           0      -14.840120   -3.880832    6.198049
     79          1           0      -13.795024   -4.893697    5.184337
     80         12           0       15.953247    0.618213    0.537233
     81          6           0       15.852275   -1.749869   -2.157397
     82          6           0       15.009913   -1.923032    2.607689
     83          6           0       15.595308    2.764973    2.846071
     84          6           0       15.763225    3.142392   -1.858205
     85          7           0       15.518328   -1.516721    0.156295
     86          6           0       15.572932   -2.317963   -0.896977
     87          6           0       15.392744   -3.824486   -0.569104
     88          6           0       14.582350   -3.675343    0.809265
     89          6           0       15.089873   -2.301932    1.243818
     90          6           0       13.077455   -3.589340    0.616334
     91          6           0       16.763278   -4.557314   -0.353253
     92          6           0       16.679789   -6.085210   -0.335662
     93          1           0       17.785317   -6.849317   -0.906992
     94          7           0       15.867038    0.384449    2.506118
     95          6           0       15.483673   -0.721235    3.178265
     96          6           0       15.575833   -0.376635    4.605472
     97          6           0       15.886692    1.074330    4.718576
     98          6           0       15.772015    1.477393    3.331324
     99          6           0       15.454249   -1.398148    5.698701
    100          6           0       16.218127    1.956059    5.884292
    101          8           0       16.218191    3.233813    5.783494
    102          6           0       16.451165    1.282645    7.170260
    103          7           0       15.501246    2.647425    0.518055
    104          6           0       15.457935    3.356856    1.659435
    105          6           0       15.388458    4.838906    1.378208
    106          6           0       15.639069    4.990072   -0.194027
    107          6           0       15.725165    3.497402   -0.581220
    108          6           0       14.075436    5.526183    1.752396
    109          6           0       16.789434    5.935765   -0.635605
    110          6           0       18.122488    5.355057   -0.221929
    111          7           0       16.015085    0.723228   -1.619888
    112          6           0       15.892146    1.879266   -2.421480
    113          6           0       15.880169    1.433283   -3.829801
    114          6           0       15.974556    0.035796   -3.748447
    115          6           0       16.020342   -0.362542   -2.385097
    116          6           0       15.742953    2.276553   -4.968305
    117          6           0       16.035150   -1.193702   -4.505639
    118          8           0       16.121143   -1.474808   -5.700351
    119          6           0       15.831228   -2.413030   -3.506613
    120          6           0       16.893069   -3.437010   -3.800645
    121          8           0       18.092966   -3.178732   -3.600222
    122          8           0       16.305296   -4.618903   -4.061453
    123          6           0       17.318150   -5.669435   -4.348368
    124          1           0       14.498397   -2.589927    3.302297
    125          1           0       15.577370    3.554861    3.600552
    126          1           0       15.805348    3.875211   -2.666831
    127          1           0       14.802749   -4.378686   -1.289207
    128          1           0       14.879480   -4.436085    1.526445
    129          1           0       12.808178   -3.523693   -0.427374
    130          1           0       12.763554   -2.698695    1.144791
    131          1           0       12.584600   -4.426959    1.118139
    132          1           0       17.108457   -4.376185    0.672806
    133          1           0       17.482619   -4.243123   -1.084321
    134          1           0       15.720329   -6.450065   -0.722015
    135          1           0       16.695525   -6.421662    0.703851
    136          1           0       15.062913   -2.349770    5.318325
    137          1           0       14.679281   -1.040849    6.385450
    138          1           0       16.384484   -1.532740    6.254776
    139          1           0       15.567873    0.710265    7.443461
    140          1           0       16.761593    2.069693    7.860236
    141          1           0       17.266904    0.561903    7.044979
    142          1           0       16.167350    5.370551    1.910931
    143          1           0       14.757424    5.398161   -0.709773
    144          1           0       14.209302    6.369810    2.455571
    145          1           0       13.409005    4.783998    2.171404
    146          1           0       13.497758    5.907201    0.911970
    147          1           0       16.701200    6.900874   -0.130693
    148          1           0       16.802806    6.130652   -1.702764
    149          1           0       18.215358    5.669430    0.821930
    150          1           0       18.925041    5.766313   -0.830881
    151          1           0       18.095525    4.259269   -0.235025
    152          1           0       16.462148    1.932006   -5.699434
    153          1           0       15.905527    3.321185   -4.711235
    154          1           0       14.701646    2.076645   -5.234720
    155          1           0       14.827035   -2.806050   -3.670074
    156          1           0       17.070900   -6.092903   -5.326752
    157          1           0       17.290860   -6.355563   -3.481056
    158          1           0       18.340903   -5.349037   -4.508955
 ---------------------------------------------------------------------

 SCF Done:  E(RCAM-B3LYP) =  -4069.81177542     A.U. after   19 cycles

 Excitation energies and oscillator strengths:

 Excited State   1:      Singlet-A      1.6756 eV  739.95 nm  f=0.3898  <S**2>=0.000
     310 -> 316        0.17356
     312 -> 313        0.68598
     310 <- 316        0.10460
 This state for optimization and/or second-order correction.
 Total Energy, E(TD-HF/TD-DFT) =  -4069.75019885
 Copying the excited state density for this state as the 1-particle RhoCI density.

 Excited State   2:      Singlet-A      1.6799 eV  738.07 nm  f=0.3864  <S**2>=0.000
     309 -> 315        0.17555
     311 -> 314        0.68563
     309 <- 315        0.10513

 Excited State   3:      Singlet-A      2.1861 eV  567.15 nm  f=0.1024  <S**2>=0.000
     310 -> 313        0.64248
     312 -> 316       -0.27307

 Excited State   4:      Singlet-A      2.1926 eV  565.47 nm  f=0.0986  <S**2>=0.000
     309 -> 314        0.64070
     311 -> 315       -0.27832

 Excited State   5:      Singlet-A      3.0660 eV  404.38 nm  f=0.0000  <S**2>=0.000
     311 -> 313        0.70711

 The electronic state is 1-A.
 Alpha  occ. eigenvalues --  -46.87796 -46.87660 -19.26345 -19.26290 -19.19157
 Alpha  occ. eigenvalues --  -19.19025 -19.18813 -19.18715 -19.18172 -19.18050
 Alpha  occ. eigenvalues --  -14.42496 -14.42450 -14.41449 -14.41359 -14.39403
 Alpha  occ. eigenvalues --  -14.39352 -14.38599 -14.38587 -10.39087 -10.39084
 Alpha  occ. eigenvalues --  -10.35446 -10.35393 -10.34392 -10.34227 -10.31750
 Alpha  occ. eigenvalues --  -10.31687 -10.31406 -10.31307 -10.31021 -10.30909
 Alpha  occ. eigenvalues --  -10.30570 -10.30507 -10.30398 -10.30360 -10.30206
 Alpha  occ. eigenvalues --  -10.30142 -10.29920 -10.29895 -10.29631 -10.29436
 Alpha  occ. eigenvalues --  -10.29401 -10.29254 -10.28751 -10.28714 -10.28647
 Alpha  occ. eigenvalues --  -10.28542 -10.28404 -10.28365 -10.28135 -10.28118
 Alpha  occ. eigenvalues --  -10.28001 -10.27793 -10.27727 -10.27667 -10.27584
 Alpha  occ. eigenvalues --  -10.27521 -10.27499 -10.27483 -10.27480 -10.27467
 Alpha  occ. eigenvalues --  -10.27463 -10.27447 -10.27404 -10.27379 -10.27161
 Alpha  occ. eigenvalues --  -10.27048 -10.26708 -10.26687 -10.26416 -10.26407
 Alpha  occ. eigenvalues --  -10.26235 -10.26181 -10.26142 -10.26019 -10.26017
 Alpha  occ. eigenvalues --  -10.25935 -10.25852 -10.25845 -10.25433 -10.25402
 Alpha  occ. eigenvalues --  -10.24872 -10.24833 -10.24787 -10.24735 -10.24690
 Alpha  occ. eigenvalues --  -10.24684  -3.16539  -3.16410  -1.91421  -1.91292
 Alpha  occ. eigenvalues --   -1.91007  -1.90881  -1.90850  -1.90718  -1.16639
 Alpha  occ. eigenvalues --   -1.16638  -1.08656  -1.08630  -1.07214  -1.06968
 Alpha  occ. eigenvalues --   -1.06941  -1.06647  -1.04581  -1.04494  -1.03760
 Alpha  occ. eigenvalues --   -1.03663  -1.03234  -1.03039  -1.02411  -1.02111
 Alpha  occ. eigenvalues --   -0.91986  -0.91973  -0.89519  -0.89496  -0.89189
 Alpha  occ. eigenvalues --   -0.89147  -0.88286  -0.88222  -0.87871  -0.87794
 Alpha  occ. eigenvalues --   -0.87683  -0.87673  -0.87273  -0.87120  -0.84997
 Alpha  occ. eigenvalues --   -0.84983  -0.83935  -0.83878  -0.82965  -0.82932
 Alpha  occ. eigenvalues --   -0.82650  -0.82649  -0.81594  -0.81588  -0.80597
 Alpha  occ. eigenvalues --   -0.80441  -0.78797  -0.78635  -0.77219  -0.77143
 Alpha  occ. eigenvalues --   -0.76936  -0.76896  -0.75925  -0.75836  -0.74897
 Alpha  occ. eigenvalues --   -0.74804  -0.72774  -0.72699  -0.71672  -0.71580
 Alpha  occ. eigenvalues --   -0.69905  -0.69760  -0.68874  -0.68825  -0.67641
 Alpha  occ. eigenvalues --   -0.67601  -0.67221  -0.67197  -0.65288  -0.65269
 Alpha  occ. eigenvalues --   -0.64855  -0.64770  -0.64652  -0.64622  -0.64269
 Alpha  occ. eigenvalues --   -0.64205  -0.62301  -0.62276  -0.60441  -0.60340
 Alpha  occ. eigenvalues --   -0.59805  -0.59793  -0.58992  -0.58988  -0.58504
 Alpha  occ. eigenvalues --   -0.58425  -0.57587  -0.57552  -0.57309  -0.57237
 Alpha  occ. eigenvalues --   -0.56310  -0.56203  -0.55982  -0.55883  -0.55520
 Alpha  occ. eigenvalues --   -0.55451  -0.55340  -0.55248  -0.54525  -0.54488
 Alpha  occ. eigenvalues --   -0.53908  -0.53896  -0.53299  -0.53227  -0.53223
 Alpha  occ. eigenvalues --   -0.53140  -0.52916  -0.52900  -0.52756  -0.52667
 Alpha  occ. eigenvalues --   -0.52437  -0.52404  -0.51916  -0.51885  -0.51656
 Alpha  occ. eigenvalues --   -0.51618  -0.51200  -0.51197  -0.50571  -0.50475
 Alpha  occ. eigenvalues --   -0.50030  -0.49978  -0.49918  -0.49869  -0.49515
 Alpha  occ. eigenvalues --   -0.49486  -0.49215  -0.49200  -0.49101  -0.49097
 Alpha  occ. eigenvalues --   -0.48594  -0.48556  -0.48460  -0.48445  -0.48377
 Alpha  occ. eigenvalues --   -0.48338  -0.47695  -0.47593  -0.47297  -0.47118
 Alpha  occ. eigenvalues --   -0.46797  -0.46708  -0.46557  -0.46551  -0.46359
 Alpha  occ. eigenvalues --   -0.46270  -0.46163  -0.46086  -0.45824  -0.45821
 Alpha  occ. eigenvalues --   -0.45210  -0.45200  -0.44579  -0.44513  -0.44506
 Alpha  occ. eigenvalues --   -0.44474  -0.44144  -0.44125  -0.44089  -0.44078
 Alpha  occ. eigenvalues --   -0.44020  -0.43938  -0.43551  -0.43497  -0.43386
 Alpha  occ. eigenvalues --   -0.43384  -0.43028  -0.42928  -0.42900  -0.42702
 Alpha  occ. eigenvalues --   -0.42655  -0.42555  -0.42009  -0.41964  -0.41705
 Alpha  occ. eigenvalues --   -0.41668  -0.41535  -0.41456  -0.41141  -0.40988
 Alpha  occ. eigenvalues --   -0.40869  -0.40822  -0.40721  -0.40697  -0.40571
 Alpha  occ. eigenvalues --   -0.40494  -0.40236  -0.40223  -0.39439  -0.39428
 Alpha  occ. eigenvalues --   -0.38468  -0.38351  -0.37750  -0.37650  -0.37320
 Alpha  occ. eigenvalues --   -0.37266  -0.37265  -0.37197  -0.36768  -0.36716
 Alpha  occ. eigenvalues --   -0.36217  -0.36194  -0.34286  -0.34253  -0.33859
 Alpha  occ. eigenvalues --   -0.33775  -0.33187  -0.33175  -0.31343  -0.31274
 Alpha  occ. eigenvalues --   -0.31036  -0.30972  -0.30031  -0.29954  -0.29449
 Alpha  occ. eigenvalues --   -0.29327  -0.29322  -0.29211  -0.24081  -0.24036
 Alpha  occ. eigenvalues --   -0.21128  -0.21117
 Alpha virt. eigenvalues --   -0.08792  -0.08774  -0.01749  -0.01684  -0.00058
 Alpha virt. eigenvalues --   -0.00028   0.02199   0.02207   0.03122   0.03227
 Alpha virt. eigenvalues --    0.04717   0.04732   0.05094   0.05168   0.06174

 Mulliken charges:
               1
     1  Mg   0.838728
     2  C   -0.002968
     3  C   -0.094119
     4  C   -0.045845
     5  C   -0.063959
     6  N   -0.256763
     7  C   -0.052468
     8  C   -0.014016
     9  C   -0.087005
    10  C    0.046313
    11  C    0.104814
    12  C    0.053476
    13  C   -0.071795
    14  H    0.036074
    15  N   -0.433138
    16  C    0.168442
    17  C   -0.177143
    18  C   -0.003984
    19  C    0.148705
    20  C    0.110180
    21  C    0.012298
    22  O   -0.249591
    23  C    0.062463
    24  N   -0.341152
    25  C    0.041257
    26  C   -0.028183
    27  C   -0.023995
    28  C    0.074856
    29  C    0.076167
    30  C    0.035141
    31  C   -0.004516
    32  N   -0.310478
    33  C    0.080396
    34  C   -0.169721
    35  C    0.008332
    36  C    0.082972
    37  C    0.127314
    38  C    0.046100
    39  O   -0.188498
    40  C   -0.005336
    41  C    0.212873
    42  O   -0.257128
    43  O   -0.304787
    44  C    0.157710
    45  H   -0.017592
    46  H   -0.016809
    47  H   -0.041490
    48  H    0.000919
    49  H   -0.004029
    50  H    0.025466
    51  H    0.016462
    52  H    0.016663
    53  H    0.011217
    54  H    0.044096
    55  H    0.017870
    56  H    0.017968
    57  H    0.005874
    58  H    0.026844
    59  H    0.039575
    60  H    0.037353
    61  H    0.035688
    62  H    0.031513
    63  H    0.016580
    64  H    0.009466
    65  H    0.023241
    66  H    0.012544
    67  H    0.004759
    68  H    0.006394
    69  H    0.004723
    70  H    0.008806
    71  H    0.018153
    72  H    0.028961
    73  H    0.047533
    74  H    0.009121
    75  H    0.046001
    76  H    0.035144
    77  H    0.042914
    78  H    0.046407
    79  H    0.053644
    80  Mg   0.837857
    81  C   -0.016803
    82  C   -0.087760
    83  C   -0.045520
    84  C   -0.064889
    85  N   -0.254578
    86  C   -0.049830
    87  C   -0.015075
    88  C   -0.090511
    89  C    0.045762
    90  C    0.114355
    91  C    0.062512
    92  C   -0.077932
    93  H    0.034913
    94  N   -0.423499
    95  C    0.162932
    96  C   -0.174592
    97  C   -0.007818
    98  C    0.152115
    99  C    0.099344
   100  C    0.015572
   101  O   -0.253210
   102  C    0.061198
   103  N   -0.350069
   104  C    0.037530
   105  C   -0.019838
   106  C   -0.034816
   107  C    0.088938
   108  C    0.073651
   109  C    0.034744
   110  C   -0.007679
   111  N   -0.324119
   112  C    0.078428
   113  C   -0.163135
   114  C    0.002259
   115  C    0.096192
   116  C    0.131490
   117  C    0.042377
   118  O   -0.187860
   119  C    0.000909
   120  C    0.211288
   121  O   -0.251053
   122  O   -0.305609
   123  C    0.152018
   124  H   -0.019594
   125  H   -0.015591
   126  H   -0.040476
   127  H   -0.000598
   128  H   -0.004287
   129  H    0.022497
   130  H    0.014431
   131  H    0.016384
   132  H    0.013908
   133  H    0.037663
   134  H    0.020847
   135  H    0.019620
   136  H    0.008817
   137  H    0.026170
   138  H    0.039804
   139  H    0.038273
   140  H    0.036376
   141  H    0.033904
   142  H    0.014385
   143  H    0.012414
   144  H    0.025108
   145  H    0.011664
   146  H    0.005672
   147  H    0.006235
   148  H    0.003643
   149  H    0.010923
   150  H    0.017920
   151  H    0.030123
   152  H    0.046002
   153  H    0.008489
   154  H    0.046967
   155  H    0.035088
   156  H    0.043939
   157  H    0.049524
   158  H    0.053567
 Sum of Mulliken charges =  -0.00000

 Dipole moment (field-independent basis, Debye):
    X=             -4.2057    Y=              1.6809    Z=              5.4199  Tot=              7.0632
 Quadrupole moment (field-independent basis, Debye-Ang):
   XX=           -517.2974   YY=           -501.9568   ZZ=           -496.9953
   XY=            -83.6951   XZ=             22.9536   YZ=             -2.6634

 Normal termination of Gaussian 16 at Sat Sep  4 20:52:58 2021.
