 Gaussian 16, Revision A.03,
 Gaussian 16:  ES64L-G16RevA.03 25-Dec-2016

 -----------------------------------
 #p cam-b3lyp/Def2SVP td=(nstates=5)
 -----------------------------------

 --------------------------------
 TDDFT excited states in gaussian
 --------------------------------
 Symbolic Z-matrix:
 Charge =  0 Multiplicity = 1

                         Standard orientation:
 ---------------------------------------------------------------------
 Center     Atomic      Atomic             Coordinates (Angstroms)
 Number     Number       Type             X           Y           Z
 ---------------------------------------------------------------------
      1         12           0        4.491811   -0.552212    1.054450
      2          6           0        5.123170    2.353095   -0.938736
      3          6           0        4.683497    1.469857    3.796267
      4          6           0        4.389488   -3.162714    2.852069
      5          6           0        5.468099   -2.465856   -1.689723
      6          7           0        4.859375    1.619915    1.272184
      7          6           0        5.026704    2.631780    0.426429
      8          6           0        5.014322    4.026227    1.121222
      9          6           0        5.441611    3.579077    2.590738
     10          6           0        4.933801    2.148180    2.566528
     11          6           0        6.951344    3.560884    2.807248
     12          6           0        3.592551    4.682143    1.112648
     13          6           0        3.557132    6.169880    1.474225
     14          1           0        2.594710    7.030838    0.803522
     15          7           0        4.051974   -0.773907    2.967627
     16          6           0        4.175883    0.160525    3.940647
     17          6           0        3.721858   -0.488605    5.189316
     18          6           0        3.503670   -1.932788    4.898069
     19          6           0        4.004545   -2.020539    3.550181
     20          6           0        3.492549    0.257099    6.468023
     21          6           0        2.943823   -3.057760    5.709944
     22          8           0        3.057870   -4.279110    5.349566
     23          6           0        2.327861   -2.694536    6.999014
     24          7           0        5.080332   -2.527638    0.724345
     25          6           0        4.870661   -3.473413    1.646588
     26          6           0        5.109379   -4.844389    1.086785
     27          6           0        5.292413   -4.653187   -0.487920
     28          6           0        5.202792   -3.108397   -0.550065
     29          6           0        6.320982   -5.597136    1.653707
     30          6           0        4.364330   -5.483522   -1.409671
     31          6           0        2.935554   -5.011264   -1.259104
     32          7           0        5.007986   -0.168911   -1.018637
     33          6           0        5.405589   -1.112520   -1.976859
     34          6           0        5.753140   -0.366027   -3.199980
     35          6           0        5.548084    0.969932   -2.860845
     36          6           0        5.125967    1.054559   -1.503293
     37          6           0        6.249453   -0.930490   -4.408072
     38          6           0        5.611048    2.347324   -3.322023
     39          8           0        5.813099    2.889253   -4.409672
     40          6           0        5.455808    3.305890   -2.059930
     41          6           0        4.441220    4.359590   -2.411550
     42          8           0        3.243464    4.059400   -2.592194
     43          8           0        4.986813    5.574453   -2.247298
     44          6           0        4.023288    6.665954   -2.551267
     45          1           0        4.954560    1.959359    4.733739
     46          1           0        4.263077   -4.097338    3.402465
     47          1           0        5.699768   -3.001644   -2.612065
     48          1           0        5.737580    4.738500    0.723743
     49          1           0        4.921879    4.152686    3.357923
     50          1           0        7.489563    3.734134    1.875462
     51          1           0        7.177320    2.568784    3.198613
     52          1           0        7.239024    4.264135    3.589205
     53          1           0        3.004838    4.276979    1.936357
     54          1           0        3.105024    4.533747    0.148479
     55          1           0        4.553304    6.611968    1.440948
     56          1           0        3.255190    6.260670    2.517675
     57          1           0        3.895407    1.268006    6.419885
     58          1           0        4.088268   -0.236436    7.235650
     59          1           0        2.442472    0.256628    6.760718
     60          1           0        3.067788   -2.192366    7.622619
     61          1           0        1.903319   -3.614547    7.399256
     62          1           0        1.534780   -1.968160    6.819155
     63          1           0        4.256085   -5.495916    1.270706
     64          1           0        6.298081   -4.915156   -0.817584
     65          1           0        6.070807   -6.565092    2.088655
     66          1           0        6.805468   -4.952562    2.386570
     67          1           0        7.129822   -5.762881    0.942565
     68          1           0        4.386716   -6.534342   -1.122929
     69          1           0        4.636743   -5.421383   -2.463322
     70          1           0        2.592013   -5.552015   -0.377969
     71          1           0        2.350083   -5.284345   -2.137660
     72          1           0        2.890425   -3.947142   -1.026522
     73          1           0        5.716934   -0.432972   -5.218546
     74          1           0        6.093447   -2.008708   -4.434735
     75          1           0        7.303602   -0.662707   -4.337940
     76          1           0        6.439616    3.732838   -1.867679
     77          1           0        4.483088    7.297508   -3.311502
     78          1           0        3.766849    7.127440   -1.597498
     79          1           0        3.103972    6.370167   -3.057930
     80         12           0       -4.240506   -0.730409   -1.066256
     81          6           0       -6.250656    1.522428    0.873612
     82          6           0       -3.378017    1.942659   -3.001563
     83          6           0       -2.825083   -2.755001   -3.057487
     84          6           0       -6.119529   -3.341291    0.274744
     85          7           0       -4.805690    1.406059   -0.975054
     86          6           0       -5.527183    2.157639   -0.157172
     87          6           0       -5.406363    3.684133   -0.411727
     88          6           0       -4.967009    3.636431   -1.955615
     89          6           0       -4.309171    2.258273   -1.980061
     90          6           0       -6.144462    3.620769   -2.916184
     91          6           0       -4.301695    4.353124    0.479434
     92          6           0       -4.338921    5.882655    0.509652
     93          1           0       -3.987082    6.563029    1.752944
     94          7           0       -2.872290   -0.408563   -2.467322
     95          6           0       -2.644060    0.743290   -3.132468
     96          6           0       -1.548220    0.455656   -4.070849
     97          6           0       -1.259214   -1.003369   -4.021490
     98          6           0       -2.345334   -1.458821   -3.177103
     99          6           0       -0.834893    1.527890   -4.842150
    100          6           0       -0.190570   -1.850564   -4.643162
    101          8           0       -0.269894   -3.129726   -4.659621
    102          6           0        0.905082   -1.135883   -5.314176
    103          7           0       -4.576013   -2.732274   -1.516042
    104          6           0       -3.782435   -3.389086   -2.380200
    105          6           0       -4.041430   -4.876169   -2.336512
    106          6           0       -5.008549   -5.107206   -1.083963
    107          6           0       -5.222330   -3.638954   -0.655099
    108          6           0       -4.678727   -5.477494   -3.588963
    109          6           0       -4.540281   -6.129540   -0.012406
    110          6           0       -3.318889   -5.601914    0.705363
    111          7           0       -5.761273   -0.930563    0.455339
    112          6           0       -6.432503   -2.111817    0.840271
    113          6           0       -7.458894   -1.726385    1.830417
    114          6           0       -7.327968   -0.333520    1.936548
    115          6           0       -6.306674    0.119784    1.058498
    116          6           0       -8.382512   -2.609238    2.457822
    117          6           0       -7.828700    0.857685    2.583848
    118          8           0       -8.633627    1.082627    3.486750
    119          6           0       -7.239398    2.127542    1.831132
    120          6           0       -6.715473    3.081319    2.869554
    121          8           0       -5.744534    2.769699    3.581423
    122          8           0       -7.303691    4.280001    2.703619
    123          6           0       -6.808254    5.263133    3.703529
    124          1           0       -3.224022    2.664364   -3.804261
    125          1           0       -2.294733   -3.509919   -3.642559
    126          1           0       -6.679989   -4.109185    0.812226
    127          1           0       -6.331982    4.237046   -0.305474
    128          1           0       -4.238839    4.410607   -2.183160
    129          1           0       -7.086562    3.524707   -2.397191
    130          1           0       -5.982352    2.771069   -3.566413
    131          1           0       -6.116436    4.503598   -3.561287
    132          1           0       -3.321295    4.198264    0.010853
    133          1           0       -4.337133    3.970945    1.481089
    134          1           0       -5.278333    6.280147    0.106597
    135          1           0       -3.573270    6.261924   -0.171488
    136          1           0       -1.375481    2.481473   -4.799343
    137          1           0       -0.873256    1.241099   -5.898626
    138          1           0        0.209810    1.637468   -4.543404
    139          1           0        0.497061   -0.507119   -6.101971
    140          1           0        1.615047   -1.907830   -5.617377
    141          1           0        1.380138   -0.464618   -4.590061
    142          1           0       -3.121257   -5.424409   -2.175837
    143          1           0       -5.991911   -5.490477   -1.393702
    144          1           0       -4.081182   -6.296139   -4.032650
    145          1           0       -4.830802   -4.684380   -4.308949
    146          1           0       -5.687669   -5.863462   -3.453863
    147          1           0       -4.240067   -7.066294   -0.488353
    148          1           0       -5.305212   -6.370271    0.718297
    149          1           0       -2.500151   -5.875817    0.033245
    150          1           0       -3.208981   -6.080053    1.676619
    151          1           0       -3.341532   -4.507770    0.768509
    152          1           0       -8.414820   -2.334177    3.503664
    153          1           0       -8.089384   -3.648982    2.328269
    154          1           0       -9.292258   -2.366928    1.902027
    155          1           0       -8.048013    2.564995    1.244309
    156          1           0       -7.685426    5.656718    4.226355
    157          1           0       -6.195284    5.986171    3.133240
    158          1           0       -6.221260    4.883329    4.531564
 ---------------------------------------------------------------------

 SCF Done:  E(RCAM-B3LYP) =  -4069.81375750     A.U. after   18 cycles

 Excitation energies and oscillator strengths:

 Excited State   1:      Singlet-A      1.6442 eV  754.08 nm  f=0.0704  <S**2>=0.000
     309 -> 315       -0.11621
     310 -> 316       -0.11928
     311 -> 313        0.47854
     312 -> 314        0.49408
 This state for optimization and/or second-order correction.
 Total Energy, E(TD-HF/TD-DFT) =  -4069.75333507
 Copying the excited state density for this state as the 1-particle RhoCI density.

 Excited State   2:      Singlet-A      1.7058 eV  726.83 nm  f=0.6464  <S**2>=0.000
     309 -> 315       -0.13116
     310 -> 316        0.12602
     311 -> 313        0.49136
     312 -> 314       -0.47613

 Excited State   3:      Singlet-A      2.1859 eV  567.21 nm  f=0.0039  <S**2>=0.000
     309 -> 313       -0.40950
     310 -> 314        0.49728
     311 -> 315       -0.17183
     312 -> 316        0.20945

 Excited State   4:      Singlet-A      2.1976 eV  564.18 nm  f=0.1712  <S**2>=0.000
     309 -> 313        0.49372
     310 -> 314        0.40561
     311 -> 315        0.21771
     312 -> 316        0.17853

 Excited State   5:      Singlet-A      2.3866 eV  519.51 nm  f=0.0000  <S**2>=0.000
     312 -> 313        0.70692

 The electronic state is 1-A.
 Alpha  occ. eigenvalues --  -46.87815 -46.87397 -19.26582 -19.26256 -19.19358
 Alpha  occ. eigenvalues --  -19.19053 -19.18773 -19.18383 -19.18322 -19.17826
 Alpha  occ. eigenvalues --  -14.42476 -14.42237 -14.41444 -14.41099 -14.39416
 Alpha  occ. eigenvalues --  -14.39073 -14.38635 -14.38339 -10.39386 -10.38973
 Alpha  occ. eigenvalues --  -10.35400 -10.35039 -10.34547 -10.34012 -10.31996
 Alpha  occ. eigenvalues --  -10.31710 -10.31465 -10.31062 -10.30942 -10.30735
 Alpha  occ. eigenvalues --  -10.30621 -10.30537 -10.30152 -10.30150 -10.30086
 Alpha  occ. eigenvalues --  -10.29930 -10.29850 -10.29680 -10.29662 -10.29255
 Alpha  occ. eigenvalues --  -10.29122 -10.29093 -10.28827 -10.28673 -10.28537
 Alpha  occ. eigenvalues --  -10.28502 -10.28415 -10.28174 -10.28117 -10.27904
 Alpha  occ. eigenvalues --  -10.27849 -10.27747 -10.27706 -10.27599 -10.27456
 Alpha  occ. eigenvalues --  -10.27420 -10.27379 -10.27364 -10.27359 -10.27321
 Alpha  occ. eigenvalues --  -10.27302 -10.27229 -10.27185 -10.27131 -10.26857
 Alpha  occ. eigenvalues --  -10.26818 -10.26722 -10.26510 -10.26294 -10.26284
 Alpha  occ. eigenvalues --  -10.25997 -10.25940 -10.25933 -10.25906 -10.25860
 Alpha  occ. eigenvalues --  -10.25811 -10.25666 -10.25640 -10.25367 -10.25236
 Alpha  occ. eigenvalues --  -10.24915 -10.24797 -10.24598 -10.24521 -10.24442
 Alpha  occ. eigenvalues --  -10.24245  -3.16557  -3.16148  -1.91439  -1.91031
 Alpha  occ. eigenvalues --   -1.91025  -1.90868  -1.90619  -1.90455  -1.16932
 Alpha  occ. eigenvalues --   -1.16545  -1.08802  -1.08451  -1.07170  -1.06964
 Alpha  occ. eigenvalues --   -1.06834  -1.06637  -1.04617  -1.04231  -1.03766
 Alpha  occ. eigenvalues --   -1.03399  -1.03258  -1.02773  -1.02434  -1.01844
 Alpha  occ. eigenvalues --   -0.92050  -0.91742  -0.89454  -0.89253  -0.89246
 Alpha  occ. eigenvalues --   -0.88927  -0.88209  -0.87996  -0.87937  -0.87697
 Alpha  occ. eigenvalues --   -0.87542  -0.87419  -0.87253  -0.86678  -0.85036
 Alpha  occ. eigenvalues --   -0.84766  -0.83850  -0.83665  -0.82887  -0.82682
 Alpha  occ. eigenvalues --   -0.82584  -0.82317  -0.81718  -0.81410  -0.80655
 Alpha  occ. eigenvalues --   -0.80200  -0.78802  -0.78266  -0.77221  -0.76990
 Alpha  occ. eigenvalues --   -0.76868  -0.76701  -0.75997  -0.75592  -0.74860
 Alpha  occ. eigenvalues --   -0.74575  -0.72796  -0.72428  -0.71703  -0.71344
 Alpha  occ. eigenvalues --   -0.69735  -0.69536  -0.68916  -0.68578  -0.67682
 Alpha  occ. eigenvalues --   -0.67346  -0.67266  -0.66926  -0.65356  -0.65047
 Alpha  occ. eigenvalues --   -0.64922  -0.64649  -0.64536  -0.64431  -0.64201
 Alpha  occ. eigenvalues --   -0.63975  -0.62439  -0.62103  -0.60417  -0.59983
 Alpha  occ. eigenvalues --   -0.59859  -0.59551  -0.59022  -0.58749  -0.58548
 Alpha  occ. eigenvalues --   -0.58178  -0.57751  -0.57364  -0.57304  -0.56964
 Alpha  occ. eigenvalues --   -0.56377  -0.56136  -0.55928  -0.55686  -0.55546
 Alpha  occ. eigenvalues --   -0.55359  -0.55157  -0.55036  -0.54554  -0.54304
 Alpha  occ. eigenvalues --   -0.53963  -0.53688  -0.53309  -0.53266  -0.53008
 Alpha  occ. eigenvalues --   -0.52973  -0.52863  -0.52742  -0.52673  -0.52245
 Alpha  occ. eigenvalues --   -0.52226  -0.52176  -0.52000  -0.51672  -0.51660
 Alpha  occ. eigenvalues --   -0.51372  -0.51236  -0.50972  -0.50496  -0.50019
 Alpha  occ. eigenvalues --   -0.49968  -0.49861  -0.49630  -0.49571  -0.49551
 Alpha  occ. eigenvalues --   -0.49279  -0.49182  -0.49166  -0.48898  -0.48875
 Alpha  occ. eigenvalues --   -0.48703  -0.48490  -0.48413  -0.48332  -0.48170
 Alpha  occ. eigenvalues --   -0.47983  -0.47704  -0.47306  -0.47298  -0.46798
 Alpha  occ. eigenvalues --   -0.46785  -0.46620  -0.46466  -0.46394  -0.46306
 Alpha  occ. eigenvalues --   -0.46187  -0.45980  -0.45942  -0.45852  -0.45631
 Alpha  occ. eigenvalues --   -0.45143  -0.44983  -0.44679  -0.44489  -0.44297
 Alpha  occ. eigenvalues --   -0.44231  -0.44202  -0.44070  -0.44020  -0.43893
 Alpha  occ. eigenvalues --   -0.43821  -0.43612  -0.43573  -0.43395  -0.43377
 Alpha  occ. eigenvalues --   -0.43154  -0.43066  -0.42917  -0.42763  -0.42661
 Alpha  occ. eigenvalues --   -0.42546  -0.42284  -0.41947  -0.41746  -0.41743
 Alpha  occ. eigenvalues --   -0.41559  -0.41435  -0.41233  -0.41174  -0.40882
 Alpha  occ. eigenvalues --   -0.40794  -0.40752  -0.40488  -0.40479  -0.40393
 Alpha  occ. eigenvalues --   -0.40301  -0.40279  -0.39984  -0.39239  -0.39207
 Alpha  occ. eigenvalues --   -0.38407  -0.38139  -0.37828  -0.37459  -0.37333
 Alpha  occ. eigenvalues --   -0.37274  -0.37031  -0.36946  -0.36924  -0.36639
 Alpha  occ. eigenvalues --   -0.36228  -0.36010  -0.34325  -0.34056  -0.34002
 Alpha  occ. eigenvalues --   -0.33725  -0.33223  -0.32913  -0.31307  -0.31064
 Alpha  occ. eigenvalues --   -0.30949  -0.30714  -0.30188  -0.29742  -0.29488
 Alpha  occ. eigenvalues --   -0.29374  -0.29019  -0.28920  -0.24108  -0.23778
 Alpha  occ. eigenvalues --   -0.21149  -0.20838
 Alpha virt. eigenvalues --   -0.08801  -0.08498  -0.01753  -0.01420  -0.00073
 Alpha virt. eigenvalues --    0.00296   0.02119   0.02446   0.02815   0.03727
 Alpha virt. eigenvalues --    0.04676   0.04824   0.04957   0.05298   0.06069

 Mulliken charges:
               1
     1  Mg   0.839143
     2  C   -0.004114
     3  C   -0.093733
     4  C   -0.045362
     5  C   -0.062456
     6  N   -0.257029
     7  C   -0.052636
     8  C   -0.014193
     9  C   -0.087156
    10  C    0.046716
    11  C    0.104729
    12  C    0.053327
    13  C   -0.071414
    14  H    0.033949
    15  N   -0.433393
    16  C    0.169242
    17  C   -0.176179
    18  C   -0.003174
    19  C    0.149147
    20  C    0.109910
    21  C    0.013059
    22  O   -0.249184
    23  C    0.061906
    24  N   -0.341462
    25  C    0.042067
    26  C   -0.028192
    27  C   -0.023944
    28  C    0.075268
    29  C    0.076224
    30  C    0.034658
    31  C   -0.006099
    32  N   -0.309495
    33  C    0.078850
    34  C   -0.172616
    35  C    0.005990
    36  C    0.080995
    37  C    0.127658
    38  C    0.042776
    39  O   -0.190492
    40  C   -0.004376
    41  C    0.213352
    42  O   -0.261509
    43  O   -0.303666
    44  C    0.158338
    45  H   -0.017233
    46  H   -0.016211
    47  H   -0.040591
    48  H    0.000483
    49  H   -0.003558
    50  H    0.025320
    51  H    0.016802
    52  H    0.016917
    53  H    0.012600
    54  H    0.042184
    55  H    0.018062
    56  H    0.019067
    57  H    0.006004
    58  H    0.027048
    59  H    0.042018
    60  H    0.037164
    61  H    0.036188
    62  H    0.033620
    63  H    0.017335
    64  H    0.008946
    65  H    0.023312
    66  H    0.012062
    67  H    0.004830
    68  H    0.005502
    69  H    0.005666
    70  H    0.006169
    71  H    0.028675
    72  H    0.027641
    73  H    0.044720
    74  H    0.010745
    75  H    0.046237
    76  H    0.035592
    77  H    0.043242
    78  H    0.047241
    79  H    0.050910
    80  Mg   0.836707
    81  C   -0.017052
    82  C   -0.084647
    83  C   -0.046079
    84  C   -0.065058
    85  N   -0.254475
    86  C   -0.050886
    87  C   -0.015063
    88  C   -0.090666
    89  C    0.045297
    90  C    0.114389
    91  C    0.061974
    92  C   -0.077100
    93  H    0.032086
    94  N   -0.423908
    95  C    0.163162
    96  C   -0.171406
    97  C   -0.008089
    98  C    0.151960
    99  C    0.096981
   100  C    0.015451
   101  O   -0.256863
   102  C    0.059368
   103  N   -0.350120
   104  C    0.038125
   105  C   -0.019746
   106  C   -0.034421
   107  C    0.088328
   108  C    0.073967
   109  C    0.034937
   110  C   -0.007365
   111  N   -0.323726
   112  C    0.077347
   113  C   -0.164171
   114  C    0.001686
   115  C    0.095279
   116  C    0.131740
   117  C    0.041414
   118  O   -0.189712
   119  C    0.001082
   120  C    0.211265
   121  O   -0.252128
   122  O   -0.305396
   123  C    0.152484
   124  H   -0.018647
   125  H   -0.016518
   126  H   -0.041370
   127  H   -0.001454
   128  H   -0.003338
   129  H    0.021954
   130  H    0.014604
   131  H    0.016094
   132  H    0.015853
   133  H    0.036504
   134  H    0.020545
   135  H    0.020093
   136  H    0.008845
   137  H    0.024379
   138  H    0.056885
   139  H    0.039335
   140  H    0.031946
   141  H    0.044327
   142  H    0.013557
   143  H    0.011754
   144  H    0.024203
   145  H    0.011762
   146  H    0.005354
   147  H    0.005311
   148  H    0.003252
   149  H    0.010350
   150  H    0.018361
   151  H    0.030289
   152  H    0.044845
   153  H    0.007968
   154  H    0.046170
   155  H    0.034545
   156  H    0.043415
   157  H    0.049323
   158  H    0.052419
 Sum of Mulliken charges =  -0.00000

 Dipole moment (field-independent basis, Debye):
    X=              2.5595    Y=              3.0955    Z=              0.6282  Tot=              4.0655
 Quadrupole moment (field-independent basis, Debye-Ang):
   XX=           -527.4079   YY=           -463.1439   ZZ=           -519.6826
   XY=              4.0597   XZ=             47.3466   YZ=             16.3048

 Normal termination of Gaussian 16 at Thu Sep  9 15:36:52 2021.
