 Gaussian 16, Revision A.03,
 Gaussian 16:  ES64L-G16RevA.03 25-Dec-2016

 -----------------------------------
 #p cam-b3lyp/Def2SVP td=(nstates=5)
 -----------------------------------

 --------------------------------
 TDDFT excited states in gaussian
 --------------------------------
 Symbolic Z-matrix:
 Charge =  0 Multiplicity = 1

                         Standard orientation:
 ---------------------------------------------------------------------
 Center     Atomic      Atomic             Coordinates (Angstroms)
 Number     Number       Type             X           Y           Z
 ---------------------------------------------------------------------
      1         12           0        6.347625    0.682351    0.037928
      2          6           0        6.698388   -2.480362   -1.601102
      3          6           0        7.224617    2.143723   -2.918141
      4          6           0        6.487597    3.453077    1.574192
      5          6           0        6.615716   -1.023208    3.065279
      6          7           0        6.869698   -0.166918   -1.938641
      7          6           0        6.908468   -1.392675   -2.451659
      8          6           0        7.118844   -1.409992   -3.995296
      9          6           0        7.822927    0.009859   -4.169337
     10          6           0        7.245011    0.717842   -2.956615
     11          6           0        9.341028   -0.041808   -4.030768
     12          6           0        5.765055   -1.478052   -4.779104
     13          6           0        5.887407   -1.825887   -6.265507
     14          1           0        4.852678   -2.643153   -6.880941
     15          7           0        6.311699    2.533136   -0.652112
     16          6           0        6.689167    2.944730   -1.886371
     17          6           0        6.475563    4.407755   -1.911171
     18          6           0        6.122986    4.839595   -0.530121
     19          6           0        6.321504    3.614061    0.200656
     20          6           0        6.562915    5.231005   -3.159521
     21          6           0        5.687907    6.151576    0.042195
     22          8           0        5.656919    6.367338    1.301980
     23          6           0        5.379501    7.220346   -0.925099
     24          7           0        6.745333    1.186189    2.024285
     25          6           0        6.685015    2.456238    2.439400
     26          6           0        6.725362    2.543926    3.936270
     27          6           0        6.580743    1.046252    4.470884
     28          6           0        6.563532    0.310010    3.108562
     29          6           0        7.987105    3.180148    4.535633
     30          6           0        5.435029    0.765731    5.475407
     31          6           0        4.098197    0.921226    4.785625
     32          7           0        6.432896   -1.394190    0.663829
     33          6           0        6.566967   -1.874947    1.974390
     34          6           0        6.687340   -3.341850    1.886222
     35          6           0        6.631209   -3.612866    0.520482
     36          6           0        6.511423   -2.390477   -0.200426
     37          6           0        6.885278   -4.229060    2.980805
     38          6           0        6.669333   -4.648863   -0.498888
     39          8           0        6.665375   -5.880632   -0.483989
     40          6           0        6.836937   -3.948422   -1.919141
     41          6           0        5.829297   -4.564098   -2.851297
     42          8           0        4.606035   -4.389024   -2.677097
     43          8           0        6.462081   -5.058090   -3.926517
     44          6           0        5.516404   -5.657463   -4.905598
     45          1           0        7.714127    2.700416   -3.719648
     46          1           0        6.430364    4.378176    2.151560
     47          1           0        6.617486   -1.628932    3.973326
     48          1           0        7.778876   -2.199449   -4.355213
     49          1           0        7.509237    0.510098   -5.085351
     50          1           0        9.678216   -1.026245   -3.706561
     51          1           0        9.590871    0.711421   -3.283294
     52          1           0        9.825353    0.279351   -4.953299
     53          1           0        5.344155   -0.475650   -4.857173
     54          1           0        5.077077   -2.176157   -4.300917
     55          1           0        6.876310   -2.219224   -6.502713
     56          1           0        5.818690   -0.901658   -6.839335
     57          1           0        7.000415    4.666305   -3.981867
     58          1           0        7.280178    6.028276   -2.965608
     59          1           0        5.600205    5.661666   -3.435296
     60          1           0        6.260737    7.418465   -1.535607
     61          1           0        5.000331    8.056479   -0.338615
     62          1           0        4.606721    6.866270   -1.608026
     63          1           0        5.896484    3.140194    4.315548
     64          1           0        7.478117    0.708848    4.990069
     65          1           0        7.782848    4.039491    5.174783
     66          1           0        8.649910    3.452145    3.714660
     67          1           0        8.616804    2.497324    5.105413
     68          1           0        5.460874    1.487355    6.291211
     69          1           0        5.481027   -0.231517    5.913165
     70          1           0        3.920407    1.994738    4.838484
     71          1           0        3.326046    0.370638    5.323999
     72          1           0        4.160878    0.652868    3.730855
     73          1           0        6.220827   -5.076165    2.810842
     74          1           0        6.669182   -3.740457    3.930632
     75          1           0        7.943248   -4.462692    2.862599
     76          1           0        7.860727   -4.135075   -2.241843
     77          1           0        5.838152   -6.685112   -5.074864
     78          1           0        5.493109   -4.986573   -5.764532
     79          1           0        4.496030   -5.816393   -4.555002
     80         12           0       -6.860501    0.195260   -0.210618
     81          6           0       -5.156999   -1.486043    2.463402
     82          6           0       -5.927164    3.136136    1.243603
     83          6           0       -8.723724    1.700725   -2.291338
     84          6           0       -8.587078   -2.775533   -0.792877
     85          7           0       -5.693481    0.638117    1.615366
     86          6           0       -5.044362   -0.081154    2.518498
     87          6           0       -4.163380    0.749299    3.489974
     88          6           0       -4.934429    2.153141    3.373375
     89          6           0       -5.530630    1.989288    1.976816
     90          6           0       -6.075918    2.297076    4.366152
     91          6           0       -2.678222    0.867039    2.997576
     92          6           0       -1.694314    1.397400    4.042749
     93          1           0       -0.334704    0.864622    4.052284
     94          7           0       -6.877394    2.096949   -0.777938
     95          6           0       -6.438368    3.160459   -0.072609
     96          6           0       -6.689987    4.336621   -0.919654
     97          6           0       -7.463569    3.898368   -2.113060
     98          6           0       -7.742278    2.521908   -1.755638
     99          6           0       -6.142708    5.698449   -0.604476
    100          6           0       -7.893690    4.605252   -3.362664
    101          8           0       -8.762236    4.098921   -4.157716
    102          6           0       -7.338061    5.948940   -3.580106
    103          7           0       -8.576598   -0.374826   -1.236443
    104          6           0       -9.159796    0.452384   -2.121622
    105          6           0      -10.208222   -0.269503   -2.934077
    106          6           0      -10.038307   -1.818711   -2.575362
    107          6           0       -8.931764   -1.710356   -1.503343
    108          6           0      -11.654622    0.155414   -2.681593
    109          6           0       -9.823741   -2.796660   -3.762899
    110          6           0       -8.481399   -2.538048   -4.408384
    111          7           0       -6.762287   -1.831753    0.530754
    112          6           0       -7.596279   -2.912965    0.170866
    113          6           0       -7.218079   -4.057552    1.024873
    114          6           0       -6.197834   -3.552171    1.844729
    115          6           0       -5.971031   -2.183199    1.538171
    116          6           0       -7.828862   -5.343198    1.011283
    117          6           0       -5.268453   -3.862538    2.907097
    118          8           0       -4.944286   -4.887283    3.505878
    119          6           0       -4.640194   -2.503964    3.441847
    120          6           0       -3.150583   -2.688093    3.540139
    121          8           0       -2.466823   -2.865979    2.516692
    122          8           0       -2.753854   -2.408294    4.795002
    123          6           0       -1.282089   -2.565959    4.939502
    124          1           0       -5.882865    4.107829    1.736286
    125          1           0       -9.321092    2.141107   -3.093023
    126          1           0       -9.011056   -3.764375   -0.980233
    127          1           0       -4.171165    0.405012    4.517183
    128          1           0       -4.239449    2.988538    3.395662
    129          1           0       -6.256025    1.380867    4.908604
    130          1           0       -6.944242    2.566092    3.779042
    131          1           0       -5.890032    3.142891    5.034273
    132          1           0       -2.610801    1.669549    2.251803
    133          1           0       -2.327976   -0.072017    2.615314
    134          1           0       -2.119595    1.383534    5.053640
    135          1           0       -1.512929    2.456235    3.842794
    136          1           0       -5.753842    5.748459    0.420071
    137          1           0       -6.990344    6.392250   -0.607445
    138          1           0       -5.406722    6.036533   -1.337066
    139          1           0       -7.604218    6.589627   -2.742765
    140          1           0       -7.691056    6.254975   -4.566828
    141          1           0       -6.244631    5.878417   -3.587290
    142          1           0      -10.036814   -0.133556   -3.994851
    143          1           0      -10.928486   -2.219647   -2.068734
    144          1           0      -12.175447    0.496146   -3.596323
    145          1           0      -11.655398    0.934589   -1.930983
    146          1           0      -12.286504   -0.605015   -2.225890
    147          1           0      -10.577629   -2.625660   -4.535277
    148          1           0       -9.885488   -3.841750   -3.478376
    149          1           0       -8.689586   -1.703896   -5.085097
    150          1           0       -8.144192   -3.415823   -4.955960
    151          1           0       -7.750344   -2.188892   -3.669944
    152          1           0       -7.027926   -6.068922    1.059474
    153          1           0       -8.440495   -5.483422    0.122462
    154          1           0       -8.433475   -5.281500    1.920083
    155          1           0       -5.091641   -2.293888    4.412233
    156          1           0       -1.115246   -3.268929    5.761506
    157          1           0       -0.882684   -1.541831    5.063641
    158          1           0       -0.748654   -3.054044    4.132244
 ---------------------------------------------------------------------

 SCF Done:  E(RCAM-B3LYP) =  -4069.81128903     A.U. after   19 cycles

 Excitation energies and oscillator strengths:

 Excited State   1:      Singlet-A      1.6648 eV  744.73 nm  f=0.0090  <S**2>=0.000
     309 -> 315       -0.11062
     310 -> 316        0.13019
     311 -> 313       -0.44355
     312 -> 314        0.52419
 This state for optimization and/or second-order correction.
 Total Energy, E(TD-HF/TD-DFT) =  -4069.75010818
 Copying the excited state density for this state as the 1-particle RhoCI density.

 Excited State   2:      Singlet-A      1.6898 eV  733.72 nm  f=0.7325  <S**2>=0.000
     309 -> 315        0.13557
     310 -> 316        0.11429
     311 -> 313        0.52290
     312 -> 314        0.44259

 Excited State   3:      Singlet-A      2.1845 eV  567.57 nm  f=0.0630  <S**2>=0.000
     309 -> 313        0.20192
     310 -> 314        0.61055
     312 -> 316       -0.25813

 Excited State   4:      Singlet-A      2.1922 eV  565.58 nm  f=0.1316  <S**2>=0.000
     309 -> 313        0.60825
     310 -> 314       -0.20045
     311 -> 315       -0.26419

 Excited State   5:      Singlet-A      2.6796 eV  462.69 nm  f=0.0000  <S**2>=0.000
     312 -> 313        0.70698

 The electronic state is 1-A.
 Alpha  occ. eigenvalues --  -46.87777 -46.87548 -19.26166 -19.26140 -19.18953
 Alpha  occ. eigenvalues --  -19.18867 -19.18849 -19.18636 -19.18098 -19.17913
 Alpha  occ. eigenvalues --  -14.42425 -14.42385 -14.41444 -14.41251 -14.39388
 Alpha  occ. eigenvalues --  -14.39243 -14.38558 -14.38483 -10.38938 -10.38895
 Alpha  occ. eigenvalues --  -10.35485 -10.35316 -10.34315 -10.34088 -10.31576
 Alpha  occ. eigenvalues --  -10.31521 -10.31366 -10.31187 -10.30910 -10.30879
 Alpha  occ. eigenvalues --  -10.30539 -10.30493 -10.30287 -10.30242 -10.30224
 Alpha  occ. eigenvalues --  -10.30046 -10.29917 -10.29786 -10.29614 -10.29335
 Alpha  occ. eigenvalues --  -10.29291 -10.29248 -10.28688 -10.28590 -10.28496
 Alpha  occ. eigenvalues --  -10.28439 -10.28335 -10.28290 -10.28067 -10.28019
 Alpha  occ. eigenvalues --  -10.27889 -10.27766 -10.27706 -10.27574 -10.27562
 Alpha  occ. eigenvalues --  -10.27558 -10.27500 -10.27485 -10.27431 -10.27383
 Alpha  occ. eigenvalues --  -10.27372 -10.27367 -10.27361 -10.27290 -10.27078
 Alpha  occ. eigenvalues --  -10.26906 -10.26614 -10.26536 -10.26474 -10.26366
 Alpha  occ. eigenvalues --  -10.26304 -10.26191 -10.26054 -10.26020 -10.25920
 Alpha  occ. eigenvalues --  -10.25828 -10.25803 -10.25730 -10.25482 -10.25325
 Alpha  occ. eigenvalues --  -10.24866 -10.24797 -10.24783 -10.24756 -10.24643
 Alpha  occ. eigenvalues --  -10.24583  -3.16519  -3.16298  -1.91401  -1.91180
 Alpha  occ. eigenvalues --   -1.90987  -1.90829  -1.90768  -1.90605  -1.16489
 Alpha  occ. eigenvalues --   -1.16456  -1.08547  -1.08514  -1.07254  -1.06890
 Alpha  occ. eigenvalues --   -1.06745  -1.06493  -1.04553  -1.04381  -1.03751
 Alpha  occ. eigenvalues --   -1.03553  -1.03217  -1.02930  -1.02394  -1.02000
 Alpha  occ. eigenvalues --   -0.91930  -0.91864  -0.89551  -0.89391  -0.89137
 Alpha  occ. eigenvalues --   -0.89027  -0.88318  -0.88124  -0.87838  -0.87676
 Alpha  occ. eigenvalues --   -0.87649  -0.87570  -0.87278  -0.87029  -0.84942
 Alpha  occ. eigenvalues --   -0.84878  -0.83981  -0.83778  -0.83002  -0.82851
 Alpha  occ. eigenvalues --   -0.82618  -0.82538  -0.81517  -0.81458  -0.80558
 Alpha  occ. eigenvalues --   -0.80319  -0.78788  -0.78533  -0.77216  -0.77033
 Alpha  occ. eigenvalues --   -0.76892  -0.76775  -0.75871  -0.75714  -0.74910
 Alpha  occ. eigenvalues --   -0.74702  -0.72759  -0.72588  -0.71652  -0.71470
 Alpha  occ. eigenvalues --   -0.69978  -0.69665  -0.68841  -0.68709  -0.67622
 Alpha  occ. eigenvalues --   -0.67488  -0.67177  -0.67079  -0.65241  -0.65144
 Alpha  occ. eigenvalues --   -0.64826  -0.64654  -0.64592  -0.64527  -0.64287
 Alpha  occ. eigenvalues --   -0.64101  -0.62220  -0.62133  -0.60451  -0.60244
 Alpha  occ. eigenvalues --   -0.59763  -0.59676  -0.58968  -0.58878  -0.58479
 Alpha  occ. eigenvalues --   -0.58307  -0.57516  -0.57407  -0.57293  -0.57128
 Alpha  occ. eigenvalues --   -0.56288  -0.56092  -0.55887  -0.55742  -0.55512
 Alpha  occ. eigenvalues --   -0.55341  -0.55338  -0.55132  -0.54490  -0.54360
 Alpha  occ. eigenvalues --   -0.53843  -0.53786  -0.53297  -0.53192  -0.53123
 Alpha  occ. eigenvalues --   -0.53023  -0.52876  -0.52768  -0.52754  -0.52577
 Alpha  occ. eigenvalues --   -0.52502  -0.52305  -0.51875  -0.51762  -0.51573
 Alpha  occ. eigenvalues --   -0.51538  -0.51168  -0.51079  -0.50600  -0.50396
 Alpha  occ. eigenvalues --   -0.50079  -0.49919  -0.49877  -0.49775  -0.49488
 Alpha  occ. eigenvalues --   -0.49383  -0.49179  -0.49080  -0.49050  -0.48983
 Alpha  occ. eigenvalues --   -0.48549  -0.48475  -0.48428  -0.48421  -0.48277
 Alpha  occ. eigenvalues --   -0.48237  -0.47680  -0.47484  -0.47284  -0.47015
 Alpha  occ. eigenvalues --   -0.46792  -0.46597  -0.46506  -0.46431  -0.46350
 Alpha  occ. eigenvalues --   -0.46161  -0.46133  -0.45966  -0.45761  -0.45689
 Alpha  occ. eigenvalues --   -0.45226  -0.45110  -0.44530  -0.44519  -0.44390
 Alpha  occ. eigenvalues --   -0.44362  -0.44164  -0.44053  -0.44014  -0.43977
 Alpha  occ. eigenvalues --   -0.43974  -0.43828  -0.43435  -0.43416  -0.43370
 Alpha  occ. eigenvalues --   -0.43265  -0.43004  -0.42802  -0.42750  -0.42736
 Alpha  occ. eigenvalues --   -0.42562  -0.42457  -0.42021  -0.41852  -0.41673
 Alpha  occ. eigenvalues --   -0.41547  -0.41495  -0.41339  -0.41119  -0.40878
 Alpha  occ. eigenvalues --   -0.40864  -0.40841  -0.40626  -0.40588  -0.40582
 Alpha  occ. eigenvalues --   -0.40390  -0.40172  -0.40097  -0.39527  -0.39333
 Alpha  occ. eigenvalues --   -0.38493  -0.38250  -0.37693  -0.37519  -0.37333
 Alpha  occ. eigenvalues --   -0.37214  -0.37160  -0.37074  -0.36638  -0.36605
 Alpha  occ. eigenvalues --   -0.36137  -0.36088  -0.34263  -0.34138  -0.33670
 Alpha  occ. eigenvalues --   -0.33643  -0.33157  -0.33059  -0.31378  -0.31194
 Alpha  occ. eigenvalues --   -0.31015  -0.30860  -0.29954  -0.29815  -0.29438
 Alpha  occ. eigenvalues --   -0.29287  -0.29223  -0.29094  -0.24059  -0.23922
 Alpha  occ. eigenvalues --   -0.21112  -0.21007
 Alpha virt. eigenvalues --   -0.08757  -0.08682  -0.01743  -0.01578  -0.00050
 Alpha virt. eigenvalues --    0.00072   0.02237   0.02328   0.03144   0.03358
 Alpha virt. eigenvalues --    0.04747   0.04805   0.05227   0.05350   0.06105

 Mulliken charges:
               1
     1  Mg   0.839294
     2  C   -0.002248
     3  C   -0.093877
     4  C   -0.046407
     5  C   -0.064526
     6  N   -0.256691
     7  C   -0.052157
     8  C   -0.014066
     9  C   -0.087022
    10  C    0.046322
    11  C    0.104836
    12  C    0.053433
    13  C   -0.071980
    14  H    0.036977
    15  N   -0.433028
    16  C    0.168237
    17  C   -0.177234
    18  C   -0.004442
    19  C    0.148615
    20  C    0.110185
    21  C    0.011703
    22  O   -0.250488
    23  C    0.062699
    24  N   -0.341085
    25  C    0.041119
    26  C   -0.028070
    27  C   -0.023933
    28  C    0.074765
    29  C    0.076212
    30  C    0.035336
    31  C   -0.004918
    32  N   -0.310709
    33  C    0.080827
    34  C   -0.169352
    35  C    0.008962
    36  C    0.083673
    37  C    0.127095
    38  C    0.047070
    39  O   -0.187335
    40  C   -0.005687
    41  C    0.212799
    42  O   -0.255386
    43  O   -0.305213
    44  C    0.157378
    45  H   -0.017646
    46  H   -0.017523
    47  H   -0.041872
    48  H    0.001108
    49  H   -0.003983
    50  H    0.025526
    51  H    0.016212
    52  H    0.016620
    53  H    0.011160
    54  H    0.045098
    55  H    0.017670
    56  H    0.017702
    57  H    0.006055
    58  H    0.026590
    59  H    0.039106
    60  H    0.037623
    61  H    0.034780
    62  H    0.031084
    63  H    0.015632
    64  H    0.009687
    65  H    0.022771
    66  H    0.012838
    67  H    0.004784
    68  H    0.006123
    69  H    0.004678
    70  H    0.008520
    71  H    0.015463
    72  H    0.030260
    73  H    0.048665
    74  H    0.008485
    75  H    0.046089
    76  H    0.035069
    77  H    0.042932
    78  H    0.046101
    79  H    0.054873
    80  Mg   0.838139
    81  C   -0.016313
    82  C   -0.087717
    83  C   -0.045706
    84  C   -0.065052
    85  N   -0.254527
    86  C   -0.049663
    87  C   -0.015099
    88  C   -0.090532
    89  C    0.045735
    90  C    0.114420
    91  C    0.062429
    92  C   -0.078773
    93  H    0.036214
    94  N   -0.423385
    95  C    0.162748
    96  C   -0.174853
    97  C   -0.008119
    98  C    0.152074
    99  C    0.099451
   100  C    0.015306
   101  O   -0.253557
   102  C    0.061342
   103  N   -0.350119
   104  C    0.037444
   105  C   -0.019733
   106  C   -0.034817
   107  C    0.089060
   108  C    0.073771
   109  C    0.034775
   110  C   -0.007662
   111  N   -0.324269
   112  C    0.078802
   113  C   -0.162836
   114  C    0.002480
   115  C    0.096610
   116  C    0.131351
   117  C    0.043035
   118  O   -0.187221
   119  C    0.000660
   120  C    0.211156
   121  O   -0.249091
   122  O   -0.306184
   123  C    0.151532
   124  H   -0.019814
   125  H   -0.015940
   126  H   -0.040512
   127  H   -0.000836
   128  H   -0.004139
   129  H    0.022299
   130  H    0.014217
   131  H    0.016101
   132  H    0.014028
   133  H    0.038629
   134  H    0.020027
   135  H    0.020064
   136  H    0.008890
   137  H    0.025808
   138  H    0.039255
   139  H    0.038199
   140  H    0.035899
   141  H    0.033530
   142  H    0.014165
   143  H    0.012260
   144  H    0.024829
   145  H    0.011557
   146  H    0.005499
   147  H    0.005948
   148  H    0.003704
   149  H    0.010614
   150  H    0.017986
   151  H    0.030509
   152  H    0.046679
   153  H    0.008408
   154  H    0.046713
   155  H    0.034655
   156  H    0.043266
   157  H    0.048374
   158  H    0.055858
 Sum of Mulliken charges =  -0.00000

 Dipole moment (field-independent basis, Debye):
    X=              1.6773    Y=              7.0511    Z=             -1.5071  Tot=              7.4029
 Quadrupole moment (field-independent basis, Debye-Ang):
   XX=           -477.9052   YY=           -537.4495   ZZ=           -469.9177
   XY=             16.9114   XZ=            -23.1441   YZ=             13.2099

 Normal termination of Gaussian 16 at Sat Sep 11 09:04:54 2021.
