 Gaussian 16, Revision A.03,
 Gaussian 16:  ES64L-G16RevA.03 25-Dec-2016

 -----------------------------------
 #p cam-b3lyp/Def2SVP td=(nstates=5)
 -----------------------------------

 --------------------------------
 TDDFT excited states in gaussian
 --------------------------------
 Symbolic Z-matrix:
 Charge =  0 Multiplicity = 1

                         Standard orientation:
 ---------------------------------------------------------------------
 Center     Atomic      Atomic             Coordinates (Angstroms)
 Number     Number       Type             X           Y           Z
 ---------------------------------------------------------------------
      1         12           0        3.428999   -1.870861    0.089429
      2          6           0        4.916252    0.823139   -1.738864
      3          6           0        5.213431   -0.818799    2.800893
      4          6           0        2.485410   -4.498345    1.593620
      5          6           0        2.679618   -3.344036   -2.978769
      6          7           0        4.849196   -0.196231    0.371039
      7          6           0        5.287801    0.799475   -0.392745
      8          6           0        6.119320    1.858894    0.390568
      9          6           0        6.601372    0.950107    1.608653
     10          6           0        5.469942   -0.062655    1.618741
     11          6           0        7.912909    0.218702    1.341407
     12          6           0        5.241361    3.058254    0.882967
     13          6           0        6.021753    4.284092    1.366353
     14          1           0        5.476784    5.608149    1.107068
     15          7           0        3.394481   -2.301122    2.017261
     16          6           0        4.180621   -1.764158    2.981076
     17          6           0        3.771354   -2.409261    4.247182
     18          6           0        2.815169   -3.501165    3.913189
     19          6           0        2.881088   -3.494201    2.474098
     20          6           0        4.239084   -1.949213    5.593783
     21          6           0        1.983245   -4.414093    4.757343
     22          8           0        1.399336   -5.443615    4.273908
     23          6           0        1.941344   -4.117751    6.200765
     24          7           0        2.883161   -3.771537   -0.579244
     25          6           0        2.458940   -4.708428    0.275891
     26          6           0        1.860616   -5.877900   -0.448183
     27          6           0        1.742699   -5.437136   -1.978404
     28          6           0        2.407058   -4.042143   -1.874040
     29          6           0        2.643988   -7.194603   -0.355276
     30          6           0        0.342688   -5.540151   -2.633978
     31          6           0       -0.593914   -4.533107   -2.004902
     32          7           0        3.569550   -1.297877   -1.999346
     33          6           0        3.221131   -2.076458   -3.112490
     34          6           0        3.594276   -1.305560   -4.312719
     35          6           0        4.152641   -0.131533   -3.810988
     36          6           0        4.153700   -0.178172   -2.387571
     37          6           0        3.456049   -1.742090   -5.659853
     38          6           0        4.771095    1.140821   -4.146378
     39          8           0        4.953379    1.767756   -5.190992
     40          6           0        5.401210    1.756745   -2.819947
     41          6           0        4.980461    3.199153   -2.744198
     42          8           0        3.784285    3.508226   -2.568116
     43          8           0        6.070692    3.976020   -2.652473
     44          6           0        5.722412    5.417943   -2.544243
     45          1           0        5.897914   -0.725138    3.646263
     46          1           0        2.050432   -5.378358    2.071959
     47          1           0        2.399015   -3.703318   -3.970551
     48          1           0        6.983366    2.247729   -0.148558
     49          1           0        6.622091    1.504478    2.546718
     50          1           0        8.234185    0.341853    0.307224
     51          1           0        7.709460   -0.830929    1.554426
     52          1           0        8.679653    0.525744    2.053169
     53          1           0        4.740153    2.779988    1.810016
     54          1           0        4.535096    3.362406    0.109659
     55          1           0        7.067985    4.235559    1.063113
     56          1           0        6.054073    4.260658    2.455667
     57          1           0        5.060390   -1.238454    5.511182
     58          1           0        4.677392   -2.814171    6.091219
     59          1           0        3.423274   -1.551984    6.197931
     60          1           0        2.953683   -4.149276    6.604158
     61          1           0        1.227842   -4.819512    6.631226
     62          1           0        1.586996   -3.096171    6.341341
     63          1           0        0.867287   -6.108341   -0.065273
     64          1           0        2.384445   -6.034290   -2.626666
     65          1           0        2.061831   -8.022835    0.049483
     66          1           0        3.536280   -7.014338    0.243565
     67          1           0        3.078628   -7.535143   -1.294710
     68          1           0       -0.084984   -6.527239   -2.461642
     69          1           0        0.357819   -5.368581   -3.710355
     70          1           0       -0.942566   -5.049903   -1.111484
     71          1           0       -1.423598   -4.313300   -2.677598
     72          1           0       -0.058424   -3.641690   -1.677624
     73          1           0        3.062920   -0.891908   -6.217176
     74          1           0        2.792218   -2.603420   -5.730850
     75          1           0        4.489947   -1.990930   -5.898577
     76          1           0        6.481958    1.649601   -2.907274
     77          1           0        6.241250    5.934945   -3.351553
     78          1           0        5.953189    5.716549   -1.521510
     79          1           0        4.687028    5.681491   -2.763016
     80         12           0       -3.579623    1.821030    0.698116
     81          6           0       -4.972229   -0.971784   -1.073850
     82          6           0       -2.291498    2.876269   -2.278764
     83          6           0       -1.968383    4.039415    2.295039
     84          6           0       -3.985772   -0.015672    3.631934
     85          7           0       -3.687169    0.976317   -1.343246
     86          6           0       -4.296071   -0.056139   -1.906819
     87          6           0       -4.241329   -0.066762   -3.458091
     88          6           0       -2.925012    0.831040   -3.658424
     89          6           0       -2.982721    1.641411   -2.365111
     90          6           0       -1.638770    0.021774   -3.657994
     91          6           0       -5.501167    0.608505   -4.105281
     92          6           0       -5.663803    0.360542   -5.606556
     93          1           0       -7.013119    0.216498   -6.146068
     94          7           0       -2.733116    3.500028    0.063322
     95          6           0       -2.290659    3.767461   -1.183267
     96          6           0       -1.733564    5.127933   -1.129224
     97          6           0       -1.733900    5.578960    0.288979
     98          6           0       -2.134611    4.355624    0.954535
     99          6           0       -1.340219    5.895558   -2.357831
    100          6           0       -1.412739    6.890279    0.939743
    101          8           0       -1.249348    6.990930    2.207022
    102          6           0       -1.203143    8.034432    0.040591
    103          7           0       -2.856394    1.910761    2.645224
    104          6           0       -2.236267    3.012802    3.102263
    105          6           0       -2.051599    2.953344    4.599844
    106          6           0       -2.896494    1.685874    5.086933
    107          6           0       -3.371603    1.156452    3.716029
    108          6           0       -0.609017    2.820928    5.087494
    109          6           0       -3.958947    1.931215    6.193129
    110          6           0       -5.079706    2.788863    5.651165
    111          7           0       -4.501981   -0.055098    1.243503
    112          6           0       -4.534694   -0.649005    2.524240
    113          6           0       -5.172305   -1.973120    2.373961
    114          6           0       -5.447672   -2.068064    1.001498
    115          6           0       -4.994131   -0.895063    0.339784
    116          6           0       -5.380342   -2.919406    3.416736
    117          6           0       -6.009288   -2.898390   -0.039583
    118          8           0       -6.620954   -3.965626   -0.064343
    119          6           0       -5.612277   -2.279593   -1.448794
    120          6           0       -6.850412   -2.234594   -2.301741
    121          8           0       -7.804496   -1.499232   -1.992595
    122          8           0       -6.618770   -2.896612   -3.449978
    123          6           0       -7.814246   -2.870421   -4.334260
    124          1           0       -1.654441    3.173624   -3.112198
    125          1           0       -1.516637    4.820292    2.911168
    126          1           0       -4.237426   -0.607508    4.514583
    127          1           0       -4.095274   -1.044751   -3.900797
    128          1           0       -3.019957    1.484039   -4.522099
    129          1           0       -1.813970   -1.013095   -3.404027
    130          1           0       -0.997679    0.488714   -2.921782
    131          1           0       -1.124813    0.130296   -4.617371
    132          1           0       -5.361815    1.697228   -4.108687
    133          1           0       -6.396305    0.316027   -3.591662
    134          1           0       -5.018878   -0.452128   -5.962351
    135          1           0       -5.306015    1.241751   -6.144579
    136          1           0       -1.297079    5.246400   -3.241084
    137          1           0       -0.305678    6.224563   -2.211746
    138          1           0       -1.969410    6.772167   -2.526216
    139          1           0       -0.389696    7.810377   -0.645380
    140          1           0       -1.073179    8.899472    0.693816
    141          1           0       -2.102546    8.168295   -0.570775
    142          1           0       -2.447681    3.842977    5.073959
    143          1           0       -2.250601    0.906854    5.517960
    144          1           0       -0.306002    3.629805    5.778867
    145          1           0        0.042202    2.794993    4.223908
    146          1           0       -0.373442    1.880511    5.582807
    147          1           0       -3.518234    2.485844    7.025178
    148          1           0       -4.376880    1.016905    6.601000
    149          1           0       -4.685126    3.804205    5.753590
    150          1           0       -5.984005    2.655412    6.241485
    151          1           0       -5.236439    2.602391    4.582367
    152          1           0       -6.380933   -3.310095    3.287566
    153          1           0       -5.253645   -2.464948    4.397137
    154          1           0       -4.586352   -3.636230    3.190874
    155          1           0       -4.840389   -2.917555   -1.880965
    156          1           0       -8.060834   -3.910503   -4.569033
    157          1           0       -7.544384   -2.213020   -5.182051
    158          1           0       -8.747179   -2.523441   -3.905667
 ---------------------------------------------------------------------

 SCF Done:  E(RCAM-B3LYP) =  -4069.81286238     A.U. after   19 cycles

 Excitation energies and oscillator strengths:

 Excited State   1:      Singlet-A      1.6533 eV  749.90 nm  f=0.1669  <S**2>=0.000
     309 -> 315        0.11641
     310 -> 316        0.12024
     311 -> 313        0.47367
     312 -> 314        0.49738
 This state for optimization and/or second-order correction.
 Total Energy, E(TD-HF/TD-DFT) =  -4069.75210327
 Copying the excited state density for this state as the 1-particle RhoCI density.

 Excited State   2:      Singlet-A      1.6918 eV  732.83 nm  f=0.4837  <S**2>=0.000
     309 -> 315        0.12908
     310 -> 316       -0.12235
     311 -> 313        0.49559
     312 -> 314       -0.47233

 Excited State   3:      Singlet-A      2.1857 eV  567.26 nm  f=0.0611  <S**2>=0.000
     309 -> 313        0.31932
     310 -> 314        0.55839
     311 -> 315       -0.13337
     312 -> 316       -0.23513

 Excited State   4:      Singlet-A      2.1932 eV  565.30 nm  f=0.1295  <S**2>=0.000
     309 -> 313        0.55606
     310 -> 314       -0.31651
     311 -> 315       -0.24192
     312 -> 316        0.13805

 Excited State   5:      Singlet-A      2.2179 eV  559.00 nm  f=0.0000  <S**2>=0.000
     312 -> 313        0.70703

 The electronic state is 1-A.
 Alpha  occ. eigenvalues --  -46.87947 -46.87384 -19.26575 -19.26191 -19.19342
 Alpha  occ. eigenvalues --  -19.18977 -19.18955 -19.18473 -19.18409 -19.17797
 Alpha  occ. eigenvalues --  -14.42595 -14.42200 -14.41593 -14.41103 -14.39552
 Alpha  occ. eigenvalues --  -14.39061 -14.38762 -14.38324 -10.39384 -10.38905
 Alpha  occ. eigenvalues --  -10.35587 -10.35151 -10.34629 -10.33981 -10.31977
 Alpha  occ. eigenvalues --  -10.31623 -10.31571 -10.31049 -10.30984 -10.30750
 Alpha  occ. eigenvalues --  -10.30708 -10.30675 -10.30332 -10.30144 -10.30072
 Alpha  occ. eigenvalues --  -10.30051 -10.29880 -10.29810 -10.29686 -10.29409
 Alpha  occ. eigenvalues --  -10.29123 -10.29116 -10.28865 -10.28586 -10.28535
 Alpha  occ. eigenvalues --  -10.28422 -10.28414 -10.28238 -10.28103 -10.27979
 Alpha  occ. eigenvalues --  -10.27876 -10.27761 -10.27755 -10.27691 -10.27633
 Alpha  occ. eigenvalues --  -10.27599 -10.27568 -10.27532 -10.27402 -10.27385
 Alpha  occ. eigenvalues --  -10.27296 -10.27284 -10.27208 -10.27162 -10.26945
 Alpha  occ. eigenvalues --  -10.26828 -10.26784 -10.26557 -10.26426 -10.26351
 Alpha  occ. eigenvalues --  -10.26267 -10.26176 -10.26174 -10.26104 -10.26051
 Alpha  occ. eigenvalues --  -10.25671 -10.25562 -10.25535 -10.25495 -10.25424
 Alpha  occ. eigenvalues --  -10.25030 -10.24930 -10.24796 -10.24631 -10.24575
 Alpha  occ. eigenvalues --  -10.24443  -3.16689  -3.16135  -1.91570  -1.91157
 Alpha  occ. eigenvalues --   -1.91017  -1.91000  -1.90605  -1.90442  -1.16926
 Alpha  occ. eigenvalues --   -1.16478  -1.08879  -1.08416  -1.07352  -1.06956
 Alpha  occ. eigenvalues --   -1.06762  -1.06731  -1.04732  -1.04194  -1.03905
 Alpha  occ. eigenvalues --   -1.03396  -1.03386  -1.02774  -1.02570  -1.01836
 Alpha  occ. eigenvalues --   -0.92157  -0.91716  -0.89653  -0.89309  -0.89291
 Alpha  occ. eigenvalues --   -0.88817  -0.88404  -0.88075  -0.88055  -0.87814
 Alpha  occ. eigenvalues --   -0.87503  -0.87433  -0.87380  -0.86784  -0.85110
 Alpha  occ. eigenvalues --   -0.84702  -0.84064  -0.83737  -0.83109  -0.82796
 Alpha  occ. eigenvalues --   -0.82674  -0.82365  -0.81796  -0.81369  -0.80774
 Alpha  occ. eigenvalues --   -0.80188  -0.78966  -0.78308  -0.77363  -0.77085
 Alpha  occ. eigenvalues --   -0.76871  -0.76655  -0.76093  -0.75536  -0.75026
 Alpha  occ. eigenvalues --   -0.74634  -0.72941  -0.72413  -0.71819  -0.71324
 Alpha  occ. eigenvalues --   -0.70016  -0.69613  -0.69014  -0.68534  -0.67807
 Alpha  occ. eigenvalues --   -0.67342  -0.67338  -0.66925  -0.65430  -0.65033
 Alpha  occ. eigenvalues --   -0.64990  -0.64774  -0.64515  -0.64408  -0.64399
 Alpha  occ. eigenvalues --   -0.64005  -0.62521  -0.62070  -0.60589  -0.60065
 Alpha  occ. eigenvalues --   -0.59945  -0.59480  -0.59147  -0.58735  -0.58675
 Alpha  occ. eigenvalues --   -0.58173  -0.57818  -0.57467  -0.57322  -0.57011
 Alpha  occ. eigenvalues --   -0.56495  -0.56198  -0.55911  -0.55687  -0.55656
 Alpha  occ. eigenvalues --   -0.55506  -0.55185  -0.55078  -0.54711  -0.54326
 Alpha  occ. eigenvalues --   -0.54021  -0.53598  -0.53463  -0.53383  -0.53110
 Alpha  occ. eigenvalues --   -0.52978  -0.52900  -0.52874  -0.52636  -0.52557
 Alpha  occ. eigenvalues --   -0.52348  -0.52253  -0.52149  -0.51763  -0.51601
 Alpha  occ. eigenvalues --   -0.51372  -0.51358  -0.50955  -0.50720  -0.50167
 Alpha  occ. eigenvalues --   -0.50149  -0.50061  -0.49723  -0.49669  -0.49609
 Alpha  occ. eigenvalues --   -0.49403  -0.49248  -0.49200  -0.48901  -0.48805
 Alpha  occ. eigenvalues --   -0.48784  -0.48622  -0.48588  -0.48297  -0.48198
 Alpha  occ. eigenvalues --   -0.48063  -0.47844  -0.47452  -0.47313  -0.46946
 Alpha  occ. eigenvalues --   -0.46832  -0.46690  -0.46531  -0.46451  -0.46337
 Alpha  occ. eigenvalues --   -0.46261  -0.46034  -0.45991  -0.45875  -0.45585
 Alpha  occ. eigenvalues --   -0.45324  -0.45050  -0.44784  -0.44640  -0.44310
 Alpha  occ. eigenvalues --   -0.44275  -0.44229  -0.44183  -0.44180  -0.43867
 Alpha  occ. eigenvalues --   -0.43829  -0.43715  -0.43654  -0.43512  -0.43343
 Alpha  occ. eigenvalues --   -0.43192  -0.43125  -0.42955  -0.42782  -0.42730
 Alpha  occ. eigenvalues --   -0.42665  -0.42341  -0.42151  -0.41871  -0.41758
 Alpha  occ. eigenvalues --   -0.41655  -0.41420  -0.41280  -0.41195  -0.40989
 Alpha  occ. eigenvalues --   -0.40950  -0.40720  -0.40690  -0.40471  -0.40444
 Alpha  occ. eigenvalues --   -0.40324  -0.40278  -0.39963  -0.39539  -0.39288
 Alpha  occ. eigenvalues --   -0.38574  -0.38182  -0.37862  -0.37446  -0.37404
 Alpha  occ. eigenvalues --   -0.37386  -0.37046  -0.36959  -0.36901  -0.36598
 Alpha  occ. eigenvalues --   -0.36365  -0.36012  -0.34449  -0.34068  -0.33984
 Alpha  occ. eigenvalues --   -0.33659  -0.33357  -0.32893  -0.31483  -0.31192
 Alpha  occ. eigenvalues --   -0.31037  -0.30701  -0.30271  -0.29710  -0.29623
 Alpha  occ. eigenvalues --   -0.29511  -0.29021  -0.28918  -0.24238  -0.23754
 Alpha  occ. eigenvalues --   -0.21287  -0.20826
 Alpha virt. eigenvalues --   -0.08941  -0.08493  -0.01895  -0.01419  -0.00217
 Alpha virt. eigenvalues --    0.00273   0.01996   0.02363   0.02572   0.03606
 Alpha virt. eigenvalues --    0.04589   0.04814   0.05044   0.05364   0.06057

 Mulliken charges:
               1
     1  Mg   0.839180
     2  C   -0.003117
     3  C   -0.093885
     4  C   -0.045213
     5  C   -0.064558
     6  N   -0.257024
     7  C   -0.051996
     8  C   -0.014318
     9  C   -0.087177
    10  C    0.047014
    11  C    0.104717
    12  C    0.053418
    13  C   -0.072282
    14  H    0.037184
    15  N   -0.433369
    16  C    0.169090
    17  C   -0.177154
    18  C   -0.003579
    19  C    0.149549
    20  C    0.110158
    21  C    0.012497
    22  O   -0.248392
    23  C    0.062556
    24  N   -0.341278
    25  C    0.041665
    26  C   -0.028734
    27  C   -0.024106
    28  C    0.074987
    29  C    0.075924
    30  C    0.034893
    31  C   -0.009106
    32  N   -0.310064
    33  C    0.079781
    34  C   -0.172008
    35  C    0.007273
    36  C    0.082044
    37  C    0.127776
    38  C    0.044175
    39  O   -0.190030
    40  C   -0.004880
    41  C    0.213061
    42  O   -0.259990
    43  O   -0.303924
    44  C    0.158610
    45  H   -0.017140
    46  H   -0.015895
    47  H   -0.042017
    48  H    0.000690
    49  H   -0.003369
    50  H    0.025436
    51  H    0.016497
    52  H    0.017128
    53  H    0.012522
    54  H    0.043512
    55  H    0.017381
    56  H    0.018986
    57  H    0.006459
    58  H    0.027432
    59  H    0.039154
    60  H    0.037762
    61  H    0.036172
    62  H    0.030287
    63  H    0.018154
    64  H    0.009676
    65  H    0.024399
    66  H    0.012381
    67  H    0.004954
    68  H    0.008676
    69  H    0.003526
    70  H    0.012859
    71  H    0.018938
    72  H    0.029446
    73  H    0.044797
    74  H    0.008892
    75  H    0.046730
    76  H    0.035702
    77  H    0.043082
    78  H    0.047908
    79  H    0.050464
    80  Mg   0.836663
    81  C   -0.016108
    82  C   -0.085125
    83  C   -0.045851
    84  C   -0.065110
    85  N   -0.254647
    86  C   -0.050313
    87  C   -0.014639
    88  C   -0.090875
    89  C    0.043728
    90  C    0.112196
    91  C    0.062666
    92  C   -0.077439
    93  H    0.033651
    94  N   -0.424216
    95  C    0.161535
    96  C   -0.168260
    97  C   -0.008665
    98  C    0.153613
    99  C    0.098219
   100  C    0.015649
   101  O   -0.255106
   102  C    0.061099
   103  N   -0.350205
   104  C    0.037473
   105  C   -0.019493
   106  C   -0.034288
   107  C    0.088459
   108  C    0.074789
   109  C    0.035081
   110  C   -0.007499
   111  N   -0.323991
   112  C    0.077554
   113  C   -0.163169
   114  C    0.001958
   115  C    0.095474
   116  C    0.131367
   117  C    0.042054
   118  O   -0.189362
   119  C    0.000053
   120  C    0.211252
   121  O   -0.251015
   122  O   -0.306077
   123  C    0.152135
   124  H   -0.011314
   125  H   -0.017149
   126  H   -0.041599
   127  H   -0.002720
   128  H   -0.003628
   129  H    0.019545
   130  H    0.021288
   131  H    0.018528
   132  H    0.014106
   133  H    0.036971
   134  H    0.020043
   135  H    0.020286
   136  H    0.012372
   137  H    0.031925
   138  H    0.037562
   139  H    0.039254
   140  H    0.034646
   141  H    0.033862
   142  H    0.013892
   143  H    0.010121
   144  H    0.023508
   145  H    0.011870
   146  H    0.002061
   147  H    0.004623
   148  H    0.003321
   149  H    0.010463
   150  H    0.017497
   151  H    0.031112
   152  H    0.044949
   153  H    0.007392
   154  H    0.048716
   155  H    0.034215
   156  H    0.043032
   157  H    0.049613
   158  H    0.053477
 Sum of Mulliken charges =  -0.00000

 Dipole moment (field-independent basis, Debye):
    X=              5.6911    Y=              1.4108    Z=              1.1059  Tot=              5.9667
 Quadrupole moment (field-independent basis, Debye-Ang):
   XX=           -525.1890   YY=           -519.6449   ZZ=           -475.4934
   XY=            -12.2860   XZ=             37.9184   YZ=              8.7862

 Normal termination of Gaussian 16 at Fri Sep  3 12:12:02 2021.
