 Gaussian 16, Revision A.03,
 Gaussian 16:  ES64L-G16RevA.03 25-Dec-2016

 -----------------------------------
 #p cam-b3lyp/Def2SVP td=(nstates=5)
 -----------------------------------

 --------------------------------
 TDDFT excited states in gaussian
 --------------------------------
 Symbolic Z-matrix:
 Charge =  0 Multiplicity = 1

                         Standard orientation:
 ---------------------------------------------------------------------
 Center     Atomic      Atomic             Coordinates (Angstroms)
 Number     Number       Type             X           Y           Z
 ---------------------------------------------------------------------
      1         12           0       15.500729    0.790078    0.465261
      2          6           0       15.773825   -2.533874   -0.834344
      3          6           0       16.417993    1.913366   -2.623414
      4          6           0       15.708472    3.701369    1.705361
      5          6           0       15.721945   -0.597097    3.654693
      6          7           0       16.003761   -0.273147   -1.410147
      7          6           0       16.012306   -1.546247   -1.792658
      8          6           0       16.224139   -1.729454   -3.325281
      9          6           0       16.963971   -0.353430   -3.643407
     10          6           0       16.402526    0.491168   -2.513205
     11          6           0       18.480113   -0.428187   -3.494317
     12          6           0       14.870062   -1.845022   -4.103002
     13          6           0       14.985505   -2.348694   -5.544648
     14          1           0       13.931307   -3.199575   -6.075701
     15          7           0       15.512294    2.559259   -0.413781
     16          6           0       15.901573    2.830552   -1.682697
     17          6           0       15.724908    4.287904   -1.860452
     18          6           0       15.381562    4.869863   -0.533224
     19          6           0       15.548230    3.722530    0.321894
     20          6           0       15.834546    4.974246   -3.187352
     21          6           0       14.978931    6.244738   -0.102251
     22          8           0       14.951785    6.591221    1.128109
     23          6           0       14.698763    7.214316   -1.176711
     24          7           0       15.908475    1.487964    2.389926
     25          6           0       15.879629    2.795443    2.670373
     26          6           0       15.920270    3.037501    4.150135
     27          6           0       15.737307    1.607712    4.837145
     28          6           0       15.703293    0.734264    3.558787
     29          6           0       17.196872    3.701049    4.684927
     30          6           0       14.583618    1.461952    5.860950
     31          6           0       13.252002    1.578023    5.153543
     32          7           0       15.532891   -1.211470    1.304199
     33          6           0       15.653150   -1.556326    2.658188
     34          6           0       15.736659   -3.026976    2.723630
     35          6           0       15.675456   -3.437259    1.393304
     36          6           0       15.587404   -2.293987    0.548635
     37          6           0       15.910805   -3.800030    3.905363
     38          6           0       15.688777   -4.574403    0.487444
     39          8           0       15.653785   -5.797441    0.630439
     40          6           0       15.875767   -4.030065   -0.997331
     41          6           0       14.854129   -4.714172   -1.864258
     42          8           0       13.635443   -4.491491   -1.713978
     43          8           0       15.475639   -5.333056   -2.879763
     44          6           0       14.516413   -6.007385   -3.794815
     45          1           0       16.922383    2.371199   -3.476597
     46          1           0       15.673818    4.682701    2.183090
     47          1           0       15.707308   -1.104821    4.620847
     48          1           0       16.864540   -2.568295   -3.598516
     49          1           0       16.664140    0.056357   -4.607720
     50          1           0       18.791994   -1.381602   -3.068111
     51          1           0       18.747894    0.392327   -2.828327
     52          1           0       18.973542   -0.217009   -4.443374
     53          1           0       14.474636   -0.846028   -4.286604
     54          1           0       14.164118   -2.472179   -3.557436
     55          1           0       15.964490   -2.789106   -5.735787
     56          1           0       14.940810   -1.487823   -6.211809
     57          1           0       16.258732    4.316258   -3.944757
     58          1           0       16.571410    5.769260   -3.074680
     59          1           0       14.883337    5.397696   -3.510187
     60          1           0       15.585483    7.325767   -1.801095
     61          1           0       14.340022    8.116162   -0.681908
     62          1           0       13.918180    6.810408   -1.822077
     63          1           0       15.106188    3.690486    4.462075
     64          1           0       16.625240    1.303960    5.392107
     65          1           0       17.013505    4.627100    5.230374
     66          1           0       17.867357    3.869478    3.842685
     67          1           0       17.808453    3.065799    5.325117
     68          1           0       14.626590    2.263739    6.597317
     69          1           0       14.603935    0.514879    6.400292
     70          1           0       13.101232    2.655297    5.093701
     71          1           0       12.465549    1.105900    5.743291
     72          1           0       13.309246    1.199806    4.132680
     73          1           0       15.225451   -4.643412    3.821904
     74          1           0       15.705874   -3.209941    4.798337
     75          1           0       16.962706   -4.070984    3.816225
     76          1           0       16.894942   -4.274754   -1.294876
     77          1           0       14.812398   -7.054767   -3.854962
     78          1           0       14.511109   -5.429217   -4.718990
     79          1           0       13.491916   -6.103472   -3.433550
     80         12           0      -16.237252    0.347015   -0.135363
     81          6           0      -13.731282   -2.187460    0.283687
     82          6           0      -13.728421    2.463544   -1.063091
     83          6           0      -18.348766    2.714696   -0.080058
     84          6           0      -18.327120   -1.582305    1.878570
     85          7           0      -14.052727    0.058194   -0.326846
     86          6           0      -13.221069   -0.964901   -0.200548
     87          6           0      -11.776012   -0.683692   -0.692792
     88          6           0      -11.775860    0.914672   -0.537507
     89          6           0      -13.273527    1.174803   -0.685838
     90          6           0      -11.343573    1.385336    0.841237
     91          6           0      -11.558289   -1.115818   -2.185399
     92          6           0      -10.096511   -1.157228   -2.636224
     93          1           0       -9.689935   -2.189527   -3.585707
     94          7           0      -16.169823    2.147609   -0.967156
     95          6           0      -15.066184    2.850454   -1.297703
     96          6           0      -15.551315    4.121145   -1.858193
     97          6           0      -17.027631    4.179270   -1.679764
     98          6           0      -17.241396    2.999618   -0.865623
     99          6           0      -14.651578    5.098110   -2.557781
    100          6           0      -18.072331    5.144714   -2.151668
    101          8           0      -19.263935    5.131253   -1.679728
    102          6           0      -17.634174    6.166148   -3.114056
    103          7           0      -17.993723    0.645053    0.936244
    104          6           0      -18.750913    1.737350    0.732578
    105          6           0      -20.095064    1.602894    1.407552
    106          6           0      -20.175368    0.085626    1.906575
    107          6           0      -18.765389   -0.391295    1.494397
    108          6           0      -20.343042    2.540687    2.588840
    109          6           0      -21.402312   -0.744716    1.439886
    110          6           0      -21.333358   -0.973022   -0.052931
    111          7           0      -16.158388   -1.621050    0.752657
    112          6           0      -17.130808   -2.222517    1.581332
    113          6           0      -16.578517   -3.516399    2.032200
    114          6           0      -15.303700   -3.567914    1.448503
    115          6           0      -15.069509   -2.380293    0.704049
    116          6           0      -17.221392   -4.435076    2.909047
    117          6           0      -14.098705   -4.352181    1.301530
    118          8           0      -13.753222   -5.484761    1.635633
    119          6           0      -12.977322   -3.437286    0.644355
    120          6           0      -12.337575   -4.216370   -0.472009
    121          8           0      -12.993698   -4.529718   -1.480938
    122          8           0      -11.009420   -4.273844   -0.264486
    123          6           0      -10.329246   -5.027294   -1.351457
    124          1           0      -12.997020    3.267793   -1.147426
    125          1           0      -19.154402    3.451674   -0.115758
    126          1           0      -18.955492   -2.285992    2.428691
    127          1           0      -10.994887   -1.116903   -0.079650
    128          1           0      -11.224538    1.389883   -1.344712
    129          1           0      -11.220856    0.561190    1.528155
    130          1           0      -12.125740    2.050117    1.183767
    131          1           0      -10.440169    1.997161    0.764611
    132          1           0      -11.936292   -0.324885   -2.845926
    133          1           0      -12.023298   -2.062747   -2.379608
    134          1           0       -9.402327   -1.120472   -1.787872
    135          1           0       -9.880875   -0.245539   -3.198678
    136          1           0      -13.593533    4.863142   -2.388303
    137          1           0      -14.795263    6.069436   -2.072252
    138          1           0      -14.882348    5.196723   -3.620657
    139          1           0      -16.830544    6.753579   -2.676380
    140          1           0      -18.539332    6.705123   -3.400537
    141          1           0      -17.213871    5.662489   -3.991710
    142          1           0      -20.899980    1.785206    0.706145
    143          1           0      -20.221332    0.019385    3.003544
    144          1           0      -21.244451    3.170071    2.464727
    145          1           0      -19.464593    3.157304    2.725400
    146          1           0      -20.433841    2.050375    3.556590
    147          1           0      -22.326594   -0.192609    1.627065
    148          1           0      -21.491952   -1.702348    1.941797
    149          1           0      -21.755151   -0.050677   -0.463380
    150          1           0      -21.928179   -1.839147   -0.335875
    151          1           0      -20.293470   -1.039930   -0.393225
    152          1           0      -17.067260   -5.422001    2.493453
    153          1           0      -18.280226   -4.208572    3.015452
    154          1           0      -16.666277   -4.245195    3.831576
    155          1           0      -12.262391   -3.181936    1.427447
    156          1           0       -9.760102   -5.831508   -0.874998
    157          1           0       -9.755024   -4.274065   -1.923004
    158          1           0      -10.952306   -5.587593   -2.038705
 ---------------------------------------------------------------------

 SCF Done:  E(RCAM-B3LYP) =  -4069.81176452     A.U. after   19 cycles

 Excitation energies and oscillator strengths:

 Excited State   1:      Singlet-A      1.6753 eV  740.08 nm  f=0.2056  <S**2>=0.000
     310 -> 316        0.16813
     311 -> 313       -0.16939
     312 -> 314        0.66482
     310 <- 316        0.10136
 This state for optimization and/or second-order correction.
 Total Energy, E(TD-HF/TD-DFT) =  -4069.75019869
 Copying the excited state density for this state as the 1-particle RhoCI density.

 Excited State   2:      Singlet-A      1.6801 eV  737.95 nm  f=0.5716  <S**2>=0.000
     309 -> 315        0.17016
     311 -> 313        0.66445
     312 -> 314        0.16933
     309 <- 315        0.10187

 Excited State   3:      Singlet-A      2.1861 eV  567.16 nm  f=0.1023  <S**2>=0.000
     310 -> 314        0.64245
     312 -> 316       -0.27306

 Excited State   4:      Singlet-A      2.1925 eV  565.49 nm  f=0.0991  <S**2>=0.000
     309 -> 313        0.64068
     311 -> 315       -0.27826

 Excited State   5:      Singlet-A      3.0612 eV  405.02 nm  f=0.0000  <S**2>=0.000
     312 -> 313        0.70710

 The electronic state is 1-A.
 Alpha  occ. eigenvalues --  -46.87813 -46.87659 -19.26336 -19.26296 -19.19150
 Alpha  occ. eigenvalues --  -19.19033 -19.18835 -19.18714 -19.18184 -19.18046
 Alpha  occ. eigenvalues --  -14.42495 -14.42466 -14.41466 -14.41358 -14.39420
 Alpha  occ. eigenvalues --  -14.39350 -14.38603 -14.38598 -10.39093 -10.39080
 Alpha  occ. eigenvalues --  -10.35468 -10.35392 -10.34403 -10.34223 -10.31738
 Alpha  occ. eigenvalues --  -10.31690 -10.31420 -10.31305 -10.31020 -10.30925
 Alpha  occ. eigenvalues --  -10.30586 -10.30524 -10.30396 -10.30358 -10.30224
 Alpha  occ. eigenvalues --  -10.30141 -10.29937 -10.29893 -10.29647 -10.29436
 Alpha  occ. eigenvalues --  -10.29399 -10.29271 -10.28764 -10.28712 -10.28641
 Alpha  occ. eigenvalues --  -10.28553 -10.28402 -10.28381 -10.28134 -10.28131
 Alpha  occ. eigenvalues --  -10.27999 -10.27809 -10.27743 -10.27667 -10.27602
 Alpha  occ. eigenvalues --  -10.27519 -10.27518 -10.27500 -10.27481 -10.27467
 Alpha  occ. eigenvalues --  -10.27466 -10.27463 -10.27420 -10.27377 -10.27172
 Alpha  occ. eigenvalues --  -10.27043 -10.26721 -10.26684 -10.26433 -10.26417
 Alpha  occ. eigenvalues --  -10.26248 -10.26202 -10.26140 -10.26036 -10.26017
 Alpha  occ. eigenvalues --  -10.25933 -10.25856 -10.25849 -10.25452 -10.25400
 Alpha  occ. eigenvalues --  -10.24870 -10.24849 -10.24804 -10.24733 -10.24707
 Alpha  occ. eigenvalues --  -10.24688  -3.16556  -3.16409  -1.91438  -1.91291
 Alpha  occ. eigenvalues --   -1.91024  -1.90879  -1.90866  -1.90716  -1.16645
 Alpha  occ. eigenvalues --   -1.16630  -1.08653  -1.08641  -1.07236  -1.06967
 Alpha  occ. eigenvalues --   -1.06934  -1.06655  -1.04597  -1.04492  -1.03777
 Alpha  occ. eigenvalues --   -1.03661  -1.03250  -1.03037  -1.02428  -1.02110
 Alpha  occ. eigenvalues --   -0.91988  -0.91983  -0.89536  -0.89494  -0.89203
 Alpha  occ. eigenvalues --   -0.89145  -0.88304  -0.88220  -0.87885  -0.87792
 Alpha  occ. eigenvalues --   -0.87689  -0.87681  -0.87292  -0.87119  -0.84998
 Alpha  occ. eigenvalues --   -0.84994  -0.83953  -0.83876  -0.82987  -0.82932
 Alpha  occ. eigenvalues --   -0.82665  -0.82648  -0.81600  -0.81589  -0.80612
 Alpha  occ. eigenvalues --   -0.80438  -0.78814  -0.78634  -0.77235  -0.77141
 Alpha  occ. eigenvalues --   -0.76949  -0.76893  -0.75938  -0.75832  -0.74914
 Alpha  occ. eigenvalues --   -0.74802  -0.72790  -0.72697  -0.71688  -0.71578
 Alpha  occ. eigenvalues --   -0.69925  -0.69758  -0.68889  -0.68822  -0.67658
 Alpha  occ. eigenvalues --   -0.67599  -0.67236  -0.67195  -0.65302  -0.65266
 Alpha  occ. eigenvalues --   -0.64869  -0.64767  -0.64649  -0.64636  -0.64286
 Alpha  occ. eigenvalues --   -0.64203  -0.62312  -0.62271  -0.60460  -0.60339
 Alpha  occ. eigenvalues --   -0.59820  -0.59792  -0.59003  -0.58990  -0.58520
 Alpha  occ. eigenvalues --   -0.58422  -0.57599  -0.57548  -0.57325  -0.57235
 Alpha  occ. eigenvalues --   -0.56326  -0.56201  -0.55992  -0.55878  -0.55537
 Alpha  occ. eigenvalues --   -0.55448  -0.55355  -0.55245  -0.54539  -0.54483
 Alpha  occ. eigenvalues --   -0.53910  -0.53906  -0.53316  -0.53238  -0.53225
 Alpha  occ. eigenvalues --   -0.53137  -0.52930  -0.52897  -0.52774  -0.52666
 Alpha  occ. eigenvalues --   -0.52456  -0.52402  -0.51929  -0.51883  -0.51653
 Alpha  occ. eigenvalues --   -0.51633  -0.51211  -0.51197  -0.50592  -0.50475
 Alpha  occ. eigenvalues --   -0.50049  -0.49977  -0.49936  -0.49867  -0.49531
 Alpha  occ. eigenvalues --   -0.49485  -0.49230  -0.49198  -0.49111  -0.49099
 Alpha  occ. eigenvalues --   -0.48608  -0.48553  -0.48478  -0.48462  -0.48375
 Alpha  occ. eigenvalues --   -0.48337  -0.47711  -0.47591  -0.47313  -0.47116
 Alpha  occ. eigenvalues --   -0.46813  -0.46706  -0.46571  -0.46548  -0.46375
 Alpha  occ. eigenvalues --   -0.46268  -0.46178  -0.46083  -0.45836  -0.45817
 Alpha  occ. eigenvalues --   -0.45218  -0.45208  -0.44593  -0.44524  -0.44509
 Alpha  occ. eigenvalues --   -0.44472  -0.44162  -0.44123  -0.44104  -0.44076
 Alpha  occ. eigenvalues --   -0.44035  -0.43936  -0.43546  -0.43509  -0.43402
 Alpha  occ. eigenvalues --   -0.43381  -0.43043  -0.42923  -0.42896  -0.42714
 Alpha  occ. eigenvalues --   -0.42670  -0.42553  -0.42026  -0.41962  -0.41720
 Alpha  occ. eigenvalues --   -0.41666  -0.41549  -0.41454  -0.41157  -0.40986
 Alpha  occ. eigenvalues --   -0.40885  -0.40842  -0.40719  -0.40695  -0.40588
 Alpha  occ. eigenvalues --   -0.40492  -0.40250  -0.40220  -0.39459  -0.39426
 Alpha  occ. eigenvalues --   -0.38486  -0.38349  -0.37764  -0.37647  -0.37337
 Alpha  occ. eigenvalues --   -0.37279  -0.37264  -0.37195  -0.36762  -0.36727
 Alpha  occ. eigenvalues --   -0.36213  -0.36208  -0.34302  -0.34251  -0.33853
 Alpha  occ. eigenvalues --   -0.33784  -0.33202  -0.33173  -0.31364  -0.31273
 Alpha  occ. eigenvalues --   -0.31052  -0.30970  -0.30043  -0.29950  -0.29466
 Alpha  occ. eigenvalues --   -0.29338  -0.29326  -0.29209  -0.24097  -0.24034
 Alpha  occ. eigenvalues --   -0.21144  -0.21115
 Alpha virt. eigenvalues --   -0.08791  -0.08790  -0.01767  -0.01682  -0.00076
 Alpha virt. eigenvalues --   -0.00027   0.02185   0.02210   0.03104   0.03229
 Alpha virt. eigenvalues --    0.04702   0.04734   0.05085   0.05175   0.06163

 Mulliken charges:
               1
     1  Mg   0.838741
     2  C   -0.002967
     3  C   -0.094119
     4  C   -0.045896
     5  C   -0.063972
     6  N   -0.256781
     7  C   -0.052456
     8  C   -0.014000
     9  C   -0.086996
    10  C    0.046289
    11  C    0.104808
    12  C    0.053458
    13  C   -0.071803
    14  H    0.036135
    15  N   -0.433145
    16  C    0.168407
    17  C   -0.177180
    18  C   -0.004034
    19  C    0.148697
    20  C    0.110185
    21  C    0.012253
    22  O   -0.249655
    23  C    0.062497
    24  N   -0.341147
    25  C    0.041236
    26  C   -0.028161
    27  C   -0.024006
    28  C    0.074876
    29  C    0.076170
    30  C    0.035127
    31  C   -0.004495
    32  N   -0.310480
    33  C    0.080418
    34  C   -0.169699
    35  C    0.008379
    36  C    0.082973
    37  C    0.127311
    38  C    0.046141
    39  O   -0.188365
    40  C   -0.005333
    41  C    0.212876
    42  O   -0.257127
    43  O   -0.304779
    44  C    0.157679
    45  H   -0.017594
    46  H   -0.016860
    47  H   -0.041463
    48  H    0.000973
    49  H   -0.004040
    50  H    0.025499
    51  H    0.016448
    52  H    0.016680
    53  H    0.011164
    54  H    0.044111
    55  H    0.017912
    56  H    0.017935
    57  H    0.005887
    58  H    0.026828
    59  H    0.039484
    60  H    0.037373
    61  H    0.035595
    62  H    0.031441
    63  H    0.016511
    64  H    0.009496
    65  H    0.023195
    66  H    0.012560
    67  H    0.004781
    68  H    0.006366
    69  H    0.004770
    70  H    0.008732
    71  H    0.018133
    72  H    0.028968
    73  H    0.047608
    74  H    0.009122
    75  H    0.046049
    76  H    0.035188
    77  H    0.043005
    78  H    0.046396
    79  H    0.053686
    80  Mg   0.837869
    81  C   -0.016842
    82  C   -0.087794
    83  C   -0.045527
    84  C   -0.064930
    85  N   -0.254562
    86  C   -0.049845
    87  C   -0.015070
    88  C   -0.090499
    89  C    0.045753
    90  C    0.114374
    91  C    0.062514
    92  C   -0.077943
    93  H    0.034977
    94  N   -0.423495
    95  C    0.162910
    96  C   -0.174621
    97  C   -0.007817
    98  C    0.152101
    99  C    0.099367
   100  C    0.015546
   101  O   -0.253207
   102  C    0.061200
   103  N   -0.350063
   104  C    0.037517
   105  C   -0.019835
   106  C   -0.034816
   107  C    0.088951
   108  C    0.073664
   109  C    0.034731
   110  C   -0.007675
   111  N   -0.324103
   112  C    0.078472
   113  C   -0.163141
   114  C    0.002262
   115  C    0.096208
   116  C    0.131492
   117  C    0.042386
   118  O   -0.187772
   119  C    0.000933
   120  C    0.211282
   121  O   -0.251053
   122  O   -0.305601
   123  C    0.151994
   124  H   -0.019640
   125  H   -0.015600
   126  H   -0.040469
   127  H   -0.000559
   128  H   -0.004303
   129  H    0.022502
   130  H    0.014386
   131  H    0.016347
   132  H    0.013881
   133  H    0.037675
   134  H    0.020888
   135  H    0.019576
   136  H    0.008780
   137  H    0.026130
   138  H    0.039777
   139  H    0.038248
   140  H    0.036375
   141  H    0.033892
   142  H    0.014388
   143  H    0.012412
   144  H    0.025122
   145  H    0.011638
   146  H    0.005663
   147  H    0.006247
   148  H    0.003654
   149  H    0.010923
   150  H    0.017931
   151  H    0.030117
   152  H    0.046036
   153  H    0.008491
   154  H    0.046965
   155  H    0.035095
   156  H    0.044043
   157  H    0.049534
   158  H    0.053566
 Sum of Mulliken charges =  -0.00000

 Dipole moment (field-independent basis, Debye):
    X=              4.2405    Y=              6.7208    Z=             -3.3193  Tot=              8.6121
 Quadrupole moment (field-independent basis, Debye-Ang):
   XX=           -495.2055   YY=           -561.7999   ZZ=           -464.8903
   XY=              3.4153   XZ=            -61.6531   YZ=             -7.6738

 Normal termination of Gaussian 16 at Sun Sep 12 17:16:17 2021.
