 Gaussian 16, Revision A.03,
 Gaussian 16:  ES64L-G16RevA.03 25-Dec-2016

 -----------------------------------
 #p cam-b3lyp/Def2SVP td=(nstates=5)
 -----------------------------------

 --------------------------------
 TDDFT excited states in gaussian
 --------------------------------
 Symbolic Z-matrix:
 Charge =  0 Multiplicity = 1

                         Standard orientation:
 ---------------------------------------------------------------------
 Center     Atomic      Atomic             Coordinates (Angstroms)
 Number     Number       Type             X           Y           Z
 ---------------------------------------------------------------------
      1         12           0       -5.215193   -0.631238    0.365765
      2          6           0       -5.360108    2.902379   -0.186288
      3          6           0       -6.282911   -1.027327   -2.850779
      4          6           0       -5.531277   -3.728854    0.967004
      5          6           0       -5.267526    0.049478    3.783301
      6          7           0       -5.721557    0.829171   -1.218988
      7          6           0       -5.677619    2.153808   -1.321838
      8          6           0       -5.927143    2.669610   -2.770651
      9          6           0       -6.744973    1.426441   -3.343086
     10          6           0       -6.192265    0.336354   -2.441893
     11          6           0       -8.250081    1.532295   -3.119596
     12          6           0       -4.593613    2.890937   -3.560867
     13          6           0       -4.727928    3.695894   -4.856768
     14          1           0       -3.649012    4.594849   -5.237777
     15          7           0       -5.343197   -2.169190   -0.867591
     16          6           0       -5.784663   -2.145781   -2.148156
     17          6           0       -5.687375   -3.537528   -2.638317
     18          6           0       -5.333041   -4.404142   -1.480076
     19          6           0       -5.415092   -3.460315   -0.394794
     20          6           0       -5.872436   -3.918710   -4.075050
     21          6           0       -4.987227   -5.855315   -1.367646
     22          8           0       -4.939641   -6.457885   -0.241050
     23          6           0       -4.789671   -6.583586   -2.633992
     24          7           0       -5.598045   -1.706725    2.113446
     25          6           0       -5.626604   -3.043940    2.108517
     26          6           0       -5.633715   -3.595072    3.503559
     27          6           0       -5.357676   -2.354568    4.470360
     28          6           0       -5.319086   -1.230074    3.406266
     29          6           0       -6.925071   -4.302503    3.937090
     30          6           0       -4.167044   -2.480707    5.453673
     31          6           0       -2.865460   -2.499522    4.683853
     32          7           0       -5.120345    1.143932    1.611084
     33          6           0       -5.181184    1.195886    3.011182
     34          6           0       -5.188275    2.620662    3.390697
     35          6           0       -5.147533    3.303110    2.176428
     36          6           0       -5.143432    2.364370    1.105427
     37          6           0       -5.286605    3.129659    4.715720
     38          6           0       -5.131381    4.607260    1.533939
     39          8           0       -5.030287    5.768730    1.931758
     40          6           0       -5.391363    4.401748   -0.023623
     41          6           0       -4.363738    5.211211   -0.766634
     42          8           0       -3.153791    4.909651   -0.717062
     43          8           0       -4.984261    6.059047   -1.601301
     44          6           0       -4.020918    6.871932   -2.390821
     45          1           0       -6.835871   -1.270002   -3.760331
     46          1           0       -5.531482   -4.790245    1.223690
     47          1           0       -5.197455    0.337601    4.833790
     48          1           0       -6.532504    3.574076   -2.833135
     49          1           0       -6.496126    1.220061   -4.383857
     50          1           0       -8.500122    2.384863   -2.488306
     51          1           0       -8.538259    0.600488   -2.632583
     52          1           0       -8.782605    1.550377   -4.070842
     53          1           0       -4.254986    1.938404   -3.968387
     54          1           0       -3.840400    3.356066   -2.923960
     55          1           0       -5.688862    4.208437   -4.909822
     56          1           0       -4.747371    2.996620   -5.692733
     57          1           0       -6.286039   -3.096375   -4.657497
     58          1           0       -6.644669   -4.687180   -4.103656
     59          1           0       -4.954238   -4.303529   -4.519077
     60          1           0       -5.699739   -6.520844   -3.230975
     61          1           0       -4.461817   -7.584911   -2.357027
     62          1           0       -4.009986   -6.084677   -3.210299
     63          1           0       -4.844398   -4.333866    3.636179
     64          1           0       -6.211585   -2.138936    5.113023
     65          1           0       -6.771943   -5.330792    4.265542
     66          1           0       -7.628886   -4.257990    3.106455
     67          1           0       -7.483745   -3.793412    4.722028
     68          1           0       -4.227690   -3.418906    6.004174
     69          1           0       -4.122859   -1.670998    6.182144
     70          1           0       -2.771192   -3.544475    4.390563
     71          1           0       -2.038343   -2.198587    5.327690
     72          1           0       -2.935022   -1.909526    3.769769
     73          1           0       -4.562447    3.941283    4.785223
     74          1           0       -5.084260    2.353950    5.453917
     75          1           0       -6.325734    3.458117    4.729265
     76          1           0       -6.405582    4.747770   -0.220471
     77          1           0       -4.265360    7.919596   -2.215082
     78          1           0       -4.073344    6.505229   -3.416094
     79          1           0       -2.982213    6.844612   -2.059634
     80         12           0        5.355279   -0.893148   -0.235030
     81          6           0        5.292684    2.547558    0.783172
     82          6           0        4.329716    0.154787   -3.314754
     83          6           0        4.966067   -3.939471   -1.032419
     84          6           0        5.255809   -1.749878    3.141631
     85          7           0        4.904013    1.117197   -1.039484
     86          6           0        4.975096    2.356596   -0.577751
     87          6           0        4.768439    3.456526   -1.653395
     88          6           0        3.925813    2.597559   -2.716890
     89          6           0        4.439038    1.202549   -2.365879
     90          6           0        2.427353    2.632234   -2.466379
     91          6           0        6.124139    3.957149   -2.264515
     92          6           0        6.021629    5.240375   -3.091888
     93          1           0        7.131669    6.188134   -3.046823
     94          7           0        5.217158   -1.745383   -2.021975
     95          6           0        4.803702   -1.167529   -3.169333
     96          6           0        4.864441   -2.220582   -4.194794
     97          6           0        5.190043   -3.509133   -3.525223
     98          6           0        5.114920   -3.109736   -2.134202
     99          6           0        4.703203   -1.939312   -5.660502
    100          6           0        5.503021   -4.877741   -4.049750
    101          8           0        5.521167   -5.904772   -3.283124
    102          6           0        5.695701   -4.994801   -5.502561
    103          7           0        4.928653   -2.597957    0.875796
    104          6           0        4.865546   -3.806730    0.290307
    105          6           0        4.821169   -4.910104    1.320350
    106          6           0        5.112721   -4.200062    2.723349
    107          6           0        5.190257   -2.731213    2.252334
    108          6           0        3.507694   -5.687103    1.406724
    109          6           0        6.285181   -4.767877    3.569283
    110          6           0        7.600328   -4.501339    2.873059
    111          7           0        5.472168    0.168495    1.643087
    112          6           0        5.383345   -0.381390    2.940703
    113          6           0        5.401057    0.747097    3.893919
    114          6           0        5.476341    1.885481    3.077271
    115          6           0        5.483262    1.495052    1.710883
    116          6           0        5.302561    0.641526    5.310001
    117          6           0        5.540826    3.329175    3.060124
    118          8           0        5.653140    4.203956    3.917953
    119          6           0        5.297203    3.828248    1.570848
    120          6           0        6.353499    4.848034    1.244067
    121          8           0        7.551077    4.519073    1.179237
    122          8           0        5.758045    5.988620    0.850501
    123          6           0        6.764869    7.027222    0.504922
    124          1           0        3.792953    0.349898   -4.243560
    125          1           0        4.938941   -5.009989   -1.248588
    126          1           0        5.327019   -1.938526    4.214946
    127          1           0        4.189881    4.311180   -1.323825
    128          1           0        4.195667    2.857591   -3.737148
    129          1           0        2.184999    3.134245   -1.541511
    130          1           0        2.111253    1.597937   -2.429556
    131          1           0        1.911964    3.074545   -3.323742
    132          1           0        6.445807    3.255584   -3.044962
    133          1           0        6.865260    4.079198   -1.498697
    134          1           0        5.067722    5.757949   -2.933334
    135          1           0        6.007330    4.970427   -4.150629
    136          1           0        4.309907   -0.930314   -5.835592
    137          1           0        3.915761   -2.605537   -6.029213
    138          1           0        5.617569   -2.124870   -6.228099
    139          1           0        4.798963   -4.653731   -6.014418
    140          1           0        5.998404   -6.029488   -5.674783
    141          1           0        6.505471   -4.320764   -5.803509
    142          1           0        5.592950   -5.646283    1.131968
    143          1           0        4.249252   -4.267482    3.401366
    144          1           0        3.634246   -6.776158    1.258394
    145          1           0        2.822029   -5.280824    0.675047
    146          1           0        2.955835   -5.559358    2.336420
    147          1           0        6.196156   -5.853277    3.659503
    148          1           0        6.327525   -4.363514    4.575114
    149          1           0        7.670970   -5.324340    2.155580
    150          1           0        8.422767   -4.526775    3.585100
    151          1           0        7.560345   -3.567405    2.300518
    152          1           0        6.035504    1.320804    5.724578
    153          1           0        5.471388   -0.379692    5.645243
    154          1           0        4.265853    0.955851    5.457376
    155          1           0        4.292689    4.250889    1.527155
    156          1           0        6.536942    7.908039    1.113112
    157          1           0        6.707603    7.145021   -0.593531
    158          1           0        7.795133    6.838811    0.783323
 ---------------------------------------------------------------------

 SCF Done:  E(RCAM-B3LYP) =  -4069.81172239     A.U. after   19 cycles

 Excitation energies and oscillator strengths:

 Excited State   1:      Singlet-A      1.6585 eV  747.55 nm  f=0.0324  <S**2>=0.000
     309 -> 315       -0.11167
     310 -> 316        0.12735
     311 -> 313       -0.45069
     312 -> 314        0.51860
 This state for optimization and/or second-order correction.
 Total Energy, E(TD-HF/TD-DFT) =  -4069.75077250
 Copying the excited state density for this state as the 1-particle RhoCI density.

 Excited State   2:      Singlet-A      1.6944 eV  731.75 nm  f=0.6867  <S**2>=0.000
     309 -> 315        0.13561
     310 -> 316        0.11644
     311 -> 313        0.51680
     312 -> 314        0.44917

 Excited State   3:      Singlet-A      2.1822 eV  568.16 nm  f=0.0363  <S**2>=0.000
     309 -> 313       -0.24112
     310 -> 314        0.59722
     311 -> 315        0.10040
     312 -> 316       -0.24993

 Excited State   4:      Singlet-A      2.1951 eV  564.83 nm  f=0.1472  <S**2>=0.000
     309 -> 313        0.59340
     310 -> 314        0.23812
     311 -> 315       -0.26044
     312 -> 316       -0.10539

 Excited State   5:      Singlet-A      2.4809 eV  499.76 nm  f=0.0000  <S**2>=0.000
     312 -> 313        0.70709

 The electronic state is 1-A.
 Alpha  occ. eigenvalues --  -46.87885 -46.87478 -19.26443 -19.26109 -19.19178
 Alpha  occ. eigenvalues --  -19.18938 -19.18872 -19.18595 -19.18248 -19.17841
 Alpha  occ. eigenvalues --  -14.42546 -14.42301 -14.41535 -14.41179 -14.39488
 Alpha  occ. eigenvalues --  -14.39178 -14.38671 -14.38415 -10.39231 -10.38862
 Alpha  occ. eigenvalues --  -10.35505 -10.35277 -10.34472 -10.34012 -10.31860
 Alpha  occ. eigenvalues --  -10.31531 -10.31504 -10.31097 -10.31015 -10.30826
 Alpha  occ. eigenvalues --  -10.30656 -10.30585 -10.30286 -10.30223 -10.30176
 Alpha  occ. eigenvalues --  -10.29999 -10.29983 -10.29715 -10.29708 -10.29333
 Alpha  occ. eigenvalues --  -10.29273 -10.29235 -10.28895 -10.28772 -10.28465
 Alpha  occ. eigenvalues --  -10.28461 -10.28454 -10.28244 -10.28218 -10.27869
 Alpha  occ. eigenvalues --  -10.27865 -10.27826 -10.27820 -10.27661 -10.27571
 Alpha  occ. eigenvalues --  -10.27568 -10.27519 -10.27499 -10.27483 -10.27373
 Alpha  occ. eigenvalues --  -10.27373 -10.27308 -10.27288 -10.27265 -10.27219
 Alpha  occ. eigenvalues --  -10.26910 -10.26801 -10.26485 -10.26449 -10.26346
 Alpha  occ. eigenvalues --  -10.26344 -10.26253 -10.26098 -10.26016 -10.25877
 Alpha  occ. eigenvalues --  -10.25766 -10.25691 -10.25619 -10.25496 -10.25229
 Alpha  occ. eigenvalues --  -10.24910 -10.24870 -10.24767 -10.24690 -10.24614
 Alpha  occ. eigenvalues --  -10.24513  -3.16628  -3.16228  -1.91509  -1.91110
 Alpha  occ. eigenvalues --   -1.91096  -1.90938  -1.90698  -1.90535  -1.16790
 Alpha  occ. eigenvalues --   -1.16407  -1.08709  -1.08441  -1.07272  -1.06851
 Alpha  occ. eigenvalues --   -1.06797  -1.06721  -1.04678  -1.04297  -1.03847
 Alpha  occ. eigenvalues --   -1.03480  -1.03316  -1.02863  -1.02496  -1.01930
 Alpha  occ. eigenvalues --   -0.92066  -0.91783  -0.89599  -0.89330  -0.89322
 Alpha  occ. eigenvalues --   -0.88901  -0.88365  -0.88058  -0.87938  -0.87775
 Alpha  occ. eigenvalues --   -0.87618  -0.87496  -0.87348  -0.86988  -0.85108
 Alpha  occ. eigenvalues --   -0.84785  -0.84016  -0.83717  -0.83033  -0.82813
 Alpha  occ. eigenvalues --   -0.82760  -0.82452  -0.81705  -0.81393  -0.80698
 Alpha  occ. eigenvalues --   -0.80254  -0.78873  -0.78483  -0.77317  -0.77057
 Alpha  occ. eigenvalues --   -0.76959  -0.76688  -0.76036  -0.75608  -0.74982
 Alpha  occ. eigenvalues --   -0.74624  -0.72856  -0.72520  -0.71766  -0.71372
 Alpha  occ. eigenvalues --   -0.69984  -0.69607  -0.68988  -0.68622  -0.67731
 Alpha  occ. eigenvalues --   -0.67426  -0.67352  -0.67023  -0.65411  -0.65053
 Alpha  occ. eigenvalues --   -0.64954  -0.64728  -0.64583  -0.64454  -0.64352
 Alpha  occ. eigenvalues --   -0.64036  -0.62421  -0.62072  -0.60517  -0.60193
 Alpha  occ. eigenvalues --   -0.59918  -0.59572  -0.59078  -0.58806  -0.58595
 Alpha  occ. eigenvalues --   -0.58238  -0.57693  -0.57394  -0.57337  -0.57065
 Alpha  occ. eigenvalues --   -0.56395  -0.56117  -0.56031  -0.55679  -0.55603
 Alpha  occ. eigenvalues --   -0.55432  -0.55282  -0.55068  -0.54631  -0.54301
 Alpha  occ. eigenvalues --   -0.54029  -0.53675  -0.53381  -0.53328  -0.53064
 Alpha  occ. eigenvalues --   -0.53028  -0.52953  -0.52846  -0.52711  -0.52516
 Alpha  occ. eigenvalues --   -0.52511  -0.52259  -0.51974  -0.51737  -0.51712
 Alpha  occ. eigenvalues --   -0.51462  -0.51291  -0.51011  -0.50642  -0.50360
 Alpha  occ. eigenvalues --   -0.50113  -0.50003  -0.49795  -0.49707  -0.49616
 Alpha  occ. eigenvalues --   -0.49307  -0.49305  -0.49208  -0.49008  -0.48861
 Alpha  occ. eigenvalues --   -0.48698  -0.48541  -0.48523  -0.48348  -0.48216
 Alpha  occ. eigenvalues --   -0.48179  -0.47793  -0.47411  -0.47385  -0.46958
 Alpha  occ. eigenvalues --   -0.46891  -0.46685  -0.46527  -0.46446  -0.46339
 Alpha  occ. eigenvalues --   -0.46250  -0.46104  -0.45920  -0.45903  -0.45618
 Alpha  occ. eigenvalues --   -0.45280  -0.45034  -0.44672  -0.44604  -0.44323
 Alpha  occ. eigenvalues --   -0.44279  -0.44231  -0.44201  -0.44109  -0.43923
 Alpha  occ. eigenvalues --   -0.43903  -0.43766  -0.43604  -0.43491  -0.43350
 Alpha  occ. eigenvalues --   -0.43183  -0.43119  -0.42830  -0.42744  -0.42729
 Alpha  occ. eigenvalues --   -0.42692  -0.42400  -0.42109  -0.41797  -0.41789
 Alpha  occ. eigenvalues --   -0.41660  -0.41466  -0.41259  -0.41237  -0.40988
 Alpha  occ. eigenvalues --   -0.40908  -0.40776  -0.40657  -0.40577  -0.40504
 Alpha  occ. eigenvalues --   -0.40397  -0.40310  -0.40026  -0.39521  -0.39282
 Alpha  occ. eigenvalues --   -0.38561  -0.38178  -0.37907  -0.37457  -0.37406
 Alpha  occ. eigenvalues --   -0.37384  -0.37091  -0.36996  -0.36845  -0.36560
 Alpha  occ. eigenvalues --   -0.36303  -0.36027  -0.34374  -0.34066  -0.33916
 Alpha  occ. eigenvalues --   -0.33647  -0.33277  -0.32994  -0.31404  -0.31151
 Alpha  occ. eigenvalues --   -0.31125  -0.30784  -0.30110  -0.29740  -0.29526
 Alpha  occ. eigenvalues --   -0.29398  -0.29170  -0.29030  -0.24170  -0.23848
 Alpha  occ. eigenvalues --   -0.21213  -0.20936
 Alpha virt. eigenvalues --   -0.08856  -0.08617  -0.01834  -0.01508  -0.00137
 Alpha virt. eigenvalues --    0.00134   0.02123   0.02397   0.03011   0.03395
 Alpha virt. eigenvalues --    0.04597   0.04932   0.04955   0.05391   0.05997

 Mulliken charges:
               1
     1  Mg   0.838524
     2  C   -0.003425
     3  C   -0.094659
     4  C   -0.045650
     5  C   -0.063625
     6  N   -0.256735
     7  C   -0.052783
     8  C   -0.013909
     9  C   -0.086937
    10  C    0.046063
    11  C    0.104779
    12  C    0.053720
    13  C   -0.071180
    14  H    0.034034
    15  N   -0.433162
    16  C    0.168330
    17  C   -0.177277
    18  C   -0.003743
    19  C    0.148674
    20  C    0.110198
    21  C    0.012593
    22  O   -0.249395
    23  C    0.062398
    24  N   -0.341040
    25  C    0.041201
    26  C   -0.028228
    27  C   -0.024016
    28  C    0.074735
    29  C    0.076106
    30  C    0.035094
    31  C   -0.004491
    32  N   -0.310526
    33  C    0.080379
    34  C   -0.169168
    35  C    0.008532
    36  C    0.082940
    37  C    0.127184
    38  C    0.046262
    39  O   -0.187931
    40  C   -0.005474
    41  C    0.213241
    42  O   -0.258135
    43  O   -0.304483
    44  C    0.157841
    45  H   -0.017672
    46  H   -0.016630
    47  H   -0.041049
    48  H    0.001092
    49  H   -0.004517
    50  H    0.025643
    51  H    0.016774
    52  H    0.016664
    53  H    0.010462
    54  H    0.043214
    55  H    0.018676
    56  H    0.017724
    57  H    0.005500
    58  H    0.027081
    59  H    0.039321
    60  H    0.037196
    61  H    0.036260
    62  H    0.031652
    63  H    0.016527
    64  H    0.009719
    65  H    0.023340
    66  H    0.012612
    67  H    0.004939
    68  H    0.006364
    69  H    0.005145
    70  H    0.008384
    71  H    0.017974
    72  H    0.029210
    73  H    0.048396
    74  H    0.009449
    75  H    0.046116
    76  H    0.035340
    77  H    0.043549
    78  H    0.045891
    79  H    0.052800
    80  Mg   0.837882
    81  C   -0.016478
    82  C   -0.087859
    83  C   -0.045924
    84  C   -0.065211
    85  N   -0.254713
    86  C   -0.048625
    87  C   -0.015304
    88  C   -0.090902
    89  C    0.046258
    90  C    0.114513
    91  C    0.062545
    92  C   -0.077535
    93  H    0.034027
    94  N   -0.423397
    95  C    0.162889
    96  C   -0.175297
    97  C   -0.008354
    98  C    0.152083
    99  C    0.099780
   100  C    0.015040
   101  O   -0.253556
   102  C    0.061405
   103  N   -0.350050
   104  C    0.037552
   105  C   -0.019793
   106  C   -0.034691
   107  C    0.089169
   108  C    0.073698
   109  C    0.034791
   110  C   -0.007573
   111  N   -0.324254
   112  C    0.078918
   113  C   -0.163205
   114  C    0.002907
   115  C    0.096149
   116  C    0.131329
   117  C    0.042870
   118  O   -0.187350
   119  C    0.000610
   120  C    0.210969
   121  O   -0.251752
   122  O   -0.304693
   123  C    0.152299
   124  H   -0.020391
   125  H   -0.016035
   126  H   -0.040972
   127  H    0.001414
   128  H   -0.005638
   129  H    0.028219
   130  H    0.013545
   131  H    0.015716
   132  H    0.013240
   133  H    0.037374
   134  H    0.021565
   135  H    0.018817
   136  H    0.008360
   137  H    0.024677
   138  H    0.039248
   139  H    0.037387
   140  H    0.035849
   141  H    0.033830
   142  H    0.013973
   143  H    0.012155
   144  H    0.024918
   145  H    0.012043
   146  H    0.005780
   147  H    0.005992
   148  H    0.003316
   149  H    0.010778
   150  H    0.017568
   151  H    0.030288
   152  H    0.045843
   153  H    0.007908
   154  H    0.047406
   155  H    0.038352
   156  H    0.044141
   157  H    0.049221
   158  H    0.052948
 Sum of Mulliken charges =  -0.00000

 Dipole moment (field-independent basis, Debye):
    X=             -4.6425    Y=             -2.0621    Z=             -7.0287  Tot=              8.6723
 Quadrupole moment (field-independent basis, Debye-Ang):
   XX=           -518.1910   YY=           -546.3158   ZZ=           -453.4156
   XY=              1.9531   XZ=              0.1191   YZ=            -44.0006

 Normal termination of Gaussian 16 at Fri Sep 10 17:56:12 2021.
