 Gaussian 16, Revision A.03,
 Gaussian 16:  ES64L-G16RevA.03 25-Dec-2016

 -----------------------------------
 #p cam-b3lyp/Def2SVP td=(nstates=5)
 -----------------------------------

 --------------------------------
 TDDFT excited states in gaussian
 --------------------------------
 Symbolic Z-matrix:
 Charge =  0 Multiplicity = 1

                         Standard orientation:
 ---------------------------------------------------------------------
 Center     Atomic      Atomic             Coordinates (Angstroms)
 Number     Number       Type             X           Y           Z
 ---------------------------------------------------------------------
      1         12           0        7.822057   -0.796272    0.379674
      2          6           0        8.241068    1.861285   -1.981266
      3          6           0        8.939415    1.358140    2.778233
      4          6           0        7.893522   -3.245769    2.392501
      5          6           0        7.837188   -2.999476   -2.320571
      6          7           0        8.474963    1.316958    0.286841
      7          6           0        8.531417    2.239576   -0.668544
      8          6           0        8.855173    3.665877   -0.131680
      9          6           0        9.593490    3.263389    1.222901
     10          6           0        8.939121    1.914588    1.464689
     11          6           0       11.096111    3.058185    1.060038
     12          6           0        7.562185    4.503650    0.147690
     13          6           0        7.788492    6.003349    0.359928
     14          1           0        6.788844    6.939014   -0.132600
     15          7           0        7.867791   -0.830909    2.354404
     16          6           0        8.342317    0.140619    3.170642
     17          6           0        8.155254   -0.358531    4.549967
     18          6           0        7.708567   -1.776689    4.464000
     19          6           0        7.832237   -2.019000    3.049302
     20          6           0        8.348321    0.493619    5.766650
     21          6           0        7.253977   -2.761008    5.494824
     22          8           0        7.133372   -4.007697    5.238319
     23          6           0        7.035662   -2.234803    6.854415
     24          7           0        8.079872   -2.849966    0.108556
     25          6           0        8.009910   -3.696547    1.141702
     26          6           0        7.940775   -5.120956    0.676709
     27          6           0        7.732337   -5.059932   -0.905246
     28          6           0        7.803902   -3.524466   -1.093646
     29          6           0        9.164992   -5.989696    0.997015
     30          6           0        6.510941   -5.817837   -1.483340
     31          6           0        5.231582   -5.150270   -1.030912
     32          7           0        7.826558   -0.622538   -1.783851
     33          6           0        7.855311   -1.671757   -2.713898
     34          6           0        7.957710   -1.060439   -4.051760
     35          6           0        7.998380    0.310330   -3.804405
     36          6           0        7.952433    0.539678   -2.399563
     37          6           0        8.059441   -1.764348   -5.284073
     38          6           0        8.094798    1.633640   -4.398888
     39          8           0        8.069466    2.071002   -5.550220
     40          6           0        8.378589    2.685306   -3.237299
     41          6           0        7.432718    3.839527   -3.428121
     42          8           0        6.202966    3.690621   -3.276785
     43          8           0        8.135142    4.978872   -3.523182
     44          6           0        7.254798    6.166795   -3.684381
     45          1           0        9.496015    1.867714    3.567202
     46          1           0        7.808945   -4.116903    3.045503
     47          1           0        7.761758   -3.620910   -3.214765
     48          1           0        9.526948    4.247553   -0.763182
     49          1           0        9.356750    3.950452    2.035070
     50          1           0       11.392119    3.096370    0.011782
     51          1           0       11.302303    2.072728    1.478191
     52          1           0       11.652621    3.766678    1.674132
     53          1           0        7.164781    4.235626    1.126616
     54          1           0        6.829295    4.358514   -0.646749
     55          1           0        8.785630    6.305396    0.038381
     56          1           0        7.777669    6.202085    1.431649
     57          1           0        8.836140    1.436349    5.522029
     58          1           0        9.062291   -0.023401    6.407467
     59          1           0        7.415890    0.652538    6.308542
     60          1           0        7.962817   -1.795922    7.223625
     61          1           0        6.627935   -3.061584    7.434968
     62          1           0        6.309833   -1.422518    6.806318
     63          1           0        7.096025   -5.639264    1.128571
     64          1           0        8.583137   -5.474877   -1.446202
     65          1           0        8.928157   -6.884872    1.572579
     66          1           0        9.891141   -5.368719    1.520834
     67          1           0        9.739454   -6.308326    0.127599
     68          1           0        6.488202   -6.841079   -1.109971
     69          1           0        6.507981   -5.862078   -2.572507
     70          1           0        5.068066   -5.581175   -0.043787
     71          1           0        4.412734   -5.399999   -1.706437
     72          1           0        5.367746   -4.076665   -0.899314
     73          1           0        7.395537   -1.254641   -5.982214
     74          1           0        7.781699   -2.811502   -5.166045
     75          1           0        9.119268   -1.635597   -5.503270
     76          1           0        9.420246    2.988872   -3.336899
     77          1           0        7.571229    6.679935   -4.592562
     78          1           0        7.306201    6.720128   -2.746519
     79          1           0        6.208791    5.963633   -3.916621
     80         12           0       -7.988672    0.695375    0.604872
     81          6           0       -8.083438   -2.172910   -1.549895
     82          6           0       -6.976591    2.508609   -2.101137
     83          6           0       -7.461647    3.136311    2.562297
     84          6           0       -7.888048   -1.508076    3.303092
     85          7           0       -7.615119    0.128666   -1.500261
     86          6           0       -7.743802   -0.977585   -2.217193
     87          6           0       -7.572998   -0.776222   -3.746844
     88          6           0       -6.683455    0.560425   -3.715576
     89          6           0       -7.140385    1.126761   -2.372759
     90          6           0       -5.190530    0.288057   -3.635942
     91          6           0       -8.942341   -0.537986   -4.474951
     92          6           0       -8.885983   -0.641527   -6.000683
     93          1           0      -10.035827   -1.204554   -6.703054
     94          7           0       -7.795680    2.632496    0.219034
     95          6           0       -7.395279    3.195338   -0.940349
     96          6           0       -7.400364    4.647564   -0.705418
     97          6           0       -7.677707    4.888460    0.736723
     98          6           0       -7.634214    3.531583    1.243762
     99          6           0       -7.235951    5.651066   -1.809662
    100          6           0       -7.926578    6.135058    1.530618
    101          8           0       -7.908930    6.131923    2.812224
    102          6           0       -8.098897    7.377366    0.763514
    103          7           0       -7.501387    0.804552    2.623032
    104          6           0       -7.380694    1.992184    3.241820
    105          6           0       -7.300084    1.820967    4.740007
    106          6           0       -7.636285    0.281882    5.015244
    107          6           0       -7.771436   -0.212118    3.558161
    108          6           0       -5.955662    2.169944    5.378066
    109          6           0       -8.792247   -0.019342    6.008073
    110          6           0      -10.110224    0.425211    5.415862
    111          7           0       -8.170314   -1.440336    0.876500
    112          6           0       -8.071694   -2.157420    2.088997
    113          6           0       -8.147445   -3.593926    1.752642
    114          6           0       -8.262666   -3.613802    0.354495
    115          6           0       -8.238659   -2.284334   -0.146953
    116          6           0       -8.059345   -4.670995    2.679071
    117          6           0       -8.388435   -4.457563   -0.812092
    118          8           0       -8.546895   -5.663239   -0.999157
    119          6           0       -8.150768   -3.567623   -2.107437
    120          6           0       -9.246104   -3.876917   -3.090847
    121          8           0      -10.427829   -3.588504   -2.832075
    122          8           0       -8.695740   -4.260365   -4.257227
    123          6           0       -9.742253   -4.567429   -5.268331
    124          1           0       -6.438962    3.119793   -2.826602
    125          1           0       -7.386652    3.946386    3.291421
    126          1           0       -7.962356   -2.254829    4.096508
    127          1           0       -7.034865   -1.569235   -4.252119
    128          1           0       -6.953474    1.233614   -4.525055
    129          1           0       -4.979480   -0.761429   -3.493891
    130          1           0       -4.831031    0.863733   -2.793085
    131          1           0       -4.685535    0.695405   -4.516506
    132          1           0       -9.225642    0.517077   -4.368566
    133          1           0       -9.695946   -1.200295   -4.095415
    134          1           0       -7.956723   -1.109245   -6.348037
    135          1           0       -8.849135    0.368549   -6.415908
    136          1           0       -6.884219    5.177456   -2.734526
    137          1           0       -6.417011    6.317125   -1.517126
    138          1           0       -8.135602    6.248055   -1.973695
    139          1           0       -7.212216    7.554798    0.159543
    140          1           0       -8.355400    8.141983    1.499339
    141          1           0       -8.933479    7.244920    0.065985
    142          1           0       -8.037781    2.436650    5.239848
    143          1           0       -6.777856   -0.251351    5.449505
    144          1           0       -6.034129    2.941807    6.166838
    145          1           0       -5.280330    2.492106    4.596614
    146          1           0       -5.419501    1.329006    5.814582
    147          1           0       -8.657978    0.551592    6.930119
    148          1           0       -8.862298   -1.066031    6.284702
    149          1           0      -10.138208    1.493572    5.650191
    150          1           0      -10.938216   -0.103358    5.883923
    151          1           0      -10.104111    0.327261    4.324067
    152          1           0       -8.824867   -5.383490    2.401900
    153          1           0       -8.187982   -4.326254    3.702981
    154          1           0       -7.038573   -5.011508    2.485788
    155          1           0       -7.164789   -3.818198   -2.500662
    156          1           0       -9.558443   -5.587822   -5.618630
    157          1           0       -9.678589   -3.757840   -6.019515
    158          1           0      -10.766395   -4.643874   -4.922312
 ---------------------------------------------------------------------

 SCF Done:  E(RCAM-B3LYP) =  -4069.81190821     A.U. after   19 cycles

 Excitation energies and oscillator strengths:

 Excited State   1:      Singlet-A      1.6748 eV  740.31 nm  f=0.3376  <S**2>=0.000
     310 -> 316        0.16433
     311 -> 313        0.21587
     312 -> 314        0.65120
 This state for optimization and/or second-order correction.
 Total Energy, E(TD-HF/TD-DFT) =  -4069.75036174
 Copying the excited state density for this state as the 1-particle RhoCI density.

 Excited State   2:      Singlet-A      1.6801 eV  737.95 nm  f=0.4113  <S**2>=0.000
     309 -> 315        0.16673
     311 -> 313        0.65083
     312 -> 314       -0.21585

 Excited State   3:      Singlet-A      2.1859 eV  567.21 nm  f=0.1010  <S**2>=0.000
     310 -> 314        0.64241
     312 -> 316       -0.27264

 Excited State   4:      Singlet-A      2.1927 eV  565.44 nm  f=0.0985  <S**2>=0.000
     309 -> 313        0.64060
     311 -> 315       -0.27827

 Excited State   5:      Singlet-A      2.7633 eV  448.69 nm  f=0.0000  <S**2>=0.000
     312 -> 313        0.70710

 The electronic state is 1-A.
 Alpha  occ. eigenvalues --  -46.87839 -46.87587 -19.26364 -19.26278 -19.19100
 Alpha  occ. eigenvalues --  -19.19091 -19.18848 -19.18657 -19.18227 -19.17982
 Alpha  occ. eigenvalues --  -14.42493 -14.42418 -14.41489 -14.41289 -14.39445
 Alpha  occ. eigenvalues --  -14.39279 -14.38632 -14.38528 -10.39157 -10.39020
 Alpha  occ. eigenvalues --  -10.35481 -10.35335 -10.34448 -10.34158 -10.31768
 Alpha  occ. eigenvalues --  -10.31687 -10.31451 -10.31224 -10.30953 -10.30941
 Alpha  occ. eigenvalues --  -10.30616 -10.30550 -10.30330 -10.30286 -10.30241
 Alpha  occ. eigenvalues --  -10.30074 -10.29960 -10.29831 -10.29674 -10.29364
 Alpha  occ. eigenvalues --  -10.29332 -10.29294 -10.28798 -10.28620 -10.28596
 Alpha  occ. eigenvalues --  -10.28560 -10.28410 -10.28330 -10.28162 -10.28028
 Alpha  occ. eigenvalues --  -10.27929 -10.27838 -10.27769 -10.27626 -10.27584
 Alpha  occ. eigenvalues --  -10.27527 -10.27515 -10.27475 -10.27470 -10.27449
 Alpha  occ. eigenvalues --  -10.27409 -10.27397 -10.27383 -10.27331 -10.27217
 Alpha  occ. eigenvalues --  -10.26976 -10.26761 -10.26602 -10.26438 -10.26362
 Alpha  occ. eigenvalues --  -10.26275 -10.26203 -10.26100 -10.26059 -10.25895
 Alpha  occ. eigenvalues --  -10.25875 -10.25866 -10.25790 -10.25455 -10.25364
 Alpha  occ. eigenvalues --  -10.24880 -10.24827 -10.24801 -10.24706 -10.24695
 Alpha  occ. eigenvalues --  -10.24623  -3.16582  -3.16337  -1.91464  -1.91219
 Alpha  occ. eigenvalues --   -1.91050  -1.90892  -1.90808  -1.90645  -1.16712
 Alpha  occ. eigenvalues --   -1.16572  -1.08687  -1.08589  -1.07248  -1.06910
 Alpha  occ. eigenvalues --   -1.06875  -1.06722  -1.04625  -1.04415  -1.03801
 Alpha  occ. eigenvalues --   -1.03590  -1.03276  -1.02969  -1.02453  -1.02040
 Alpha  occ. eigenvalues --   -0.92021  -0.91912  -0.89554  -0.89434  -0.89235
 Alpha  occ. eigenvalues --   -0.89050  -0.88319  -0.88165  -0.87918  -0.87724
 Alpha  occ. eigenvalues --   -0.87716  -0.87606  -0.87312  -0.87051  -0.85028
 Alpha  occ. eigenvalues --   -0.84912  -0.83969  -0.83825  -0.83000  -0.82872
 Alpha  occ. eigenvalues --   -0.82694  -0.82571  -0.81645  -0.81524  -0.80645
 Alpha  occ. eigenvalues --   -0.80370  -0.78838  -0.78564  -0.77259  -0.77066
 Alpha  occ. eigenvalues --   -0.76983  -0.76822  -0.75974  -0.75751  -0.74934
 Alpha  occ. eigenvalues --   -0.74745  -0.72817  -0.72627  -0.71714  -0.71505
 Alpha  occ. eigenvalues --   -0.69935  -0.69708  -0.68918  -0.68743  -0.67685
 Alpha  occ. eigenvalues --   -0.67532  -0.67266  -0.67120  -0.65335  -0.65186
 Alpha  occ. eigenvalues --   -0.64902  -0.64698  -0.64667  -0.64578  -0.64305
 Alpha  occ. eigenvalues --   -0.64145  -0.62359  -0.62209  -0.60479  -0.60274
 Alpha  occ. eigenvalues --   -0.59850  -0.59706  -0.59031  -0.58922  -0.58549
 Alpha  occ. eigenvalues --   -0.58355  -0.57644  -0.57482  -0.57351  -0.57174
 Alpha  occ. eigenvalues --   -0.56355  -0.56131  -0.56043  -0.55812  -0.55563
 Alpha  occ. eigenvalues --   -0.55383  -0.55381  -0.55189  -0.54573  -0.54428
 Alpha  occ. eigenvalues --   -0.53942  -0.53816  -0.53340  -0.53268  -0.53160
 Alpha  occ. eigenvalues --   -0.53066  -0.52967  -0.52827  -0.52795  -0.52592
 Alpha  occ. eigenvalues --   -0.52467  -0.52354  -0.51965  -0.51820  -0.51664
 Alpha  occ. eigenvalues --   -0.51575  -0.51243  -0.51131  -0.50605  -0.50407
 Alpha  occ. eigenvalues --   -0.50062  -0.49957  -0.49901  -0.49807  -0.49559
 Alpha  occ. eigenvalues --   -0.49411  -0.49263  -0.49144  -0.49123  -0.49016
 Alpha  occ. eigenvalues --   -0.48645  -0.48498  -0.48488  -0.48478  -0.48321
 Alpha  occ. eigenvalues --   -0.48272  -0.47737  -0.47519  -0.47338  -0.47048
 Alpha  occ. eigenvalues --   -0.46838  -0.46637  -0.46603  -0.46465  -0.46402
 Alpha  occ. eigenvalues --   -0.46208  -0.46203  -0.46022  -0.45877  -0.45751
 Alpha  occ. eigenvalues --   -0.45234  -0.45152  -0.44630  -0.44545  -0.44443
 Alpha  occ. eigenvalues --   -0.44392  -0.44185  -0.44132  -0.44067  -0.44044
 Alpha  occ. eigenvalues --   -0.44016  -0.43868  -0.43552  -0.43483  -0.43427
 Alpha  occ. eigenvalues --   -0.43308  -0.43072  -0.42860  -0.42831  -0.42763
 Alpha  occ. eigenvalues --   -0.42693  -0.42496  -0.42049  -0.41899  -0.41750
 Alpha  occ. eigenvalues --   -0.41597  -0.41579  -0.41378  -0.41183  -0.40911
 Alpha  occ. eigenvalues --   -0.40908  -0.40859  -0.40652  -0.40621  -0.40606
 Alpha  occ. eigenvalues --   -0.40430  -0.40283  -0.40140  -0.39467  -0.39377
 Alpha  occ. eigenvalues --   -0.38502  -0.38290  -0.37798  -0.37569  -0.37356
 Alpha  occ. eigenvalues --   -0.37312  -0.37201  -0.37116  -0.36777  -0.36704
 Alpha  occ. eigenvalues --   -0.36242  -0.36151  -0.34330  -0.34181  -0.33844
 Alpha  occ. eigenvalues --   -0.33792  -0.33232  -0.33103  -0.31378  -0.31216
 Alpha  occ. eigenvalues --   -0.31079  -0.30900  -0.30088  -0.29886  -0.29491
 Alpha  occ. eigenvalues --   -0.29368  -0.29257  -0.29141  -0.24124  -0.23962
 Alpha  occ. eigenvalues --   -0.21170  -0.21044
 Alpha virt. eigenvalues --   -0.08817  -0.08720  -0.01790  -0.01613  -0.00099
 Alpha virt. eigenvalues --    0.00043   0.02152   0.02275   0.03074   0.03292
 Alpha virt. eigenvalues --    0.04673   0.04814   0.05024   0.05236   0.06124

 Mulliken charges:
               1
     1  Mg   0.838677
     2  C   -0.003092
     3  C   -0.094114
     4  C   -0.045802
     5  C   -0.063922
     6  N   -0.256809
     7  C   -0.052510
     8  C   -0.014010
     9  C   -0.087012
    10  C    0.046341
    11  C    0.104783
    12  C    0.053438
    13  C   -0.071760
    14  H    0.035819
    15  N   -0.433190
    16  C    0.168467
    17  C   -0.177082
    18  C   -0.003909
    19  C    0.148725
    20  C    0.110150
    21  C    0.012332
    22  O   -0.249416
    23  C    0.062450
    24  N   -0.341167
    25  C    0.041311
    26  C   -0.028251
    27  C   -0.023994
    28  C    0.074837
    29  C    0.076124
    30  C    0.035105
    31  C   -0.004547
    32  N   -0.310407
    33  C    0.080290
    34  C   -0.169865
    35  C    0.008235
    36  C    0.082865
    37  C    0.127369
    38  C    0.045906
    39  O   -0.188794
    40  C   -0.005251
    41  C    0.212840
    42  O   -0.257502
    43  O   -0.304650
    44  C    0.157846
    45  H   -0.017499
    46  H   -0.016646
    47  H   -0.041455
    48  H    0.000898
    49  H   -0.003969
    50  H    0.025469
    51  H    0.016530
    52  H    0.016754
    53  H    0.011287
    54  H    0.043844
    55  H    0.017941
    56  H    0.018137
    57  H    0.005931
    58  H    0.026962
    59  H    0.039648
    60  H    0.037413
    61  H    0.035792
    62  H    0.031472
    63  H    0.016744
    64  H    0.009523
    65  H    0.023421
    66  H    0.012527
    67  H    0.004836
    68  H    0.006665
    69  H    0.004692
    70  H    0.009016
    71  H    0.018257
    72  H    0.028684
    73  H    0.047210
    74  H    0.009178
    75  H    0.046070
    76  H    0.035213
    77  H    0.042874
    78  H    0.046538
    79  H    0.053188
    80  Mg   0.837956
    81  C   -0.016779
    82  C   -0.087541
    83  C   -0.045607
    84  C   -0.064936
    85  N   -0.254613
    86  C   -0.049669
    87  C   -0.015118
    88  C   -0.090503
    89  C    0.045704
    90  C    0.114188
    91  C    0.062481
    92  C   -0.077883
    93  H    0.034599
    94  N   -0.423550
    95  C    0.162878
    96  C   -0.174331
    97  C   -0.007956
    98  C    0.152263
    99  C    0.099240
   100  C    0.015511
   101  O   -0.253502
   102  C    0.061229
   103  N   -0.350052
   104  C    0.037579
   105  C   -0.019800
   106  C   -0.034781
   107  C    0.088900
   108  C    0.073734
   109  C    0.034794
   110  C   -0.007630
   111  N   -0.324092
   112  C    0.078425
   113  C   -0.163222
   114  C    0.002272
   115  C    0.096147
   116  C    0.131484
   117  C    0.042307
   118  O   -0.188065
   119  C    0.000952
   120  C    0.211242
   121  O   -0.251138
   122  O   -0.305535
   123  C    0.152072
   124  H   -0.018958
   125  H   -0.015859
   126  H   -0.040663
   127  H   -0.000489
   128  H   -0.004197
   129  H    0.022497
   130  H    0.014860
   131  H    0.017304
   132  H    0.013831
   133  H    0.037467
   134  H    0.021074
   135  H    0.019731
   136  H    0.009194
   137  H    0.026368
   138  H    0.039640
   139  H    0.038377
   140  H    0.036097
   141  H    0.033894
   142  H    0.014200
   143  H    0.012308
   144  H    0.024719
   145  H    0.011802
   146  H    0.005473
   147  H    0.005964
   148  H    0.003579
   149  H    0.010810
   150  H    0.017782
   151  H    0.030264
   152  H    0.045845
   153  H    0.008340
   154  H    0.047004
   155  H    0.035221
   156  H    0.043799
   157  H    0.049635
   158  H    0.053437
 Sum of Mulliken charges =  -0.00000

 Dipole moment (field-independent basis, Debye):
    X=              4.5093    Y=              4.3172    Z=              1.6545  Tot=              6.4582
 Quadrupole moment (field-independent basis, Debye-Ang):
   XX=           -519.0659   YY=           -510.1305   ZZ=           -488.8660
   XY=            -15.3454   XZ=             47.1160   YZ=              8.6307

 Normal termination of Gaussian 16 at Sat Sep 11 18:42:42 2021.
