 Gaussian 16, Revision A.03,
 Gaussian 16:  ES64L-G16RevA.03 25-Dec-2016

 -----------------------------------
 #p cam-b3lyp/Def2SVP td=(nstates=5)
 -----------------------------------

 --------------------------------
 TDDFT excited states in gaussian
 --------------------------------
 Symbolic Z-matrix:
 Charge =  0 Multiplicity = 1

                         Standard orientation:
 ---------------------------------------------------------------------
 Center     Atomic      Atomic             Coordinates (Angstroms)
 Number     Number       Type             X           Y           Z
 ---------------------------------------------------------------------
      1         12           0       -7.706095   -0.992404    0.286684
      2          6           0       -8.022792    2.572929    0.269016
      3          6           0       -8.661104   -0.944587   -2.988791
      4          6           0       -7.874070   -4.157060    0.402264
      5          6           0       -7.889833   -0.843875    3.763729
      6          7           0       -8.244788    0.666370   -1.076739
      7          6           0       -8.268327    1.991766   -0.977020
      8          6           0       -8.504327    2.709740   -2.339441
      9          6           0       -9.238761    1.530393   -3.121583
     10          6           0       -8.654373    0.343603   -2.375966
     11          6           0      -10.753015    1.528277   -2.938468
     12          6           0       -7.162880    3.112941   -3.039212
     13          6           0       -7.303484    4.098597   -4.202856
     14          1           0       -6.263561    5.096067   -4.405247
     15          7           0       -7.717860   -2.328755   -1.168266
     16          6           0       -8.124031   -2.131738   -2.445566
     17          6           0       -7.939408   -3.426185   -3.136219
     18          6           0       -7.572067   -4.441118   -2.110029
     19          6           0       -7.734330   -3.678806   -0.898448
     20          6           0       -8.063814   -3.592393   -4.619677
     21          6           0       -7.153031   -5.874097   -2.205474
     22          8           0       -7.105010   -6.638344   -1.181660
     23          6           0       -6.881852   -6.390461   -3.559311
     24          7           0       -8.079986   -2.338899    1.837423
     25          6           0       -8.037421   -3.659542    1.629879
     26          6           0       -8.054219   -4.416565    2.924704
     27          6           0       -7.871468   -3.326072    4.076738
     28          6           0       -7.862899   -2.051989    3.196450
     29          6           0       -9.317826   -5.243219    3.200295
     30          6           0       -6.703731   -3.543083    5.071583
     31          6           0       -5.382003   -3.381584    4.354610
     32          7           0       -7.740345    0.574693    1.788043
     33          6           0       -7.842909    0.409639    3.176896
     34          6           0       -7.936163    1.757903    3.766435
     35          6           0       -7.897804    2.618621    2.671200
     36          6           0       -7.814019    1.855396    1.471717
     37          6           0       -8.098300    2.053651    5.148708
     38          6           0       -7.932931    4.004706    2.233718
     39          8           0       -7.904736    5.095476    2.805488
     40          6           0       -8.138069    4.026715    0.654712
     41          6           0       -7.134494    4.988549    0.079368
     42          8           0       -5.912110    4.741629    0.125985
     43          8           0       -7.775580    5.922796   -0.639475
     44          6           0       -6.835055    6.891999   -1.262540
     45          1           0       -9.174809   -1.072155   -3.943660
     46          1           0       -7.825135   -5.243936    0.495781
     47          1           0       -7.864493   -0.716199    4.847477
     48          1           0       -9.154835    3.582920   -2.286349
     49          1           0       -8.950364    1.497298   -4.172037
     50          1           0      -11.065454    2.261606   -2.195143
     51          1           0      -11.004839    0.520332   -2.608127
     52          1           0      -11.258991    1.665452   -3.894475
     53          1           0       -6.762957    2.251094   -3.573386
     54          1           0       -6.453472    3.511312   -2.313011
     55          1           0       -8.288398    4.566319   -4.212222
     56          1           0       -7.262465    3.534799   -5.134869
     57          1           0       -8.504039   -2.711792   -5.085817
     58          1           0       -8.793094   -4.383841   -4.791346
     59          1           0       -7.114460   -3.860329   -5.083650
     60          1           0       -7.776949   -6.281395   -4.172054
     61          1           0       -6.509200   -7.405322   -3.425009
     62          1           0       -6.113950   -5.772546   -4.025633
     63          1           0       -7.230832   -5.128028    2.972440
     64          1           0       -8.753218   -3.252327    4.713725
     65          1           0       -9.119593   -6.300966    3.375167
     66          1           0       -9.999553   -5.106594    2.361323
     67          1           0       -9.924410   -4.887245    4.032614
     68          1           0       -6.729863   -4.556048    5.471790
     69          1           0       -6.722912   -2.852693    5.914937
     70          1           0       -5.224286   -4.363851    3.910640
     71          1           0       -4.590307   -3.142789    5.065529
     72          1           0       -5.457225   -2.663200    3.538061
     73          1           0       -7.420439    2.879146    5.365574
     74          1           0       -7.875773    1.185153    5.768219
     75          1           0       -9.153362    2.325736    5.174588
     76          1           0       -9.163327    4.349408    0.476278
     77          1           0       -7.139539    7.887621   -0.939645
     78          1           0       -6.839317    6.683761   -2.332598
     79          1           0       -5.806013    6.864613   -0.902457
     80         12           0        8.160535   -0.482851   -0.098106
     81          6           0        6.909095    2.875483    0.087744
     82          6           0        6.408423   -0.815836   -3.005650
     83          6           0        8.876684   -3.573660   -0.059631
     84          6           0        8.851743   -0.266072    3.310843
     85          7           0        6.864113    0.919927   -1.213342
     86          6           0        6.511456    2.189516   -1.078779
     87          6           0        5.754028    2.779424   -2.298566
     88          6           0        5.175230    1.410663   -2.907130
     89          6           0        6.229757    0.441847   -2.376037
     90          6           0        3.827881    1.015813   -2.325689
     91          6           0        6.716023    3.496206   -3.309914
     92          6           0        6.015908    4.359299   -4.361888
     93          1           0        6.668445    5.590587   -4.798446
     94          7           0        8.125437   -1.827529   -1.557281
     95          6           0        7.371592   -1.794648   -2.676168
     96          6           0        7.697253   -3.023212   -3.416940
     97          6           0        8.581927   -3.863900   -2.565288
     98          6           0        8.544649   -3.114059   -1.325757
     99          6           0        7.245713   -3.266618   -4.827720
    100          6           0        9.326649   -5.139346   -2.819918
    101          8           0        9.842599   -5.820078   -1.864298
    102          6           0        9.353788   -5.616270   -4.210345
    103          7           0        8.578613   -1.814232    1.442989
    104          6           0        8.910199   -3.091024    1.182639
    105          6           0        9.433790   -3.781660    2.419276
    106          6           0        9.612617   -2.628117    3.512415
    107          6           0        9.052605   -1.431881    2.711925
    108          6           0        8.547135   -4.888941    2.988621
    109          6           0       11.014967   -2.488826    4.165629
    110          6           0       12.019095   -2.020269    3.137243
    111          7           0        8.107452    1.069147    1.404063
    112          6           0        8.412221    0.938452    2.776695
    113          6           0        8.119327    2.238916    3.413437
    114          6           0        7.638901    3.035322    2.363006
    115          6           0        7.613760    2.278083    1.160738
    116          6           0        8.259294    2.537448    4.798144
    117          6           0        7.137296    4.341189    1.999973
    118          8           0        7.016091    5.418012    2.582654
    119          6           0        6.523224    4.257697    0.536298
    120          6           0        7.049235    5.423551   -0.255292
    121          8           0        8.260588    5.510743   -0.522933
    122          8           0        6.012371    6.124816   -0.748757
    123          6           0        6.483445    7.285272   -1.550778
    124          1           0        5.719188   -1.100346   -3.801195
    125          1           0        9.236951   -4.603887   -0.011461
    126          1           0        9.132933   -0.088044    4.350998
    127          1           0        4.939655    3.448375   -2.047444
    128          1           0        5.184761    1.426392   -3.993875
    129          1           0        3.536106    1.661223   -1.510546
    130          1           0        3.944227   -0.002630   -1.978872
    131          1           0        3.072127    0.980728   -3.115582
    132          1           0        7.176601    2.742513   -3.961503
    133          1           0        7.447357    4.083325   -2.789275
    134          1           0        4.966507    4.550239   -4.106436
    135          1           0        5.965901    3.795077   -5.296323
    136          1           0        6.473352   -2.549585   -5.132237
    137          1           0        6.735501   -4.235869   -4.837430
    138          1           0        8.076076   -3.297209   -5.536404
    139          1           0        8.335301   -5.765442   -4.560909
    140          1           0       10.007041   -6.490973   -4.206562
    141          1           0        9.791954   -4.833919   -4.840067
    142          1           0       10.397543   -4.237723    2.228765
    143          1           0        8.941248   -2.773259    4.371501
    144          1           0        9.063878   -5.863930    3.068936
    145          1           0        7.666703   -4.975370    2.365800
    146          1           0        8.118275   -4.679869    3.967174
    147          1           0       11.365409   -3.460914    4.521130
    148          1           0       11.031543   -1.811082    5.012602
    149          1           0       12.305955   -2.947446    2.632130
    150          1           0       12.874477   -1.553852    3.621826
    151          1           0       11.545102   -1.371624    2.391419
    152          1           0        8.720847    3.513930    4.861015
    153          1           0        8.852929    1.782594    5.309582
    154          1           0        7.211427    2.515800    5.109231
    155          1           0        5.437355    4.286111    0.634491
    156          1           0        6.016112    8.178631   -1.125111
    157          1           0        6.239016    7.041061   -2.601664
    158          1           0        7.533599    7.545247   -1.487176
 ---------------------------------------------------------------------

 SCF Done:  E(RCAM-B3LYP) =  -4069.81167365     A.U. after   19 cycles

 Excitation energies and oscillator strengths:

 Excited State   1:      Singlet-A      1.6696 eV  742.59 nm  f=0.0142  <S**2>=0.000
     309 -> 315       -0.10520
     310 -> 316        0.13651
     311 -> 313       -0.41736
     312 -> 314        0.54491
 This state for optimization and/or second-order correction.
 Total Energy, E(TD-HF/TD-DFT) =  -4069.75031671
 Copying the excited state density for this state as the 1-particle RhoCI density.

 Excited State   2:      Singlet-A      1.6853 eV  735.67 nm  f=0.7416  <S**2>=0.000
     309 -> 315        0.14052
     310 -> 316        0.10697
     311 -> 313        0.54406
     312 -> 314        0.41680

 Excited State   3:      Singlet-A      2.1853 eV  567.34 nm  f=0.0635  <S**2>=0.000
     309 -> 313       -0.13230
     310 -> 314        0.62899
     312 -> 316       -0.26671

 Excited State   4:      Singlet-A      2.1928 eV  565.42 nm  f=0.1312  <S**2>=0.000
     309 -> 313        0.62699
     310 -> 314        0.13130
     311 -> 315       -0.27259

 Excited State   5:      Singlet-A      2.7511 eV  450.68 nm  f=0.0000  <S**2>=0.000
     312 -> 313        0.70707

 The electronic state is 1-A.
 Alpha  occ. eigenvalues --  -46.87869 -46.87582 -19.26345 -19.26245 -19.19083
 Alpha  occ. eigenvalues --  -19.19064 -19.18893 -19.18654 -19.18226 -19.17954
 Alpha  occ. eigenvalues --  -14.42523 -14.42417 -14.41518 -14.41282 -14.39476
 Alpha  occ. eigenvalues --  -14.39275 -14.38656 -14.38519 -10.39143 -10.38992
 Alpha  occ. eigenvalues --  -10.35527 -10.35332 -10.34446 -10.34130 -10.31738
 Alpha  occ. eigenvalues --  -10.31656 -10.31475 -10.31223 -10.30986 -10.30943
 Alpha  occ. eigenvalues --  -10.30638 -10.30575 -10.30319 -10.30279 -10.30277
 Alpha  occ. eigenvalues --  -10.30071 -10.29984 -10.29816 -10.29699 -10.29363
 Alpha  occ. eigenvalues --  -10.29326 -10.29325 -10.28832 -10.28644 -10.28627
 Alpha  occ. eigenvalues --  -10.28585 -10.28436 -10.28324 -10.28194 -10.28047
 Alpha  occ. eigenvalues --  -10.27921 -10.27860 -10.27799 -10.27656 -10.27591
 Alpha  occ. eigenvalues --  -10.27570 -10.27558 -10.27507 -10.27474 -10.27453
 Alpha  occ. eigenvalues --  -10.27416 -10.27401 -10.27393 -10.27310 -10.27220
 Alpha  occ. eigenvalues --  -10.26946 -10.26805 -10.26616 -10.26502 -10.26371
 Alpha  occ. eigenvalues --  -10.26303 -10.26235 -10.26085 -10.26080 -10.25906
 Alpha  occ. eigenvalues --  -10.25886 -10.25859 -10.25763 -10.25487 -10.25333
 Alpha  occ. eigenvalues --  -10.24898 -10.24856 -10.24790 -10.24742 -10.24676
 Alpha  occ. eigenvalues --  -10.24613  -3.16612  -3.16332  -1.91493  -1.91214
 Alpha  occ. eigenvalues --   -1.91080  -1.90922  -1.90803  -1.90640  -1.16694
 Alpha  occ. eigenvalues --   -1.16541  -1.08682  -1.08558  -1.07294  -1.06907
 Alpha  occ. eigenvalues --   -1.06848  -1.06705  -1.04654  -1.04414  -1.03830
 Alpha  occ. eigenvalues --   -1.03585  -1.03303  -1.02962  -1.02480  -1.02033
 Alpha  occ. eigenvalues --   -0.92039  -0.91900  -0.89582  -0.89421  -0.89267
 Alpha  occ. eigenvalues --   -0.89062  -0.88349  -0.88150  -0.87930  -0.87746
 Alpha  occ. eigenvalues --   -0.87711  -0.87606  -0.87352  -0.87056  -0.85061
 Alpha  occ. eigenvalues --   -0.84918  -0.83996  -0.83807  -0.83045  -0.82872
 Alpha  occ. eigenvalues --   -0.82724  -0.82574  -0.81651  -0.81508  -0.80666
 Alpha  occ. eigenvalues --   -0.80361  -0.78870  -0.78564  -0.77288  -0.77067
 Alpha  occ. eigenvalues --   -0.77005  -0.76816  -0.75992  -0.75750  -0.74959
 Alpha  occ. eigenvalues --   -0.74729  -0.72840  -0.72620  -0.71739  -0.71498
 Alpha  occ. eigenvalues --   -0.69966  -0.69692  -0.68949  -0.68747  -0.67711
 Alpha  occ. eigenvalues --   -0.67524  -0.67306  -0.67128  -0.65363  -0.65186
 Alpha  occ. eigenvalues --   -0.64921  -0.64690  -0.64690  -0.64571  -0.64333
 Alpha  occ. eigenvalues --   -0.64131  -0.62360  -0.62189  -0.60515  -0.60272
 Alpha  occ. eigenvalues --   -0.59880  -0.59711  -0.59054  -0.58913  -0.58570
 Alpha  occ. eigenvalues --   -0.58344  -0.57647  -0.57459  -0.57374  -0.57161
 Alpha  occ. eigenvalues --   -0.56378  -0.56126  -0.56046  -0.55798  -0.55592
 Alpha  occ. eigenvalues --   -0.55399  -0.55376  -0.55169  -0.54584  -0.54407
 Alpha  occ. eigenvalues --   -0.53975  -0.53826  -0.53369  -0.53298  -0.53153
 Alpha  occ. eigenvalues --   -0.53062  -0.52983  -0.52837  -0.52820  -0.52602
 Alpha  occ. eigenvalues --   -0.52496  -0.52337  -0.51968  -0.51799  -0.51696
 Alpha  occ. eigenvalues --   -0.51581  -0.51260  -0.51118  -0.50657  -0.50418
 Alpha  occ. eigenvalues --   -0.50096  -0.49994  -0.49904  -0.49799  -0.49591
 Alpha  occ. eigenvalues --   -0.49413  -0.49283  -0.49168  -0.49119  -0.49014
 Alpha  occ. eigenvalues --   -0.48658  -0.48530  -0.48511  -0.48472  -0.48303
 Alpha  occ. eigenvalues --   -0.48268  -0.47767  -0.47518  -0.47367  -0.47047
 Alpha  occ. eigenvalues --   -0.46864  -0.46635  -0.46632  -0.46473  -0.46426
 Alpha  occ. eigenvalues --   -0.46224  -0.46196  -0.46005  -0.45881  -0.45733
 Alpha  occ. eigenvalues --   -0.45263  -0.45136  -0.44641  -0.44583  -0.44429
 Alpha  occ. eigenvalues --   -0.44397  -0.44212  -0.44163  -0.44087  -0.44042
 Alpha  occ. eigenvalues --   -0.44007  -0.43863  -0.43557  -0.43467  -0.43458
 Alpha  occ. eigenvalues --   -0.43304  -0.43093  -0.42843  -0.42812  -0.42761
 Alpha  occ. eigenvalues --   -0.42715  -0.42486  -0.42075  -0.41891  -0.41770
 Alpha  occ. eigenvalues --   -0.41612  -0.41583  -0.41381  -0.41210  -0.40945
 Alpha  occ. eigenvalues --   -0.40906  -0.40904  -0.40655  -0.40634  -0.40624
 Alpha  occ. eigenvalues --   -0.40420  -0.40326  -0.40151  -0.39500  -0.39362
 Alpha  occ. eigenvalues --   -0.38534  -0.38279  -0.37834  -0.37578  -0.37386
 Alpha  occ. eigenvalues --   -0.37342  -0.37192  -0.37119  -0.36775  -0.36679
 Alpha  occ. eigenvalues --   -0.36258  -0.36137  -0.34355  -0.34173  -0.33835
 Alpha  occ. eigenvalues --   -0.33769  -0.33255  -0.33097  -0.31422  -0.31212
 Alpha  occ. eigenvalues --   -0.31105  -0.30893  -0.30085  -0.29857  -0.29521
 Alpha  occ. eigenvalues --   -0.29387  -0.29253  -0.29129  -0.24150  -0.23956
 Alpha  occ. eigenvalues --   -0.21197  -0.21039
 Alpha virt. eigenvalues --   -0.08844  -0.08714  -0.01820  -0.01608  -0.00133
 Alpha virt. eigenvalues --    0.00044   0.02138   0.02293   0.03032   0.03295
 Alpha virt. eigenvalues --    0.04641   0.04810   0.05035   0.05263   0.06088

 Mulliken charges:
               1
     1  Mg   0.838362
     2  C   -0.003076
     3  C   -0.094391
     4  C   -0.045857
     5  C   -0.063839
     6  N   -0.256756
     7  C   -0.052539
     8  C   -0.013939
     9  C   -0.086952
    10  C    0.046162
    11  C    0.104797
    12  C    0.053576
    13  C   -0.071653
    14  H    0.035716
    15  N   -0.433115
    16  C    0.168245
    17  C   -0.177381
    18  C   -0.004109
    19  C    0.148590
    20  C    0.110208
    21  C    0.012121
    22  O   -0.249520
    23  C    0.062598
    24  N   -0.341129
    25  C    0.041212
    26  C   -0.028181
    27  C   -0.024066
    28  C    0.074889
    29  C    0.076133
    30  C    0.035093
    31  C   -0.004532
    32  N   -0.310524
    33  C    0.080465
    34  C   -0.169463
    35  C    0.008527
    36  C    0.082999
    37  C    0.127245
    38  C    0.046296
    39  O   -0.187941
    40  C   -0.005395
    41  C    0.212999
    42  O   -0.257231
    43  O   -0.304754
    44  C    0.157605
    45  H   -0.017653
    46  H   -0.016775
    47  H   -0.041215
    48  H    0.001119
    49  H   -0.004274
    50  H    0.025605
    51  H    0.016546
    52  H    0.016675
    53  H    0.010709
    54  H    0.043996
    55  H    0.018200
    56  H    0.017696
    57  H    0.005781
    58  H    0.026930
    59  H    0.038972
    60  H    0.037446
    61  H    0.035653
    62  H    0.030953
    63  H    0.016554
    64  H    0.009640
    65  H    0.023294
    66  H    0.012554
    67  H    0.004890
    68  H    0.006510
    69  H    0.004949
    70  H    0.008717
    71  H    0.018344
    72  H    0.028780
    73  H    0.047969
    74  H    0.009281
    75  H    0.046169
    76  H    0.035290
    77  H    0.043293
    78  H    0.046138
    79  H    0.053766
    80  Mg   0.837851
    81  C   -0.016767
    82  C   -0.087804
    83  C   -0.045573
    84  C   -0.064919
    85  N   -0.254579
    86  C   -0.049581
    87  C   -0.015169
    88  C   -0.090586
    89  C    0.045849
    90  C    0.114370
    91  C    0.062569
    92  C   -0.077759
    93  H    0.034568
    94  N   -0.423460
    95  C    0.162868
    96  C   -0.174749
    97  C   -0.007952
    98  C    0.152077
    99  C    0.099459
   100  C    0.015467
   101  O   -0.253319
   102  C    0.061255
   103  N   -0.350052
   104  C    0.037530
   105  C   -0.019821
   106  C   -0.034851
   107  C    0.089008
   108  C    0.073687
   109  C    0.034777
   110  C   -0.007651
   111  N   -0.324198
   112  C    0.078581
   113  C   -0.163068
   114  C    0.002519
   115  C    0.096182
   116  C    0.131444
   117  C    0.042616
   118  O   -0.187418
   119  C    0.000809
   120  C    0.211196
   121  O   -0.251322
   122  O   -0.305241
   123  C    0.152124
   124  H   -0.019934
   125  H   -0.015737
   126  H   -0.040482
   127  H    0.000058
   128  H   -0.004781
   129  H    0.023621
   130  H    0.014360
   131  H    0.016068
   132  H    0.013658
   133  H    0.037636
   134  H    0.021142
   135  H    0.019193
   136  H    0.008507
   137  H    0.025879
   138  H    0.039496
   139  H    0.038109
   140  H    0.036194
   141  H    0.033766
   142  H    0.014244
   143  H    0.012448
   144  H    0.024953
   145  H    0.011748
   146  H    0.005646
   147  H    0.006128
   148  H    0.003637
   149  H    0.010840
   150  H    0.017820
   151  H    0.030165
   152  H    0.045999
   153  H    0.008336
   154  H    0.047433
   155  H    0.036099
   156  H    0.044182
   157  H    0.049280
   158  H    0.053321
 Sum of Mulliken charges =  -0.00000

 Dipole moment (field-independent basis, Debye):
    X=             -4.5902    Y=             -3.5781    Z=             -6.7292  Tot=              8.8969
 Quadrupole moment (field-independent basis, Debye-Ang):
   XX=           -517.7818   YY=           -559.7038   ZZ=           -446.2991
   XY=             -7.7517   XZ=             22.7318   YZ=            -37.6144

 Normal termination of Gaussian 16 at Sun Sep 12 05:21:28 2021.
