 Gaussian 16, Revision A.03,
 Gaussian 16:  ES64L-G16RevA.03 25-Dec-2016

 -----------------------------------
 #p cam-b3lyp/Def2SVP td=(nstates=5)
 -----------------------------------

 --------------------------------
 TDDFT excited states in gaussian
 --------------------------------
 Symbolic Z-matrix:
 Charge =  0 Multiplicity = 1

                         Standard orientation:
 ---------------------------------------------------------------------
 Center     Atomic      Atomic             Coordinates (Angstroms)
 Number     Number       Type             X           Y           Z
 ---------------------------------------------------------------------
      1         12           0        4.707376   -0.305986    0.234775
      2          6           0        4.693271    2.835030   -1.481626
      3          6           0        5.364325    1.430403    3.097717
      4          6           0        5.174088   -3.087093    1.685377
      5          6           0        5.179623   -1.829537   -2.863844
      6          7           0        4.970687    1.856162    0.630284
      7          6           0        4.881289    2.961075   -0.103436
      8          6           0        4.930640    4.269297    0.741250
      9          6           0        5.698944    3.712744    2.022637
     10          6           0        5.293113    2.252150    1.933804
     11          6           0        7.217202    3.808286    1.911884
     12          6           0        3.501933    4.791843    1.112025
     13          6           0        3.449482    6.224890    1.649594
     14          1           0        2.308847    7.060451    1.305880
     15          7           0        4.714465   -0.763242    2.156680
     16          6           0        4.987789    0.072790    3.187034
     17          6           0        4.862964   -0.740348    4.415816
     18          6           0        4.681184   -2.160374    4.005236
     19          6           0        4.878076   -2.062657    2.581487
     20          6           0        4.872072   -0.154716    5.794476
     21          6           0        4.388496   -3.409171    4.775284
     22          8           0        4.500288   -4.571392    4.254402
     23          6           0        4.048606   -3.238297    6.199474
     24          7           0        5.337050   -2.175551   -0.447773
     25          6           0        5.397723   -3.226731    0.377044
     26          6           0        5.596815   -4.505291   -0.381630
     27          6           0        5.416194   -4.136407   -1.924696
     28          6           0        5.214080   -2.607867   -1.779831
     29          6           0        6.950073   -5.200479   -0.178121
     30          6           0        4.364601   -4.947062   -2.723075
     31          6           0        2.976101   -4.623541   -2.218593
     32          7           0        4.728839    0.334774   -1.838872
     33          6           0        4.966971   -0.464908   -2.966025
     34          6           0        4.987400    0.432438   -4.135821
     35          6           0        4.774847    1.702186   -3.602524
     36          6           0        4.656943    1.607468   -2.186396
     37          6           0        5.241825    0.043070   -5.480475
     38          6           0        4.644478    3.119960   -3.897107
     39          8           0        4.566480    3.787549   -4.929451
     40          6           0        4.708079    3.924833   -2.524532
     41          6           0        3.574201    4.913584   -2.524485
     42          8           0        2.388345    4.527056   -2.483156
     43          8           0        4.061755    6.149093   -2.333826
     44          6           0        2.985578    7.174955   -2.293773
     45          1           0        5.802214    1.842646    4.008897
     46          1           0        5.233309   -4.081237    2.133272
     47          1           0        5.237414   -2.243916   -3.872012
     48          1           0        5.500537    5.081119    0.288938
     49          1           0        5.324179    4.154702    2.945647
     50          1           0        7.524832    4.124827    0.915347
     51          1           0        7.588208    2.805411    2.124227
     52          1           0        7.623064    4.449852    2.694474
     53          1           0        3.137561    4.252312    1.986211
     54          1           0        2.825134    4.700747    0.261749
     55          1           0        4.382797    6.755963    1.460403
     56          1           0        3.379078    6.179613    2.736421
     57          1           0        5.187361    0.887897    5.784643
     58          1           0        5.653022   -0.669389    6.353883
     59          1           0        3.914395   -0.280057    6.299922
     60          1           0        4.873008   -2.738787    6.708787
     61          1           0        3.783675   -4.229274    6.566388
     62          1           0        3.189539   -2.571603    6.279931
     63          1           0        4.849413   -5.246548   -0.101710
     64          1           0        6.339713   -4.271197   -2.488272
     65          1           0        6.865630   -6.226836    0.179883
     66          1           0        7.540542   -4.594228    0.508243
     67          1           0        7.591832   -5.218194   -1.058603
     68          1           0        4.518290   -6.015610   -2.576337
     69          1           0        4.393999   -4.751908   -3.795130
     70          1           0        2.870898   -5.281330   -1.356573
     71          1           0        2.230965   -4.855827   -2.980188
     72          1           0        2.913591   -3.597625   -1.855173
     73          1           0        4.512707    0.571817   -6.094301
     74          1           0        5.154766   -1.036240   -5.603406
     75          1           0        6.265729    0.396004   -5.602604
     76          1           0        5.679940    4.416449   -2.494173
     77          1           0        3.224572    7.920643   -3.052103
     78          1           0        2.915456    7.510250   -1.258851
     79          1           0        1.998762    6.851613   -2.626915
     80         12           0       -4.251908   -1.051707    0.005460
     81          6           0       -6.904559    1.361422    0.144372
     82          6           0       -2.067291    1.566815    0.078832
     83          6           0       -1.912146   -3.116546   -0.568454
     84          6           0       -6.587723   -3.344709   -1.191130
     85          7           0       -4.566593    1.135589    0.100199
     86          6           0       -5.617373    1.934240    0.211301
     87          6           0       -5.268538    3.421731    0.485576
     88          6           0       -3.783901    3.437347   -0.126389
     89          6           0       -3.428307    1.963406    0.057291
     90          6           0       -3.748618    3.755661   -1.611910
     91          6           0       -5.262000    3.761496    2.017415
     92          6           0       -5.234471    5.256152    2.344506
     93          1           0       -5.966469    5.725509    3.517690
     94          7           0       -2.292765   -0.878933    0.270910
     95          6           0       -1.572421    0.262018    0.295454
     96          6           0       -0.174673   -0.148959    0.499366
     97          6           0       -0.107247   -1.633925    0.428359
     98          6           0       -1.460940   -1.939613    0.011034
     99          6           0        0.922812    0.826223    0.812348
    100          6           0        0.996893   -2.615545    0.680360
    101          8           0        0.899227   -3.843959    0.327806
    102          6           0        2.232244   -2.076258    1.267334
    103          7           0       -4.199840   -2.889600   -0.965006
    104          6           0       -3.063790   -3.606052   -1.028254
    105          6           0       -3.329080   -5.006387   -1.527331
    106          6           0       -4.920877   -5.157675   -1.556628
    107          6           0       -5.318945   -3.725911   -1.135937
    108          6           0       -2.760962   -5.339813   -2.906625
    109          6           0       -5.528644   -6.353907   -0.774122
    110          6           0       -5.320669   -6.158594    0.710459
    111          7           0       -6.393713   -1.086738   -0.276519
    112          6           0       -7.165945   -2.138796   -0.815881
    113          6           0       -8.557216   -1.651740   -0.913782
    114          6           0       -8.493136   -0.331842   -0.442342
    115          6           0       -7.152730   -0.011767   -0.095402
    116          6           0       -9.660903   -2.385563   -1.432925
    117          6           0       -9.252776    0.866939   -0.169281
    118          8           0      -10.447295    1.161171   -0.186382
    119          6           0       -8.236367    2.058029    0.103851
    120          6           0       -8.688058    2.778852    1.344371
    121          8           0       -8.669608    2.208058    2.449126
    122          8           0       -8.859528    4.082456    1.058744
    123          6           0       -9.296887    4.841432    2.260614
    124          1           0       -1.304814    2.317297   -0.131611
    125          1           0       -1.162277   -3.902424   -0.684964
    126          1           0       -7.392364   -4.031554   -1.462193
    127          1           0       -5.892785    4.138134   -0.034856
    128          1           0       -3.120643    4.065820    0.462222
    129          1           0       -4.739976    3.802721   -2.037516
    130          1           0       -3.177640    2.958701   -2.070042
    131          1           0       -3.179834    4.673273   -1.787396
    132          1           0       -4.299099    3.457266    2.447549
    133          1           0       -6.092276    3.298154    2.513995
    134          1           0       -5.472989    5.873902    1.470190
    135          1           0       -4.209629    5.536776    2.599406
    136          1           0        0.604005    1.860902    0.635739
    137          1           0        1.718665    0.658236    0.078675
    138          1           0        1.332741    0.691293    1.815555
    139          1           0        2.634048   -1.303511    0.616273
    140          1           0        2.869047   -2.942880    1.455288
    141          1           0        1.984813   -1.589903    2.217516
    142          1           0       -2.918479   -5.743302   -0.848020
    143          1           0       -5.297805   -5.300757   -2.579997
    144          1           0       -2.084527   -6.215294   -2.900068
    145          1           0       -2.247830   -4.465639   -3.284852
    146          1           0       -3.504548   -5.523946   -3.680163
    147          1           0       -5.014708   -7.280840   -1.040221
    148          1           0       -6.585417   -6.504568   -0.967849
    149          1           0       -4.302096   -6.525970    0.867392
    150          1           0       -6.042554   -6.741984    1.278421
    151          1           0       -5.331287   -5.094277    0.972693
    152          1           0      -10.492240   -2.213588   -0.762260
    153          1           0       -9.429509   -3.445358   -1.516924
    154          1           0       -9.768304   -1.910047   -2.411507
    155          1           0       -8.247857    2.706136   -0.773314
    156          1           0      -10.227724    5.351927    1.994866
    157          1           0       -8.436377    5.477120    2.541993
    158          1           0       -9.608663    4.270893    3.127641
 ---------------------------------------------------------------------

 SCF Done:  E(RCAM-B3LYP) =  -4069.80459464     A.U. after   19 cycles

 Excitation energies and oscillator strengths:

 Excited State   1:      Singlet-A      1.6530 eV  750.05 nm  f=0.3670  <S**2>=0.000
     309 -> 315       -0.13088
     310 -> 316        0.10369
     311 -> 313        0.52915
     312 -> 314       -0.43783
 This state for optimization and/or second-order correction.
 Total Energy, E(TD-HF/TD-DFT) =  -4069.74384784
 Copying the excited state density for this state as the 1-particle RhoCI density.

 Excited State   2:      Singlet-A      1.6691 eV  742.82 nm  f=0.4398  <S**2>=0.000
     309 -> 315       -0.11274
     310 -> 316       -0.12867
     311 -> 313        0.43368
     312 -> 314        0.52665

 Excited State   3:      Singlet-A      2.1651 eV  572.64 nm  f=0.0064  <S**2>=0.000
     309 -> 313        0.53532
     310 -> 314       -0.36262
     311 -> 315        0.21984
     312 -> 316       -0.14545

 Excited State   4:      Singlet-A      2.1858 eV  567.23 nm  f=0.1647  <S**2>=0.000
     309 -> 313        0.35564
     310 -> 314        0.53135
     311 -> 315        0.15723
     312 -> 316        0.21937

 Excited State   5:      Singlet-A      2.2577 eV  549.17 nm  f=0.0002  <S**2>=0.000
     312 -> 313        0.70282

 The electronic state is 1-A.
 Alpha  occ. eigenvalues --  -46.88089 -46.87521 -19.26756 -19.26265 -19.19534
 Alpha  occ. eigenvalues --  -19.19073 -19.18995 -19.18932 -19.18501 -19.17938
 Alpha  occ. eigenvalues --  -14.42744 -14.42339 -14.41575 -14.41215 -14.39462
 Alpha  occ. eigenvalues --  -14.39226 -14.38897 -14.38468 -10.39569 -10.38999
 Alpha  occ. eigenvalues --  -10.35612 -10.35376 -10.34725 -10.34115 -10.32153
 Alpha  occ. eigenvalues --  -10.31691 -10.31690 -10.31267 -10.31102 -10.30869
 Alpha  occ. eigenvalues --  -10.30812 -10.30590 -10.30356 -10.30279 -10.30203
 Alpha  occ. eigenvalues --  -10.30017 -10.29983 -10.29840 -10.29774 -10.29551
 Alpha  occ. eigenvalues --  -10.29326 -10.29309 -10.29154 -10.29052 -10.28710
 Alpha  occ. eigenvalues --  -10.28576 -10.28531 -10.28451 -10.28269 -10.28097
 Alpha  occ. eigenvalues --  -10.27993 -10.27872 -10.27871 -10.27811 -10.27716
 Alpha  occ. eigenvalues --  -10.27694 -10.27523 -10.27429 -10.27422 -10.27384
 Alpha  occ. eigenvalues --  -10.27354 -10.27353 -10.27299 -10.27287 -10.27268
 Alpha  occ. eigenvalues --  -10.27252 -10.26933 -10.26576 -10.26549 -10.26548
 Alpha  occ. eigenvalues --  -10.26506 -10.26175 -10.26057 -10.26045 -10.25800
 Alpha  occ. eigenvalues --  -10.25743 -10.25603 -10.25595 -10.25335 -10.25307
 Alpha  occ. eigenvalues --  -10.25152 -10.24881 -10.24749 -10.24652 -10.24559
 Alpha  occ. eigenvalues --  -10.23529  -3.16818  -3.16270  -1.91718  -1.91279
 Alpha  occ. eigenvalues --   -1.91152  -1.91121  -1.90741  -1.90578  -1.17109
 Alpha  occ. eigenvalues --   -1.16557  -1.08966  -1.08548  -1.07384  -1.07142
 Alpha  occ. eigenvalues --   -1.07090  -1.06857  -1.04878  -1.04337  -1.03958
 Alpha  occ. eigenvalues --   -1.03526  -1.03474  -1.02908  -1.02632  -1.01978
 Alpha  occ. eigenvalues --   -0.92284  -0.91852  -0.89617  -0.89489  -0.89378
 Alpha  occ. eigenvalues --   -0.88937  -0.88216  -0.88133  -0.88111  -0.87912
 Alpha  occ. eigenvalues --   -0.87672  -0.87518  -0.87488  -0.87107  -0.85328
 Alpha  occ. eigenvalues --   -0.84844  -0.83848  -0.83786  -0.83108  -0.83019
 Alpha  occ. eigenvalues --   -0.82779  -0.82525  -0.81899  -0.81488  -0.80857
 Alpha  occ. eigenvalues --   -0.80348  -0.79022  -0.78558  -0.77453  -0.77105
 Alpha  occ. eigenvalues --   -0.77015  -0.76761  -0.76190  -0.75668  -0.74863
 Alpha  occ. eigenvalues --   -0.74694  -0.72986  -0.72560  -0.71883  -0.71424
 Alpha  occ. eigenvalues --   -0.69657  -0.69569  -0.69131  -0.68706  -0.67897
 Alpha  occ. eigenvalues --   -0.67551  -0.67523  -0.67149  -0.65623  -0.65132
 Alpha  occ. eigenvalues --   -0.65107  -0.64836  -0.64637  -0.64529  -0.64159
 Alpha  occ. eigenvalues --   -0.64090  -0.62580  -0.62167  -0.60814  -0.60292
 Alpha  occ. eigenvalues --   -0.60091  -0.59621  -0.59195  -0.58856  -0.58719
 Alpha  occ. eigenvalues --   -0.58302  -0.57946  -0.57448  -0.57407  -0.57249
 Alpha  occ. eigenvalues --   -0.56575  -0.56325  -0.56135  -0.55856  -0.55746
 Alpha  occ. eigenvalues --   -0.55504  -0.55454  -0.55148  -0.54583  -0.54404
 Alpha  occ. eigenvalues --   -0.54247  -0.53778  -0.53562  -0.53491  -0.53313
 Alpha  occ. eigenvalues --   -0.53178  -0.53150  -0.53004  -0.52816  -0.52739
 Alpha  occ. eigenvalues --   -0.52325  -0.52185  -0.51979  -0.51943  -0.51789
 Alpha  occ. eigenvalues --   -0.51628  -0.51326  -0.51091  -0.50848  -0.50646
 Alpha  occ. eigenvalues --   -0.50336  -0.50106  -0.49856  -0.49789  -0.49652
 Alpha  occ. eigenvalues --   -0.49506  -0.49416  -0.49248  -0.49085  -0.48966
 Alpha  occ. eigenvalues --   -0.48902  -0.48680  -0.48538  -0.48414  -0.48288
 Alpha  occ. eigenvalues --   -0.48138  -0.47877  -0.47591  -0.47224  -0.47076
 Alpha  occ. eigenvalues --   -0.46931  -0.46839  -0.46562  -0.46526  -0.46395
 Alpha  occ. eigenvalues --   -0.46196  -0.46175  -0.46071  -0.45964  -0.45701
 Alpha  occ. eigenvalues --   -0.45219  -0.45070  -0.44877  -0.44695  -0.44452
 Alpha  occ. eigenvalues --   -0.44395  -0.44370  -0.44230  -0.44088  -0.43977
 Alpha  occ. eigenvalues --   -0.43940  -0.43816  -0.43759  -0.43491  -0.43446
 Alpha  occ. eigenvalues --   -0.43241  -0.43210  -0.43069  -0.42831  -0.42773
 Alpha  occ. eigenvalues --   -0.42584  -0.42454  -0.41992  -0.41916  -0.41861
 Alpha  occ. eigenvalues --   -0.41749  -0.41486  -0.41364  -0.41288  -0.41074
 Alpha  occ. eigenvalues --   -0.41008  -0.40875  -0.40775  -0.40630  -0.40555
 Alpha  occ. eigenvalues --   -0.40363  -0.40254  -0.40058  -0.39330  -0.38842
 Alpha  occ. eigenvalues --   -0.38419  -0.38235  -0.38098  -0.37561  -0.37529
 Alpha  occ. eigenvalues --   -0.37229  -0.37132  -0.37070  -0.37036  -0.36679
 Alpha  occ. eigenvalues --   -0.36263  -0.36096  -0.34527  -0.34215  -0.34112
 Alpha  occ. eigenvalues --   -0.33764  -0.33413  -0.33032  -0.31540  -0.31313
 Alpha  occ. eigenvalues --   -0.31191  -0.30836  -0.30359  -0.29843  -0.29672
 Alpha  occ. eigenvalues --   -0.29575  -0.29226  -0.29090  -0.24313  -0.23883
 Alpha  occ. eigenvalues --   -0.21367  -0.20976
 Alpha virt. eigenvalues --   -0.09071  -0.08674  -0.02025  -0.01603  -0.00331
 Alpha virt. eigenvalues --   -0.00079   0.01925   0.02241   0.03325   0.04088
 Alpha virt. eigenvalues --    0.04445   0.04619   0.04892   0.05256   0.05616

 Mulliken charges:
               1
     1  Mg   0.686126
     2  C   -0.002292
     3  C   -0.092722
     4  C   -0.037165
     5  C   -0.059668
     6  N   -0.252887
     7  C   -0.055118
     8  C   -0.012281
     9  C   -0.085795
    10  C    0.044126
    11  C    0.104634
    12  C    0.049936
    13  C   -0.071298
    14  H    0.034002
    15  N   -0.420290
    16  C    0.166088
    17  C   -0.179743
    18  C   -0.007162
    19  C    0.118078
    20  C    0.110871
    21  C    0.010776
    22  O   -0.246583
    23  C    0.063191
    24  N   -0.327625
    25  C    0.041008
    26  C   -0.024839
    27  C   -0.024800
    28  C    0.080881
    29  C    0.078141
    30  C    0.034707
    31  C    0.000301
    32  N   -0.303462
    33  C    0.081206
    34  C   -0.168838
    35  C    0.009082
    36  C    0.079867
    37  C    0.127122
    38  C    0.046171
    39  O   -0.187639
    40  C   -0.007117
    41  C    0.213661
    42  O   -0.261499
    43  O   -0.303700
    44  C    0.157618
    45  H   -0.018403
    46  H   -0.013306
    47  H   -0.040252
    48  H    0.001436
    49  H   -0.004637
    50  H    0.025749
    51  H    0.018012
    52  H    0.017145
    53  H    0.010608
    54  H    0.041311
    55  H    0.019883
    56  H    0.018941
    57  H    0.005579
    58  H    0.027513
    59  H    0.038665
    60  H    0.037688
    61  H    0.037533
    62  H    0.029980
    63  H    0.022632
    64  H    0.007914
    65  H    0.023834
    66  H    0.010993
    67  H    0.004168
    68  H    0.004200
    69  H   -0.000435
    70  H    0.020273
    71  H    0.012144
    72  H    0.028019
    73  H    0.047732
    74  H    0.011086
    75  H    0.046542
    76  H    0.036084
    77  H    0.044533
    78  H    0.046366
    79  H    0.051777
    80  Mg   0.838410
    81  C   -0.016813
    82  C   -0.090674
    83  C   -0.046351
    84  C   -0.065201
    85  N   -0.254462
    86  C   -0.049455
    87  C   -0.015270
    88  C   -0.089747
    89  C    0.043982
    90  C    0.113941
    91  C    0.062708
    92  C   -0.077197
    93  H    0.033407
    94  N   -0.423952
    95  C    0.163546
    96  C   -0.180138
    97  C    0.002097
    98  C    0.152934
    99  C    0.085713
   100  C    0.037612
   101  O   -0.246255
   102  C    0.047694
   103  N   -0.350165
   104  C    0.037454
   105  C   -0.019905
   106  C   -0.034831
   107  C    0.089200
   108  C    0.073414
   109  C    0.034843
   110  C   -0.007624
   111  N   -0.324031
   112  C    0.078539
   113  C   -0.163439
   114  C    0.002324
   115  C    0.096095
   116  C    0.131522
   117  C    0.042183
   118  O   -0.188308
   119  C    0.001023
   120  C    0.211230
   121  O   -0.251446
   122  O   -0.305407
   123  C    0.152221
   124  H   -0.008651
   125  H   -0.015390
   126  H   -0.040879
   127  H   -0.000730
   128  H   -0.004400
   129  H    0.020849
   130  H    0.018779
   131  H    0.019196
   132  H    0.013187
   133  H    0.037044
   134  H    0.021142
   135  H    0.018940
   136  H    0.016067
   137  H    0.049324
   138  H    0.052663
   139  H    0.056300
   140  H    0.069488
   141  H    0.050228
   142  H    0.014131
   143  H    0.012341
   144  H    0.023788
   145  H    0.012383
   146  H    0.005707
   147  H    0.005840
   148  H    0.003505
   149  H    0.011001
   150  H    0.017624
   151  H    0.030192
   152  H    0.045620
   153  H    0.008237
   154  H    0.046986
   155  H    0.035423
   156  H    0.043711
   157  H    0.049356
   158  H    0.053201
 Sum of Mulliken charges =  -0.00000

 Dipole moment (field-independent basis, Debye):
    X=              5.3737    Y=              2.5224    Z=              3.0330  Tot=              6.6662
 Quadrupole moment (field-independent basis, Debye-Ang):
   XX=           -553.4445   YY=           -474.6853   ZZ=           -507.7066
   XY=             15.8557   XZ=             26.9846   YZ=             45.8651

 Normal termination of Gaussian 16 at Fri Sep 10 07:53:17 2021.
