 Gaussian 16, Revision A.03,
 Gaussian 16:  ES64L-G16RevA.03 25-Dec-2016

 -----------------------------------
 #p cam-b3lyp/Def2SVP td=(nstates=5)
 -----------------------------------

 --------------------------------
 TDDFT excited states in gaussian
 --------------------------------
 Symbolic Z-matrix:
 Charge =  0 Multiplicity = 1

                         Standard orientation:
 ---------------------------------------------------------------------
 Center     Atomic      Atomic             Coordinates (Angstroms)
 Number     Number       Type             X           Y           Z
 ---------------------------------------------------------------------
      1         12           0       -5.064200   -0.907415    0.179921
      2          6           0       -5.359048    1.986273    2.266029
      3          6           0       -6.111625    1.041806   -2.417482
      4          6           0       -5.248539   -3.539739   -1.578916
      5          6           0       -5.148085   -2.829152    3.086045
      6          7           0       -5.631089    1.229375    0.064120
      7          6           0       -5.643523    2.243831    0.923128
      8          6           0       -5.913681    3.621748    0.248049
      9          6           0       -6.677389    3.117088   -1.057351
     10          6           0       -6.079447    1.725463   -1.165840
     11          6           0       -8.185809    2.990326   -0.869998
     12          6           0       -4.590183    4.374381   -0.117502
     13          6           0       -4.757667    5.853546   -0.477189
     14          1           0       -3.717723    6.792080   -0.083465
     15          7           0       -5.125650   -1.136083   -1.781401
     16          6           0       -5.566734   -0.231926   -2.688721
     17          6           0       -5.409889   -0.872765   -4.012129
     18          6           0       -5.019856   -2.292359   -3.786914
     19          6           0       -5.142856   -2.387764   -2.354732
     20          6           0       -5.577452   -0.138502   -5.306938
     21          6           0       -4.612640   -3.391835   -4.716140
     22          8           0       -4.540296   -4.610758   -4.337240
     23          6           0       -4.383282   -3.012550   -6.122049
     24          7           0       -5.402238   -2.911851    0.654898
     25          6           0       -5.373820   -3.858979   -0.289096
     26          6           0       -5.358519   -5.231802    0.315109
     27          6           0       -5.136298   -5.022516    1.882454
     28          6           0       -5.144819   -3.474297    1.917351
     29          6           0       -6.618907   -6.077565    0.086821
     30          6           0       -3.942126   -5.768293    2.529130
     31          6           0       -2.640334   -5.201514    2.008363
     32          7           0       -5.045988   -0.519664    2.315422
     33          6           0       -5.110054   -1.469303    3.345352
     34          6           0       -5.178105   -0.724503    4.616064
     35          6           0       -5.165536    0.615443    4.233661
     36          6           0       -5.120643    0.702099    2.812828
     37          6           0       -5.299035   -1.297844    5.912632
     38          6           0       -5.204448    1.994066    4.693817
     39          8           0       -5.153212    2.542199    5.795823
     40          6           0       -5.454251    2.935852    3.434268
     41          6           0       -4.461464    4.063906    3.506210
     42          8           0       -3.239811    3.850839    3.366450
     43          8           0       -5.116893    5.234667    3.489700
     44          6           0       -4.188439    6.395952    3.529026
     45          1           0       -6.653053    1.492720   -3.251432
     46          1           0       -5.203739   -4.474125   -2.142259
     47          1           0       -5.091151   -3.361271    4.037391
     48          1           0       -6.556963    4.290083    0.820710
     49          1           0       -6.419184    3.709913   -1.934625
     50          1           0       -8.472414    3.144415    0.170212
     51          1           0       -8.434416    1.977418   -1.187337
     52          1           0       -8.717894    3.656373   -1.549737
     53          1           0       -4.210987    3.994542   -1.066182
     54          1           0       -3.857948    4.279177    0.685053
     55          1           0       -5.739516    6.226315   -0.184059
     56          1           0       -4.746675    5.944273   -1.563397
     57          1           0       -6.025255    0.842906   -5.155763
     58          1           0       -6.316235   -0.687147   -5.890802
     59          1           0       -4.643360   -0.072216   -5.864981
     60          1           0       -5.294740   -2.575174   -6.530087
     61          1           0       -4.013294   -3.908781   -6.618765
     62          1           0       -3.625112   -2.229684   -6.157380
     63          1           0       -4.538556   -5.826328   -0.085673
     64          1           0       -5.999106   -5.346761    2.464777
     65          1           0       -6.422377   -7.034355   -0.397571
     66          1           0       -7.323344   -5.482670   -0.493832
     67          1           0       -7.199354   -6.284671    0.985490
     68          1           0       -3.963182   -6.823627    2.259368
     69          1           0       -3.933020   -5.704245    3.617278
     70          1           0       -2.501426   -5.734600    1.068493
     71          1           0       -1.827275   -5.416011    2.702725
     72          1           0       -2.734261   -4.141640    1.771025
     73          1           0       -4.610151   -0.748744    6.554425
     74          1           0       -5.064402   -2.361964    5.898494
     75          1           0       -6.351218   -1.104986    6.121369
     76          1           0       -6.482136    3.289901    3.506546
     77          1           0       -4.477410    7.009175    4.382657
     78          1           0       -4.224418    6.855050    2.540927
     79          1           0       -3.149766    6.174502    3.776932
     80         12           0        5.499269   -0.356741   -0.100350
     81          6           0        3.590012    1.861655   -2.177007
     82          6           0        7.706746    2.204464    0.348976
     83          6           0        7.429632   -2.408402    1.359724
     84          6           0        3.804713   -3.002684   -1.608046
     85          7           0        5.534507    1.717863   -0.866540
     86          6           0        4.723822    2.468223   -1.597367
     87          6           0        5.109205    3.971065   -1.647517
     88          6           0        6.674807    3.828912   -1.319559
     89          6           0        6.641727    2.520866   -0.531773
     90          6           0        7.532276    3.619880   -2.556643
     91          6           0        4.367290    4.815241   -0.552552
     92          6           0        4.457176    6.331449   -0.739044
     93          1           0        3.305254    7.148035   -0.366582
     94          7           0        7.028081   -0.033723    1.123165
     95          6           0        7.799973    1.071453    1.186788
     96          6           0        8.798033    0.805354    2.234274
     97          6           0        8.655191   -0.610601    2.669444
     98          6           0        7.691573   -1.088859    1.698471
     99          6           0        9.708349    1.867211    2.779441
    100          6           0        9.291433   -1.406379    3.768594
    101          8           0        9.198541   -2.683872    3.815597
    102          6           0       10.104420   -0.654907    4.735976
    103          7           0        5.757992   -2.412820   -0.267518
    104          6           0        6.628116   -3.066564    0.522047
    105          6           0        6.444177   -4.561641    0.415777
    106          6           0        5.102776   -4.770468   -0.429560
    107          6           0        4.777364   -3.296394   -0.756069
    108          6           0        7.588382   -5.327106   -0.248491
    109          6           0        3.994067   -5.646928    0.214850
    110          6           0        3.422534   -4.947369    1.427007
    111          7           0        3.848118   -0.562620   -1.478516
    112          6           0        3.316302   -1.762622   -1.999309
    113          6           0        2.280306   -1.388560   -2.983808
    114          6           0        2.297441    0.014365   -2.984324
    115          6           0        3.289065    0.481530   -2.079922
    116          6           0        1.511096   -2.294707   -3.766953
    117          6           0        1.709473    1.206243   -3.552144
    118          8           0        0.765227    1.434009   -4.307300
    119          6           0        2.607143    2.454231   -3.148311
    120          6           0        1.694697    3.539962   -2.647163
    121          8           0        1.041242    3.383397   -1.600703
    122          8           0        1.908148    4.659730   -3.361956
    123          6           0        1.034002    5.768539   -2.894803
    124          1           0        8.574683    2.864046    0.371562
    125          1           0        7.993245   -3.159352    1.918195
    126          1           0        3.163540   -3.769058   -2.048784
    127          1           0        4.972954    4.442970   -2.613182
    128          1           0        7.022176    4.644273   -0.690364
    129          1           0        6.932495    3.482850   -3.444125
    130          1           0        8.123104    2.735067   -2.358970
    131          1           0        8.246373    4.441435   -2.663561
    132          1           0        4.899929    4.711385    0.401513
    133          1           0        3.338603    4.520859   -0.476625
    134          1           0        4.813299    6.603211   -1.740178
    135          1           0        5.226483    6.718781   -0.066617
    136          1           0        9.698588    2.766642    2.151477
    137          1           0       10.731755    1.486452    2.692649
    138          1           0        9.505166    2.098977    3.827135
    139          1           0       10.904487   -0.138293    4.211131
    140          1           0       10.401222   -1.381342    5.494977
    141          1           0        9.477557    0.118487    5.193700
    142          1           0        6.315176   -5.005992    1.395070
    143          1           0        5.299869   -5.268953   -1.390026
    144          1           0        8.011865   -6.122620    0.393317
    145          1           0        8.355052   -4.617804   -0.530693
    146          1           0        7.341265   -5.791584   -1.201589
    147          1           0        4.415981   -6.589971    0.570954
    148          1           0        3.186719   -5.892433   -0.466993
    149          1           0        4.134679   -5.202151    2.217590
    150          1           0        2.428125   -5.326119    1.654471
    151          1           0        3.445902   -3.858737    1.300596
    152          1           0        0.491573   -1.933056   -3.749910
    153          1           0        1.580027   -3.310141   -3.382364
    154          1           0        2.008890   -2.187514   -4.734414
    155          1           0        3.159661    2.761624   -4.037028
    156          1           0        0.475030    6.123504   -3.766140
    157          1           0        1.708414    6.492408   -2.399891
    158          1           0        0.228502    5.518969   -2.214110
 ---------------------------------------------------------------------

 SCF Done:  E(RCAM-B3LYP) =  -4069.81184742     A.U. after   19 cycles

 Excitation energies and oscillator strengths:

 Excited State   1:      Singlet-A      1.6575 eV  748.01 nm  f=0.1566  <S**2>=0.000
     309 -> 315        0.12913
     310 -> 316       -0.10890
     311 -> 313        0.52399
     312 -> 314       -0.44449
 This state for optimization and/or second-order correction.
 Total Energy, E(TD-HF/TD-DFT) =  -4069.75093443
 Copying the excited state density for this state as the 1-particle RhoCI density.

 Excited State   2:      Singlet-A      1.6953 eV  731.36 nm  f=0.5966  <S**2>=0.000
     309 -> 315        0.11533
     310 -> 316        0.13636
     311 -> 313        0.44297
     312 -> 314        0.52220

 Excited State   3:      Singlet-A      2.1816 eV  568.31 nm  f=0.0168  <S**2>=0.000
     309 -> 313        0.56595
     310 -> 314        0.30836
     311 -> 315       -0.23689
     312 -> 316       -0.12788

 Excited State   4:      Singlet-A      2.1941 eV  565.08 nm  f=0.1621  <S**2>=0.000
     309 -> 313       -0.30534
     310 -> 314        0.56203
     311 -> 315        0.13344
     312 -> 316       -0.24548

 Excited State   5:      Singlet-A      2.4382 eV  508.50 nm  f=0.0000  <S**2>=0.000
     312 -> 313        0.70648

 The electronic state is 1-A.
 Alpha  occ. eigenvalues --  -46.87565 -46.87311 -19.26351 -19.25889 -19.19109
 Alpha  occ. eigenvalues --  -19.18627 -19.18569 -19.18395 -19.18055 -19.17749
 Alpha  occ. eigenvalues --  -14.42406 -14.41972 -14.41272 -14.41005 -14.39260
 Alpha  occ. eigenvalues --  -14.38919 -14.38512 -14.38116 -10.39042 -10.38635
 Alpha  occ. eigenvalues --  -10.35303 -10.35026 -10.34227 -10.33968 -10.31814
 Alpha  occ. eigenvalues --  -10.31349 -10.31231 -10.30941 -10.30936 -10.30420
 Alpha  occ. eigenvalues --  -10.30315 -10.30282 -10.30102 -10.30068 -10.30045
 Alpha  occ. eigenvalues --  -10.29814 -10.29775 -10.29520 -10.29344 -10.29321
 Alpha  occ. eigenvalues --  -10.29184 -10.28785 -10.28638 -10.28571 -10.28325
 Alpha  occ. eigenvalues --  -10.28272 -10.28150 -10.28066 -10.27928 -10.27886
 Alpha  occ. eigenvalues --  -10.27661 -10.27584 -10.27426 -10.27402 -10.27384
 Alpha  occ. eigenvalues --  -10.27377 -10.27335 -10.27293 -10.27257 -10.27180
 Alpha  occ. eigenvalues --  -10.27138 -10.27117 -10.27020 -10.26944 -10.26917
 Alpha  occ. eigenvalues --  -10.26730 -10.26575 -10.26319 -10.26137 -10.26034
 Alpha  occ. eigenvalues --  -10.25975 -10.25944 -10.25935 -10.25842 -10.25840
 Alpha  occ. eigenvalues --  -10.25782 -10.25587 -10.25476 -10.25328 -10.25158
 Alpha  occ. eigenvalues --  -10.24804 -10.24620 -10.24608 -10.24474 -10.24380
 Alpha  occ. eigenvalues --  -10.24359  -3.16313  -3.16051  -1.91195  -1.90931
 Alpha  occ. eigenvalues --   -1.90784  -1.90621  -1.90520  -1.90362  -1.16636
 Alpha  occ. eigenvalues --   -1.16227  -1.08666  -1.08212  -1.06906  -1.06878
 Alpha  occ. eigenvalues --   -1.06804  -1.06200  -1.04408  -1.04105  -1.03576
 Alpha  occ. eigenvalues --   -1.03313  -1.02953  -1.02772  -1.02027  -1.01955
 Alpha  occ. eigenvalues --   -0.91920  -0.91522  -0.89408  -0.89148  -0.89070
 Alpha  occ. eigenvalues --   -0.88724  -0.88134  -0.87922  -0.87720  -0.87597
 Alpha  occ. eigenvalues --   -0.87441  -0.87210  -0.87033  -0.86790  -0.84917
 Alpha  occ. eigenvalues --   -0.84531  -0.83795  -0.83605  -0.82845  -0.82578
 Alpha  occ. eigenvalues --   -0.82534  -0.82212  -0.81558  -0.81178  -0.80381
 Alpha  occ. eigenvalues --   -0.80163  -0.78554  -0.78329  -0.77063  -0.76838
 Alpha  occ. eigenvalues --   -0.76811  -0.76528  -0.75784  -0.75502  -0.74732
 Alpha  occ. eigenvalues --   -0.74535  -0.72619  -0.72342  -0.71510  -0.71255
 Alpha  occ. eigenvalues --   -0.69665  -0.69592  -0.68750  -0.68433  -0.67529
 Alpha  occ. eigenvalues --   -0.67205  -0.67109  -0.66752  -0.65198  -0.64832
 Alpha  occ. eigenvalues --   -0.64699  -0.64588  -0.64428  -0.64211  -0.64123
 Alpha  occ. eigenvalues --   -0.63881  -0.62242  -0.61896  -0.60255  -0.59996
 Alpha  occ. eigenvalues --   -0.59716  -0.59342  -0.58918  -0.58560  -0.58358
 Alpha  occ. eigenvalues --   -0.58075  -0.57512  -0.57162  -0.57156  -0.56903
 Alpha  occ. eigenvalues --   -0.56131  -0.55870  -0.55849  -0.55568  -0.55387
 Alpha  occ. eigenvalues --   -0.55183  -0.55088  -0.54978  -0.54429  -0.54152
 Alpha  occ. eigenvalues --   -0.53830  -0.53432  -0.53152  -0.53073  -0.52879
 Alpha  occ. eigenvalues --   -0.52829  -0.52769  -0.52583  -0.52494  -0.52309
 Alpha  occ. eigenvalues --   -0.52292  -0.52120  -0.51819  -0.51577  -0.51513
 Alpha  occ. eigenvalues --   -0.51148  -0.51147  -0.50787  -0.50385  -0.50088
 Alpha  occ. eigenvalues --   -0.49897  -0.49787  -0.49666  -0.49464  -0.49407
 Alpha  occ. eigenvalues --   -0.49136  -0.49075  -0.49054  -0.48775  -0.48675
 Alpha  occ. eigenvalues --   -0.48504  -0.48321  -0.48262  -0.48192  -0.48083
 Alpha  occ. eigenvalues --   -0.48010  -0.47525  -0.47270  -0.47042  -0.46865
 Alpha  occ. eigenvalues --   -0.46629  -0.46474  -0.46389  -0.46194  -0.46109
 Alpha  occ. eigenvalues --   -0.46015  -0.45927  -0.45773  -0.45763  -0.45427
 Alpha  occ. eigenvalues --   -0.45132  -0.44843  -0.44460  -0.44398  -0.44173
 Alpha  occ. eigenvalues --   -0.44086  -0.44074  -0.44001  -0.43871  -0.43751
 Alpha  occ. eigenvalues --   -0.43670  -0.43584  -0.43517  -0.43313  -0.43093
 Alpha  occ. eigenvalues --   -0.42958  -0.42897  -0.42844  -0.42615  -0.42466
 Alpha  occ. eigenvalues --   -0.42333  -0.42285  -0.41880  -0.41635  -0.41618
 Alpha  occ. eigenvalues --   -0.41376  -0.41282  -0.41105  -0.40920  -0.40725
 Alpha  occ. eigenvalues --   -0.40635  -0.40610  -0.40468  -0.40411  -0.40386
 Alpha  occ. eigenvalues --   -0.40200  -0.40131  -0.39737  -0.39329  -0.39140
 Alpha  occ. eigenvalues --   -0.38263  -0.38104  -0.37567  -0.37300  -0.37180
 Alpha  occ. eigenvalues --   -0.37115  -0.36925  -0.36796  -0.36732  -0.36308
 Alpha  occ. eigenvalues --   -0.36142  -0.35782  -0.34169  -0.33831  -0.33800
 Alpha  occ. eigenvalues --   -0.33314  -0.33091  -0.32732  -0.31186  -0.30928
 Alpha  occ. eigenvalues --   -0.30890  -0.30589  -0.29961  -0.29611  -0.29247
 Alpha  occ. eigenvalues --   -0.29140  -0.28979  -0.28862  -0.23949  -0.23618
 Alpha  occ. eigenvalues --   -0.21033  -0.20671
 Alpha virt. eigenvalues --   -0.08712  -0.08312  -0.01594  -0.01301   0.00050
 Alpha virt. eigenvalues --    0.00403   0.02256   0.02625   0.03387   0.03790
 Alpha virt. eigenvalues --    0.04814   0.05155   0.05204   0.05539   0.06251

 Mulliken charges:
               1
     1  Mg   0.843209
     2  C   -0.001152
     3  C   -0.091163
     4  C   -0.047207
     5  C   -0.064850
     6  N   -0.256647
     7  C   -0.051210
     8  C   -0.015077
     9  C   -0.087727
    10  C    0.048073
    11  C    0.105053
    12  C    0.053268
    13  C   -0.070508
    14  H    0.032165
    15  N   -0.433054
    16  C    0.171117
    17  C   -0.174019
    18  C   -0.003882
    19  C    0.148937
    20  C    0.110029
    21  C    0.011724
    22  O   -0.251899
    23  C    0.061263
    24  N   -0.341157
    25  C    0.041481
    26  C   -0.027886
    27  C   -0.023599
    28  C    0.074530
    29  C    0.076562
    30  C    0.035556
    31  C   -0.004754
    32  N   -0.310248
    33  C    0.080302
    34  C   -0.170544
    35  C    0.007727
    36  C    0.083513
    37  C    0.127462
    38  C    0.046006
    39  O   -0.190101
    40  C   -0.005693
    41  C    0.211989
    42  O   -0.254561
    43  O   -0.305341
    44  C    0.158397
    45  H   -0.018258
    46  H   -0.018315
    47  H   -0.042917
    48  H   -0.000510
    49  H   -0.003759
    50  H    0.024808
    51  H    0.016020
    52  H    0.015672
    53  H    0.016550
    54  H    0.047334
    55  H    0.016472
    56  H    0.017038
    57  H    0.005663
    58  H    0.024836
    59  H    0.045080
    60  H    0.036783
    61  H    0.033706
    62  H    0.036126
    63  H    0.015010
    64  H    0.008721
    65  H    0.022070
    66  H    0.012631
    67  H    0.004107
    68  H    0.004942
    69  H    0.004455
    70  H    0.006704
    71  H    0.016740
    72  H    0.031298
    73  H    0.046796
    74  H    0.008213
    75  H    0.045013
    76  H    0.034073
    77  H    0.041413
    78  H    0.045817
    79  H    0.053625
    80  Mg   0.839620
    81  C   -0.016115
    82  C   -0.087708
    83  C   -0.045397
    84  C   -0.064846
    85  N   -0.254638
    86  C   -0.049428
    87  C   -0.015484
    88  C   -0.090592
    89  C    0.046236
    90  C    0.114484
    91  C    0.062343
    92  C   -0.077754
    93  H    0.034758
    94  N   -0.423441
    95  C    0.163477
    96  C   -0.174510
    97  C   -0.007584
    98  C    0.152371
    99  C    0.099412
   100  C    0.015859
   101  O   -0.253213
   102  C    0.061031
   103  N   -0.350084
   104  C    0.037614
   105  C   -0.019828
   106  C   -0.034819
   107  C    0.088866
   108  C    0.073729
   109  C    0.034605
   110  C   -0.007887
   111  N   -0.324045
   112  C    0.078463
   113  C   -0.162800
   114  C    0.001038
   115  C    0.097040
   116  C    0.130807
   117  C    0.042745
   118  O   -0.191464
   119  C    0.000920
   120  C    0.209551
   121  O   -0.248123
   122  O   -0.306076
   123  C    0.152344
   124  H   -0.019861
   125  H   -0.015622
   126  H   -0.039981
   127  H   -0.001434
   128  H   -0.004226
   129  H    0.022005
   130  H    0.014359
   131  H    0.016014
   132  H    0.014886
   133  H    0.039275
   134  H    0.019860
   135  H    0.019697
   136  H    0.008708
   137  H    0.025921
   138  H    0.040301
   139  H    0.038028
   140  H    0.036383
   141  H    0.034455
   142  H    0.014462
   143  H    0.012331
   144  H    0.025004
   145  H    0.011452
   146  H    0.005557
   147  H    0.005821
   148  H    0.004269
   149  H    0.010691
   150  H    0.017917
   151  H    0.030872
   152  H    0.045381
   153  H    0.010730
   154  H    0.045748
   155  H    0.034154
   156  H    0.041460
   157  H    0.049994
   158  H    0.053875
 Sum of Mulliken charges =  -0.00000

 Dipole moment (field-independent basis, Debye):
    X=              2.0247    Y=              2.9835    Z=             -3.5844  Tot=              5.0842
 Quadrupole moment (field-independent basis, Debye-Ang):
   XX=           -465.9661   YY=           -465.2794   ZZ=           -531.6335
   XY=             22.4903   XZ=             13.7343   YZ=            -21.5565

 Normal termination of Gaussian 16 at Fri Sep 10 16:09:35 2021.
