 Gaussian 16, Revision A.03,
 Gaussian 16:  ES64L-G16RevA.03 25-Dec-2016

 -----------------------------------
 #p cam-b3lyp/Def2SVP td=(nstates=5)
 -----------------------------------

 --------------------------------
 TDDFT excited states in gaussian
 --------------------------------
 Symbolic Z-matrix:
 Charge =  0 Multiplicity = 1

                         Standard orientation:
 ---------------------------------------------------------------------
 Center     Atomic      Atomic             Coordinates (Angstroms)
 Number     Number       Type             X           Y           Z
 ---------------------------------------------------------------------
      1         12           0       -3.380719   -1.845582    0.497498
      2          6           0       -4.625622    1.509432    0.576960
      3          6           0       -4.587530   -2.059743   -2.686966
      4          6           0       -2.698852   -4.941925    0.563355
      5          6           0       -3.302936   -1.742332    3.980162
      6          7           0       -4.450378   -0.391350   -0.783784
      7          6           0       -4.813676    0.881000   -0.656066
      8          6           0       -5.344569    1.507798   -1.979943
      9          6           0       -5.805742    0.174432   -2.722542
     10          6           0       -4.868631   -0.814024   -2.051199
     11          6           0       -7.244913   -0.227120   -2.415876
     12          6           0       -4.220713    2.249281   -2.779243
     13          6           0       -4.713658    3.159938   -3.907544
     14          1           0       -3.994107    4.396161   -4.174653
     15          7           0       -3.162848   -3.141146   -0.977933
     16          6           0       -3.712876   -3.061541   -2.213416
     17          6           0       -3.252805   -4.262943   -2.942559
     18          6           0       -2.545859   -5.142287   -1.970409
     19          6           0       -2.800315   -4.446936   -0.734643
     20          6           0       -3.453789   -4.459746   -4.413825
     21          6           0       -1.773794   -6.413926   -2.128465
     22          8           0       -1.439939   -7.135835   -1.127485
     23          6           0       -1.491458   -6.843644   -3.510012
     24          7           0       -3.254486   -3.239207    2.046533
     25          6           0       -2.883256   -4.502212    1.809907
     26          6           0       -2.590720   -5.233610    3.086394
     27          6           0       -2.605086   -4.130752    4.241060
     28          6           0       -3.006730   -2.901815    3.388614
     29          6           0       -3.564042   -6.363987    3.448201
     30          6           0       -1.341776   -4.029181    5.132211
     31          6           0       -0.174659   -3.526067    4.312568
     32          7           0       -3.699669   -0.339507    2.027548
     33          6           0       -3.637535   -0.522383    3.416566
     34          6           0       -4.032509    0.754811    4.038531
     35          6           0       -4.314791    1.592405    2.961221
     36          6           0       -4.134491    0.875475    1.743930
     37          6           0       -4.149549    1.000619    5.435068
     38          6           0       -4.750552    2.918911    2.555818
     39          8           0       -4.962494    3.979789    3.144978
     40          6           0       -5.086759    2.882082    0.999721
     41          6           0       -4.424230    4.073420    0.363263
     42          8           0       -3.180560    4.158253    0.304493
     43          8           0       -5.347050    4.803392   -0.281784
     44          6           0       -4.751081    5.985067   -0.960473
     45          1           0       -5.128189   -2.320807   -3.598818
     46          1           0       -2.357662   -5.977044    0.630854
     47          1           0       -3.220741   -1.609840    5.060506
     48          1           0       -6.195206    2.178278   -1.856256
     49          1           0       -5.608540    0.216112   -3.793568
     50          1           0       -7.675575    0.399462   -1.634950
     51          1           0       -7.193550   -1.264971   -2.086148
     52          1           0       -7.847971   -0.230805   -3.324218
     53          1           0       -3.654476    1.522365   -3.361507
     54          1           0       -3.582611    2.822660   -2.105902
     55          1           0       -5.784135    3.350880   -3.826738
     56          1           0       -4.604406    2.624713   -4.850835
     57          1           0       -4.148127   -3.727840   -4.824623
     58          1           0       -3.960652   -5.416130   -4.540821
     59          1           0       -2.510060   -4.468550   -4.959378
     60          1           0       -2.432082   -6.976377   -4.044948
     61          1           0       -0.854704   -7.723703   -3.427000
     62          1           0       -0.955622   -6.045992   -4.025357
     63          1           0       -1.608033   -5.702206    3.052215
     64          1           0       -3.418099   -4.290962    4.949591
     65          1           0       -3.080184   -7.331378    3.585095
     66          1           0       -4.325973   -6.414336    2.670886
     67          1           0       -4.170473   -6.178831    4.334416
     68          1           0       -1.066306   -5.012090    5.512937
     69          1           0       -1.470867   -3.366309    5.987891
     70          1           0        0.198151   -4.432878    3.837659
     71          1           0        0.583260   -3.084898    4.960749
     72          1           0       -0.505080   -2.855068    3.519430
     73          1           0       -3.697253    1.976372    5.611998
     74          1           0       -3.654661    0.223262    6.016793
     75          1           0       -5.232933    0.984430    5.552850
     76          1           0       -6.172075    2.922075    0.912482
     77          1           0       -5.278669    6.865696   -0.593898
     78          1           0       -4.790645    5.780474   -2.030511
     79          1           0       -3.724575    6.231338   -0.686656
     80         12           0        4.161931    0.497482   -0.344379
     81          6           0        2.341247    3.580992   -0.107463
     82          6           0        2.501283   -0.085376   -3.266213
     83          6           0        5.408285   -2.420383   -0.355192
     84          6           0        4.797398    0.771296    3.071304
     85          7           0        2.642182    1.671219   -1.442087
     86          6           0        2.072331    2.856859   -1.287603
     87          6           0        1.225837    3.326630   -2.500994
     88          6           0        0.896980    1.888709   -3.135907
     89          6           0        2.103790    1.110207   -2.616069
     90          6           0       -0.361584    1.253780   -2.568279
     91          6           0        2.049512    4.218624   -3.494936
     92          6           0        1.211232    4.964377   -4.535557
     93          1           0        1.638940    6.298465   -4.947569
     94          7           0        4.365939   -0.806404   -1.826545
     95          6           0        3.620305   -0.886138   -2.948582
     96          6           0        4.157659   -2.025337   -3.708619
     97          6           0        5.174125   -2.713154   -2.866943
     98          6           0        5.003520   -2.003576   -1.614949
     99          6           0        3.758662   -2.318916   -5.125665
    100          6           0        6.131258   -3.833770   -3.139543
    101          8           0        6.756482   -4.430537   -2.193079
    102          6           0        6.244403   -4.273789   -4.537786
    103          7           0        4.803534   -0.767305    1.175814
    104          6           0        5.354171   -1.961486    0.895332
    105          6           0        5.988052   -2.571661    2.122632
    106          6           0        5.959803   -1.424249    3.236287
    107          6           0        5.200592   -0.330504    2.453533
    108          6           0        5.307860   -3.827022    2.668330
    109          6           0        7.314714   -1.053213    3.899014
    110          6           0        8.223389   -0.397874    2.884010
    111          7           0        3.834723    1.989267    1.183882
    112          6           0        4.154805    1.889568    2.555625
    113          6           0        3.637349    3.107135    3.213042
    114          6           0        3.027049    3.825671    2.173939
    115          6           0        3.137424    3.097222    0.958751
    116          6           0        3.719984    3.400895    4.603365
    117          6           0        2.305226    5.029790    1.830766
    118          8           0        1.996085    6.058225    2.431179
    119          6           0        1.718321    4.866100    0.362720
    120          6           0        2.033651    6.119937   -0.406042
    121          8           0        3.211563    6.422612   -0.665892
    122          8           0        0.891016    6.637483   -0.892760
    123          6           0        1.153229    7.876563   -1.672340
    124          1           0        1.874180   -0.471983   -4.070064
    125          1           0        5.943329   -3.372302   -0.322831
    126          1           0        5.040887    0.977290    4.115791
    127          1           0        0.306359    3.838087   -2.242659
    128          1           0        0.905872    1.925179   -4.222163
    129          1           0       -0.763590    1.823547   -1.743717
    130          1           0       -0.069391    0.265440   -2.238378
    131          1           0       -1.097872    1.100969   -3.362545
    132          1           0        2.636336    3.568929   -4.156956
    133          1           0        2.665626    4.915374   -2.960538
    134          1           0        0.144094    4.964062   -4.282296
    135          1           0        1.262766    4.416819   -5.479775
    136          1           0        2.873298   -1.742892   -5.421841
    137          1           0        3.426128   -3.362200   -5.154630
    138          1           0        4.583022   -2.191049   -5.830474
    139          1           0        5.268515   -4.592714   -4.896104
    140          1           0        7.040762   -5.020533   -4.545622
    141          1           0        6.540088   -3.415737   -5.151739
    142          1           0        7.017175   -2.848480    1.929304
    143          1           0        5.322443   -1.699941    4.089290
    144          1           0        5.987213   -4.697751    2.734590
    145          1           0        4.457477   -4.055177    2.039590
    146          1           0        4.846972   -3.713702    3.648100
    147          1           0        7.829258   -1.955100    4.239613
    148          1           0        7.210573   -0.398198    4.757562
    149          1           0        8.669264   -1.251379    2.364571
    150          1           0        8.982842    0.202409    3.380931
    151          1           0        7.644672    0.170917    2.146993
    152          1           0        4.003241    4.441834    4.685341
    153          1           0        4.435589    2.752665    5.104841
    154          1           0        2.691458    3.190589    4.908616
    155          1           0        0.644056    4.702206    0.455778
    156          1           0        0.535753    8.666590   -1.233839
    157          1           0        0.957524    7.612054   -2.728500
    158          1           0        2.141477    8.315220   -1.598876
 ---------------------------------------------------------------------

 SCF Done:  E(RCAM-B3LYP) =  -4069.81202919     A.U. after   19 cycles

 Excitation energies and oscillator strengths:

 Excited State   1:      Singlet-A      1.6366 eV  757.58 nm  f=0.0006  <S**2>=0.000
     309 -> 315        0.11503
     310 -> 316       -0.11675
     311 -> 313        0.47981
     312 -> 314        0.49358
 This state for optimization and/or second-order correction.
 Total Energy, E(TD-HF/TD-DFT) =  -4069.75188589
 Copying the excited state density for this state as the 1-particle RhoCI density.

 Excited State   2:      Singlet-A      1.7119 eV  724.24 nm  f=0.6759  <S**2>=0.000
     309 -> 315        0.13240
     310 -> 316        0.12700
     311 -> 313        0.49007
     312 -> 314       -0.47645

 Excited State   3:      Singlet-A      2.1766 eV  569.63 nm  f=0.0177  <S**2>=0.000
     309 -> 313        0.32370
     310 -> 314        0.55954
     311 -> 315       -0.13175
     312 -> 316        0.22987

 Excited State   4:      Singlet-A      2.1924 eV  565.51 nm  f=0.0001  <S**2>=0.000
     312 -> 313        0.70636

 Excited State   5:      Singlet-A      2.1978 eV  564.12 nm  f=0.1528  <S**2>=0.000
     309 -> 313        0.55260
     310 -> 314       -0.31757
     311 -> 315       -0.24533
     312 -> 316       -0.14287

 The electronic state is 1-A.
 Alpha  occ. eigenvalues --  -46.87996 -46.87344 -19.26505 -19.25883 -19.19312
 Alpha  occ. eigenvalues --  -19.18977 -19.18713 -19.18452 -19.18304 -19.17569
 Alpha  occ. eigenvalues --  -14.42670 -14.42181 -14.41641 -14.41043 -14.39600
 Alpha  occ. eigenvalues --  -14.39039 -14.38777 -14.38262 -10.39346 -10.38618
 Alpha  occ. eigenvalues --  -10.35613 -10.35138 -10.34532 -10.33725 -10.31845
 Alpha  occ. eigenvalues --  -10.31629 -10.31433 -10.31159 -10.30959 -10.30769
 Alpha  occ. eigenvalues --  -10.30682 -10.30679 -10.30395 -10.30085 -10.30063
 Alpha  occ. eigenvalues --  -10.30015 -10.29881 -10.29813 -10.29569 -10.29448
 Alpha  occ. eigenvalues --  -10.29154 -10.29078 -10.29067 -10.28997 -10.28569
 Alpha  occ. eigenvalues --  -10.28474 -10.28399 -10.28307 -10.28046 -10.27971
 Alpha  occ. eigenvalues --  -10.27945 -10.27804 -10.27775 -10.27740 -10.27666
 Alpha  occ. eigenvalues --  -10.27649 -10.27619 -10.27586 -10.27378 -10.27354
 Alpha  occ. eigenvalues --  -10.27316 -10.27297 -10.27170 -10.27154 -10.27130
 Alpha  occ. eigenvalues --  -10.27116 -10.26605 -10.26466 -10.26412 -10.26398
 Alpha  occ. eigenvalues --  -10.26320 -10.26235 -10.26204 -10.25950 -10.25944
 Alpha  occ. eigenvalues --  -10.25641 -10.25618 -10.25555 -10.25529 -10.25170
 Alpha  occ. eigenvalues --  -10.25007 -10.24968 -10.24819 -10.24543 -10.24513
 Alpha  occ. eigenvalues --  -10.24362  -3.16738  -3.16095  -1.91619  -1.91206
 Alpha  occ. eigenvalues --   -1.91048  -1.90977  -1.90566  -1.90402  -1.16859
 Alpha  occ. eigenvalues --   -1.16183  -1.08760  -1.08154  -1.07373  -1.06897
 Alpha  occ. eigenvalues --   -1.06708  -1.06496  -1.04803  -1.04161  -1.03955
 Alpha  occ. eigenvalues --   -1.03423  -1.03341  -1.02723  -1.02602  -1.01784
 Alpha  occ. eigenvalues --   -0.92172  -0.91575  -0.89690  -0.89483  -0.89201
 Alpha  occ. eigenvalues --   -0.88810  -0.88452  -0.88034  -0.87949  -0.87903
 Alpha  occ. eigenvalues --   -0.87477  -0.87461  -0.87378  -0.86864  -0.85260
 Alpha  occ. eigenvalues --   -0.84689  -0.84092  -0.83606  -0.83154  -0.82888
 Alpha  occ. eigenvalues --   -0.82700  -0.82341  -0.81783  -0.81231  -0.80801
 Alpha  occ. eigenvalues --   -0.80107  -0.78994  -0.78350  -0.77442  -0.77162
 Alpha  occ. eigenvalues --   -0.76856  -0.76576  -0.76140  -0.75487  -0.75063
 Alpha  occ. eigenvalues --   -0.74513  -0.72961  -0.72382  -0.71870  -0.71250
 Alpha  occ. eigenvalues --   -0.70060  -0.69519  -0.69128  -0.68524  -0.67838
 Alpha  occ. eigenvalues --   -0.67518  -0.67280  -0.66928  -0.65555  -0.65051
 Alpha  occ. eigenvalues --   -0.64921  -0.64831  -0.64447  -0.64441  -0.64315
 Alpha  occ. eigenvalues --   -0.63917  -0.62489  -0.61898  -0.60631  -0.60066
 Alpha  occ. eigenvalues --   -0.60061  -0.59452  -0.59181  -0.58696  -0.58660
 Alpha  occ. eigenvalues --   -0.58075  -0.57779  -0.57489  -0.57101  -0.56882
 Alpha  occ. eigenvalues --   -0.56501  -0.56205  -0.55894  -0.55718  -0.55518
 Alpha  occ. eigenvalues --   -0.55505  -0.55147  -0.54929  -0.54709  -0.54199
 Alpha  occ. eigenvalues --   -0.54150  -0.53613  -0.53489  -0.53444  -0.53136
 Alpha  occ. eigenvalues --   -0.52992  -0.52937  -0.52823  -0.52590  -0.52570
 Alpha  occ. eigenvalues --   -0.52412  -0.52158  -0.52058  -0.51890  -0.51548
 Alpha  occ. eigenvalues --   -0.51386  -0.51355  -0.50851  -0.50791  -0.50268
 Alpha  occ. eigenvalues --   -0.50223  -0.50121  -0.49766  -0.49696  -0.49598
 Alpha  occ. eigenvalues --   -0.49425  -0.49326  -0.49191  -0.48850  -0.48794
 Alpha  occ. eigenvalues --   -0.48741  -0.48632  -0.48609  -0.48220  -0.48109
 Alpha  occ. eigenvalues --   -0.48023  -0.47907  -0.47493  -0.47297  -0.47002
 Alpha  occ. eigenvalues --   -0.46859  -0.46821  -0.46544  -0.46413  -0.46337
 Alpha  occ. eigenvalues --   -0.46263  -0.46003  -0.45986  -0.45756  -0.45458
 Alpha  occ. eigenvalues --   -0.45365  -0.44920  -0.44773  -0.44724  -0.44339
 Alpha  occ. eigenvalues --   -0.44322  -0.44206  -0.44189  -0.44164  -0.43812
 Alpha  occ. eigenvalues --   -0.43803  -0.43679  -0.43611  -0.43599  -0.43219
 Alpha  occ. eigenvalues --   -0.43210  -0.43066  -0.42892  -0.42822  -0.42599
 Alpha  occ. eigenvalues --   -0.42488  -0.42292  -0.42210  -0.41899  -0.41792
 Alpha  occ. eigenvalues --   -0.41679  -0.41344  -0.41287  -0.41162  -0.41119
 Alpha  occ. eigenvalues --   -0.41064  -0.40786  -0.40736  -0.40496  -0.40435
 Alpha  occ. eigenvalues --   -0.40401  -0.40141  -0.39935  -0.39594  -0.39196
 Alpha  occ. eigenvalues --   -0.38662  -0.38089  -0.38078  -0.37524  -0.37506
 Alpha  occ. eigenvalues --   -0.37376  -0.36977  -0.36933  -0.36877  -0.36403
 Alpha  occ. eigenvalues --   -0.36384  -0.35889  -0.34483  -0.34023  -0.33924
 Alpha  occ. eigenvalues --   -0.33431  -0.33385  -0.32848  -0.31508  -0.31238
 Alpha  occ. eigenvalues --   -0.31010  -0.30629  -0.30166  -0.29636  -0.29492
 Alpha  occ. eigenvalues --   -0.29457  -0.29024  -0.28852  -0.24284  -0.23692
 Alpha  occ. eigenvalues --   -0.21325  -0.20800
 Alpha virt. eigenvalues --   -0.08966  -0.08463  -0.01944  -0.01373  -0.00254
 Alpha virt. eigenvalues --    0.00276   0.02033   0.02407   0.02672   0.03615
 Alpha virt. eigenvalues --    0.04401   0.04782   0.04996   0.05580   0.05669

 Mulliken charges:
               1
     1  Mg   0.835998
     2  C   -0.005102
     3  C   -0.095719
     4  C   -0.044718
     5  C   -0.063280
     6  N   -0.256507
     7  C   -0.054532
     8  C   -0.011245
     9  C   -0.087822
    10  C    0.045813
    11  C    0.104942
    12  C    0.041541
    13  C   -0.070043
    14  H    0.034666
    15  N   -0.433486
    16  C    0.167780
    17  C   -0.178540
    18  C   -0.003892
    19  C    0.149170
    20  C    0.110414
    21  C    0.013118
    22  O   -0.248283
    23  C    0.062734
    24  N   -0.340716
    25  C    0.040987
    26  C   -0.028355
    27  C   -0.024118
    28  C    0.075157
    29  C    0.075976
    30  C    0.034977
    31  C   -0.004884
    32  N   -0.310957
    33  C    0.081091
    34  C   -0.168809
    35  C    0.009432
    36  C    0.083138
    37  C    0.126899
    38  C    0.047051
    39  O   -0.185760
    40  C   -0.005742
    41  C    0.214646
    42  O   -0.259095
    43  O   -0.304564
    44  C    0.155433
    45  H   -0.018146
    46  H   -0.016141
    47  H   -0.040828
    48  H    0.001633
    49  H   -0.005241
    50  H    0.026036
    51  H    0.017303
    52  H    0.016745
    53  H    0.014913
    54  H    0.046048
    55  H    0.019535
    56  H    0.016432
    57  H    0.005256
    58  H    0.027569
    59  H    0.037093
    60  H    0.037329
    61  H    0.036750
    62  H    0.029289
    63  H    0.017240
    64  H    0.009874
    65  H    0.023728
    66  H    0.012575
    67  H    0.005014
    68  H    0.006626
    69  H    0.004834
    70  H    0.009383
    71  H    0.017212
    72  H    0.030074
    73  H    0.049462
    74  H    0.009245
    75  H    0.046409
    76  H    0.035721
    77  H    0.044538
    78  H    0.044870
    79  H    0.057165
    80  Mg   0.836327
    81  C   -0.015851
    82  C   -0.087939
    83  C   -0.045384
    84  C   -0.066249
    85  N   -0.254560
    86  C   -0.048257
    87  C   -0.015569
    88  C   -0.093642
    89  C    0.044628
    90  C    0.102513
    91  C    0.062907
    92  C   -0.076574
    93  H    0.033201
    94  N   -0.423416
    95  C    0.162653
    96  C   -0.175755
    97  C   -0.008133
    98  C    0.151724
    99  C    0.100223
   100  C    0.015263
   101  O   -0.253613
   102  C    0.061516
   103  N   -0.350288
   104  C    0.037101
   105  C   -0.019508
   106  C   -0.034649
   107  C    0.089570
   108  C    0.073645
   109  C    0.034922
   110  C   -0.007537
   111  N   -0.324659
   112  C    0.079428
   113  C   -0.163468
   114  C    0.004361
   115  C    0.095062
   116  C    0.131168
   117  C    0.045022
   118  O   -0.185880
   119  C   -0.002105
   120  C    0.209035
   121  O   -0.253240
   122  O   -0.302015
   123  C    0.152566
   124  H   -0.022217
   125  H   -0.016167
   126  H   -0.041430
   127  H    0.008056
   128  H   -0.007443
   129  H    0.041627
   130  H    0.014093
   131  H    0.014223
   132  H    0.012707
   133  H    0.037640
   134  H    0.019730
   135  H    0.017791
   136  H    0.006600
   137  H    0.023372
   138  H    0.038829
   139  H    0.037140
   140  H    0.035731
   141  H    0.033289
   142  H    0.013827
   143  H    0.011097
   144  H    0.024542
   145  H    0.013076
   146  H    0.004039
   147  H    0.005553
   148  H    0.003167
   149  H    0.010727
   150  H    0.017395
   151  H    0.030601
   152  H    0.045889
   153  H    0.007121
   154  H    0.048411
   155  H    0.053644
   156  H    0.042566
   157  H    0.047308
   158  H    0.052583
 Sum of Mulliken charges =  -0.00000

 Dipole moment (field-independent basis, Debye):
    X=             -4.4142    Y=             -4.0024    Z=             -5.9748  Tot=              8.4382
 Quadrupole moment (field-independent basis, Debye-Ang):
   XX=           -513.2162   YY=           -557.8781   ZZ=           -450.2266
   XY=              3.2492   XZ=             30.1001   YZ=            -33.4080

 Normal termination of Gaussian 16 at Thu Sep  9 06:52:18 2021.
