 Gaussian 16, Revision A.03,
 Gaussian 16:  ES64L-G16RevA.03 25-Dec-2016

 -----------------------------------
 #p cam-b3lyp/Def2SVP td=(nstates=5)
 -----------------------------------

 --------------------------------
 TDDFT excited states in gaussian
 --------------------------------
 Symbolic Z-matrix:
 Charge =  0 Multiplicity = 1

                         Standard orientation:
 ---------------------------------------------------------------------
 Center     Atomic      Atomic             Coordinates (Angstroms)
 Number     Number       Type             X           Y           Z
 ---------------------------------------------------------------------
      1         12           0       16.023941   -0.647744    0.496269
      2          6           0       16.285468    2.268732   -1.562368
      3          6           0       16.820304    1.338740    3.153853
      4          6           0       16.245101   -3.276633    2.256001
      5          6           0       16.371565   -2.546584   -2.405321
      6          7           0       16.471632    1.514834    0.649484
      7          6           0       16.479866    2.533277   -0.204844
      8          6           0       16.639522    3.919593    0.487984
      9          6           0       17.353446    3.447941    1.833293
     10          6           0       16.823419    2.026682    1.904149
     11          6           0       18.874586    3.400382    1.731445
     12          6           0       15.260184    4.600760    0.779825
     13          6           0       15.330027    6.084609    1.152206
     14          1           0       14.266644    6.970258    0.702549
     15          7           0       15.986290   -0.883695    2.457330
     16          6           0       16.327855    0.037065    3.390506
     17          6           0       16.129998   -0.618285    4.701250
     18          6           0       15.827571   -2.054890    4.450659
     19          6           0       16.036069   -2.135941    3.027515
     20          6           0       16.185783    0.116539    6.005349
     21          6           0       15.426169   -3.179039    5.352489
     22          8           0       15.438754   -4.397974    4.966985
     23          6           0       15.098366   -2.819848    6.744096
     24          7           0       16.491925   -2.629379    0.036105
     25          6           0       16.459457   -3.581879    0.974548
     26          6           0       16.549637   -4.950317    0.366943
     27          6           0       16.405743   -4.744199   -1.209941
     28          6           0       16.335796   -3.197443   -1.240345
     29          6           0       17.837342   -5.731013    0.664167
     30          6           0       15.290360   -5.547169   -1.925188
     31          6           0       13.933549   -5.051335   -1.477626
     32          7           0       16.106280   -0.249733   -1.635831
     33          6           0       16.277663   -1.189118   -2.662894
     34          6           0       16.378614   -0.434829   -3.925797
     35          6           0       16.274882    0.900554   -3.541301
     36          6           0       16.145355    0.976969   -2.125082
     37          6           0       16.602210   -0.994021   -5.214883
     38          6           0       16.268068    2.281851   -3.994988
     39          8           0       16.250767    2.832645   -5.096723
     40          6           0       16.397066    3.228364   -2.720900
     41          6           0       15.352679    4.303947   -2.846136
     42          8           0       14.137799    4.027228   -2.776413
     43          8           0       15.944433    5.506928   -2.789500
     44          6           0       14.960622    6.618845   -2.878440
     45          1           0       17.289604    1.812463    4.018309
     46          1           0       16.217141   -4.215164    2.813509
     47          1           0       16.396179   -3.075704   -3.359721
     48          1           0       17.278544    4.623434   -0.045573
     49          1           0       17.015652    4.021794    2.696027
     50          1           0       19.211105    3.574796    0.709557
     51          1           0       19.157143    2.399958    2.059783
     52          1           0       19.332107    4.089310    2.441959
     53          1           0       14.848243    4.196616    1.704505
     54          1           0       14.580391    4.472227   -0.063197
     55          1           0       16.306179    6.509256    0.916172
     56          1           0       15.252994    6.168680    2.236272
     57          1           0       16.589832    1.120607    5.882314
     58          1           0       16.917901   -0.396365    6.628759
     59          1           0       15.219478    0.131367    6.509698
     60          1           0       15.961368   -2.338172    7.204273
     61          1           0       14.747959   -3.736728    7.216744
     62          1           0       14.299773   -2.077443    6.738381
     63          1           0       15.740332   -5.588642    0.719069
     64          1           0       17.315744   -5.020191   -1.743232
     65          1           0       17.663723   -6.699331    1.134191
     66          1           0       18.476001   -5.103683    1.285345
     67          1           0       18.477600   -5.902887   -0.200671
     68          1           0       15.350928   -6.601468   -1.657363
     69          1           0       15.339425   -5.477703   -3.011935
     70          1           0       13.769645   -5.596044   -0.548508
     71          1           0       13.173254   -5.303773   -2.217516
     72          1           0       13.958741   -3.989341   -1.232637
     73          1           0       15.923094   -0.477763   -5.893298
     74          1           0       16.422741   -2.068911   -5.216788
     75          1           0       17.653066   -0.745867   -5.363132
     76          1           0       17.407613    3.635484   -2.733876
     77          1           0       15.265113    7.250869   -3.712745
     78          1           0       14.916830    7.073756   -1.888722
     79          1           0       13.950518    6.345344   -3.185405
     80         12           0      -15.705765   -0.658815   -0.432038
     81          6           0      -17.850906    1.706530    1.205817
     82          6           0      -14.346899    1.971877   -2.125415
     83          6           0      -14.120946   -2.752337   -2.213318
     84          6           0      -17.960277   -3.144545    0.508190
     85          7           0      -16.128044    1.511704   -0.379370
     86          6           0      -16.922351    2.302059    0.326860
     87          6           0      -16.654547    3.819158    0.136537
     88          6           0      -15.966906    3.761898   -1.313559
     89          6           0      -15.411890    2.339840   -1.264896
     90          6           0      -16.964786    3.846306   -2.456560
     91          6           0      -15.671096    4.392603    1.216363
     92          6           0      -15.606247    5.920159    1.280551
     93          1           0      -15.421367    6.554860    2.582646
     94          7           0      -14.102931   -0.417546   -1.577141
     95          6           0      -13.686718    0.724083   -2.164289
     96          6           0      -12.471762    0.370769   -2.914751
     97          6           0      -12.297462   -1.106047   -2.856796
     98          6           0      -13.538849   -1.493089   -2.217073
     99          6           0      -11.566280    1.399074   -3.528022
    100          6           0      -11.201334   -2.019977   -3.314445
    101          8           0      -11.365670   -3.289542   -3.377806
    102          6           0       -9.961584   -1.377635   -3.774799
    103          7           0      -16.099686   -2.624059   -0.984300
    104          6           0      -15.220134   -3.324506   -1.721657
    105          6           0      -15.585708   -4.789143   -1.761110
    106          6           0      -16.762894   -4.967041   -0.693327
    107          6           0      -16.942790   -3.493475   -0.267135
    108          6           0      -16.044261   -5.324023   -3.117580
    109          6           0      -16.553315   -6.036324    0.413642
    110          6           0      -15.435852   -5.609877    1.338196
    111          7           0      -17.470359   -0.769336    0.809759
    112          6           0      -18.277257   -1.903827    1.046263
    113          6           0      -19.425791   -1.458827    1.861905
    114          6           0      -19.217821   -0.080944    2.025253
    115          6           0      -18.034685    0.309189    1.341532
    116          6           0      -20.500746   -2.280810    2.303404
    117          6           0      -19.735816    1.134156    2.611706
    118          8           0      -20.663105    1.404196    3.373902
    119          6           0      -18.941642    2.368333    2.001388
    120          6           0      -18.534142    3.266078    3.137390
    121          8           0      -17.720427    2.873999    3.992225
    122          8           0      -19.001268    4.506841    2.907865
    123          6           0      -18.613280    5.436484    4.001956
    124          1           0      -14.010586    2.691967   -2.871905
    125          1           0      -13.553882   -3.535428   -2.721919
    126          1           0      -18.655032   -3.877147    0.924469
    127          1           0      -17.544081    4.436657    0.102101
    128          1           0      -15.158764    4.483993   -1.396266
    129          1           0      -17.984948    3.811855   -2.104117
    130          1           0      -16.755514    2.996570   -3.093114
    131          1           0      -16.767562    4.734008   -3.064360
    132          1           0      -14.639198    4.173302    0.913316
    133          1           0      -15.900534    3.999529    2.187683
    134          1           0      -16.434754    6.391079    0.737646
    135          1           0      -14.712686    6.252295    0.746463
    136          1           0      -12.038640    2.388907   -3.550371
    137          1           0      -11.446804    1.131236   -4.583422
    138          1           0      -10.581403    1.427645   -3.056991
    139          1           0      -10.186922   -0.709345   -4.602495
    140          1           0       -9.266343   -2.194926   -3.976155
    141          1           0       -9.569115   -0.753477   -2.964238
    142          1           0      -14.745968   -5.405464   -1.464330
    143          1           0      -17.704665   -5.272861   -1.172270
    144          1           0      -15.439271   -6.177628   -3.477345
    145          1           0      -16.017834   -4.511540   -3.831516
    146          1           0      -17.085970   -5.637130   -3.162370
    147          1           0      -16.243521   -6.985502   -0.030473
    148          1           0      -17.444833   -6.231080    1.000391
    149          1           0      -14.537094   -5.933111    0.804492
    150          1           0      -15.523946   -6.108831    2.301176
    151          1           0      -15.392501   -4.518041    1.425718
    152          1           0      -20.688745   -2.019336    3.336254
    153          1           0      -20.263188   -3.337209    2.196820
    154          1           0      -21.285287   -1.964596    1.610742
    155          1           0      -19.607936    2.872206    1.300136
    156          1           0      -19.536137    5.885509    4.381970
    157          1           0      -17.864508    6.120996    3.560888
    158          1           0      -18.201365    5.002802    4.905669
 ---------------------------------------------------------------------

 SCF Done:  E(RCAM-B3LYP) =  -4069.81179431     A.U. after   19 cycles

 Excitation energies and oscillator strengths:

 Excited State   1:      Singlet-A      1.6755 eV  739.99 nm  f=0.3102  <S**2>=0.000
     310 -> 316        0.17075
     311 -> 314        0.12433
     312 -> 313        0.67469
     310 <- 316        0.10293
 This state for optimization and/or second-order correction.
 Total Energy, E(TD-HF/TD-DFT) =  -4069.75022130
 Copying the excited state density for this state as the 1-particle RhoCI density.

 Excited State   2:      Singlet-A      1.6800 eV  737.99 nm  f=0.4699  <S**2>=0.000
     309 -> 315        0.17270
     311 -> 314        0.67433
     312 -> 313       -0.12430
     309 <- 315        0.10341

 Excited State   3:      Singlet-A      2.1862 eV  567.11 nm  f=0.0955  <S**2>=0.000
     310 -> 313        0.64211
     312 -> 316       -0.27305

 Excited State   4:      Singlet-A      2.1926 eV  565.47 nm  f=0.1047  <S**2>=0.000
     309 -> 314        0.64035
     311 -> 315       -0.27819

 Excited State   5:      Singlet-A      3.0667 eV  404.29 nm  f=0.0000  <S**2>=0.000
     311 -> 313        0.70709

 The electronic state is 1-A.
 Alpha  occ. eigenvalues --  -46.87793 -46.87660 -19.26353 -19.26288 -19.19164
 Alpha  occ. eigenvalues --  -19.19023 -19.18808 -19.18706 -19.18169 -19.18053
 Alpha  occ. eigenvalues --  -14.42497 -14.42447 -14.41446 -14.41359 -14.39399
 Alpha  occ. eigenvalues --  -14.39350 -14.38599 -14.38584 -10.39093 -10.39082
 Alpha  occ. eigenvalues --  -10.35441 -10.35383 -10.34389 -10.34230 -10.31761
 Alpha  occ. eigenvalues --  -10.31686 -10.31403 -10.31309 -10.31021 -10.30906
 Alpha  occ. eigenvalues --  -10.30567 -10.30504 -10.30397 -10.30360 -10.30202
 Alpha  occ. eigenvalues --  -10.30139 -10.29917 -10.29895 -10.29627 -10.29435
 Alpha  occ. eigenvalues --  -10.29399 -10.29250 -10.28748 -10.28719 -10.28654
 Alpha  occ. eigenvalues --  -10.28540 -10.28404 -10.28362 -10.28140 -10.28115
 Alpha  occ. eigenvalues --  -10.28000 -10.27790 -10.27724 -10.27668 -10.27580
 Alpha  occ. eigenvalues --  -10.27518 -10.27496 -10.27483 -10.27475 -10.27464
 Alpha  occ. eigenvalues --  -10.27457 -10.27444 -10.27401 -10.27375 -10.27158
 Alpha  occ. eigenvalues --  -10.27052 -10.26705 -10.26692 -10.26400 -10.26400
 Alpha  occ. eigenvalues --  -10.26232 -10.26178 -10.26138 -10.26025 -10.26016
 Alpha  occ. eigenvalues --  -10.25934 -10.25854 -10.25842 -10.25429 -10.25397
 Alpha  occ. eigenvalues --  -10.24872 -10.24830 -10.24784 -10.24731 -10.24689
 Alpha  occ. eigenvalues --  -10.24681  -3.16536  -3.16409  -1.91417  -1.91292
 Alpha  occ. eigenvalues --   -1.91004  -1.90880  -1.90846  -1.90717  -1.16647
 Alpha  occ. eigenvalues --   -1.16637  -1.08660  -1.08627  -1.07209  -1.06959
 Alpha  occ. eigenvalues --   -1.06949  -1.06646  -1.04578  -1.04494  -1.03757
 Alpha  occ. eigenvalues --   -1.03662  -1.03230  -1.03038  -1.02408  -1.02111
 Alpha  occ. eigenvalues --   -0.91987  -0.91970  -0.89515  -0.89494  -0.89186
 Alpha  occ. eigenvalues --   -0.89151  -0.88282  -0.88220  -0.87868  -0.87794
 Alpha  occ. eigenvalues --   -0.87683  -0.87670  -0.87269  -0.87114  -0.84999
 Alpha  occ. eigenvalues --   -0.84980  -0.83932  -0.83876  -0.82961  -0.82925
 Alpha  occ. eigenvalues --   -0.82650  -0.82646  -0.81598  -0.81586  -0.80594
 Alpha  occ. eigenvalues --   -0.80442  -0.78793  -0.78632  -0.77215  -0.77144
 Alpha  occ. eigenvalues --   -0.76933  -0.76899  -0.75922  -0.75839  -0.74894
 Alpha  occ. eigenvalues --   -0.74803  -0.72771  -0.72699  -0.71669  -0.71581
 Alpha  occ. eigenvalues --   -0.69902  -0.69758  -0.68870  -0.68826  -0.67638
 Alpha  occ. eigenvalues --   -0.67600  -0.67217  -0.67197  -0.65285  -0.65271
 Alpha  occ. eigenvalues --   -0.64852  -0.64770  -0.64654  -0.64618  -0.64265
 Alpha  occ. eigenvalues --   -0.64204  -0.62298  -0.62280  -0.60437  -0.60336
 Alpha  occ. eigenvalues --   -0.59802  -0.59796  -0.58993  -0.58984  -0.58501
 Alpha  occ. eigenvalues --   -0.58425  -0.57584  -0.57556  -0.57305  -0.57235
 Alpha  occ. eigenvalues --   -0.56307  -0.56203  -0.55980  -0.55887  -0.55516
 Alpha  occ. eigenvalues --   -0.55449  -0.55337  -0.55248  -0.54522  -0.54489
 Alpha  occ. eigenvalues --   -0.53912  -0.53893  -0.53295  -0.53226  -0.53219
 Alpha  occ. eigenvalues --   -0.53140  -0.52913  -0.52902  -0.52751  -0.52661
 Alpha  occ. eigenvalues --   -0.52433  -0.52401  -0.51913  -0.51887  -0.51656
 Alpha  occ. eigenvalues --   -0.51614  -0.51202  -0.51194  -0.50565  -0.50467
 Alpha  occ. eigenvalues --   -0.50026  -0.49977  -0.49914  -0.49865  -0.49511
 Alpha  occ. eigenvalues --   -0.49484  -0.49212  -0.49201  -0.49105  -0.49094
 Alpha  occ. eigenvalues --   -0.48592  -0.48559  -0.48457  -0.48442  -0.48376
 Alpha  occ. eigenvalues --   -0.48333  -0.47691  -0.47593  -0.47293  -0.47116
 Alpha  occ. eigenvalues --   -0.46794  -0.46709  -0.46553  -0.46553  -0.46356
 Alpha  occ. eigenvalues --   -0.46269  -0.46160  -0.46086  -0.45824  -0.45821
 Alpha  occ. eigenvalues --   -0.45208  -0.45197  -0.44576  -0.44514  -0.44502
 Alpha  occ. eigenvalues --   -0.44475  -0.44141  -0.44127  -0.44086  -0.44076
 Alpha  occ. eigenvalues --   -0.44017  -0.43935  -0.43555  -0.43495  -0.43385
 Alpha  occ. eigenvalues --   -0.43382  -0.43024  -0.42932  -0.42902  -0.42699
 Alpha  occ. eigenvalues --   -0.42652  -0.42552  -0.42006  -0.41964  -0.41701
 Alpha  occ. eigenvalues --   -0.41669  -0.41531  -0.41458  -0.41138  -0.40989
 Alpha  occ. eigenvalues --   -0.40866  -0.40817  -0.40719  -0.40695  -0.40567
 Alpha  occ. eigenvalues --   -0.40493  -0.40233  -0.40225  -0.39436  -0.39425
 Alpha  occ. eigenvalues --   -0.38465  -0.38350  -0.37747  -0.37654  -0.37316
 Alpha  occ. eigenvalues --   -0.37266  -0.37261  -0.37199  -0.36774  -0.36714
 Alpha  occ. eigenvalues --   -0.36218  -0.36191  -0.34283  -0.34253  -0.33864
 Alpha  occ. eigenvalues --   -0.33772  -0.33183  -0.33175  -0.31338  -0.31266
 Alpha  occ. eigenvalues --   -0.31032  -0.30972  -0.30029  -0.29957  -0.29445
 Alpha  occ. eigenvalues --   -0.29324  -0.29319  -0.29211  -0.24077  -0.24036
 Alpha  occ. eigenvalues --   -0.21124  -0.21116
 Alpha virt. eigenvalues --   -0.08791  -0.08771  -0.01746  -0.01682  -0.00054
 Alpha virt. eigenvalues --   -0.00025   0.02203   0.02207   0.03124   0.03227
 Alpha virt. eigenvalues --    0.04720   0.04730   0.05096   0.05162   0.06177

 Mulliken charges:
               1
     1  Mg   0.838654
     2  C   -0.003001
     3  C   -0.094117
     4  C   -0.045837
     5  C   -0.063940
     6  N   -0.256790
     7  C   -0.052446
     8  C   -0.014032
     9  C   -0.086977
    10  C    0.046319
    11  C    0.104806
    12  C    0.053459
    13  C   -0.071787
    14  H    0.036058
    15  N   -0.433123
    16  C    0.168437
    17  C   -0.177142
    18  C   -0.003967
    19  C    0.148721
    20  C    0.110181
    21  C    0.012315
    22  O   -0.249581
    23  C    0.062458
    24  N   -0.341118
    25  C    0.041248
    26  C   -0.028194
    27  C   -0.023976
    28  C    0.074841
    29  C    0.076176
    30  C    0.035125
    31  C   -0.004510
    32  N   -0.310441
    33  C    0.080366
    34  C   -0.169733
    35  C    0.008339
    36  C    0.082965
    37  C    0.127320
    38  C    0.046089
    39  O   -0.188523
    40  C   -0.005313
    41  C    0.212873
    42  O   -0.257134
    43  O   -0.304791
    44  C    0.157722
    45  H   -0.017587
    46  H   -0.016801
    47  H   -0.041503
    48  H    0.000912
    49  H   -0.004025
    50  H    0.025462
    51  H    0.016463
    52  H    0.016665
    53  H    0.011228
    54  H    0.044091
    55  H    0.017867
    56  H    0.017978
    57  H    0.005875
    58  H    0.026854
    59  H    0.039603
    60  H    0.037352
    61  H    0.035716
    62  H    0.031530
    63  H    0.016593
    64  H    0.009454
    65  H    0.023245
    66  H    0.012544
    67  H    0.004749
    68  H    0.006393
    69  H    0.004711
    70  H    0.008821
    71  H    0.018147
    72  H    0.028966
    73  H    0.047516
    74  H    0.009113
    75  H    0.045992
    76  H    0.035138
    77  H    0.042902
    78  H    0.046410
    79  H    0.053630
    80  Mg   0.837849
    81  C   -0.016869
    82  C   -0.087768
    83  C   -0.045507
    84  C   -0.064889
    85  N   -0.254587
    86  C   -0.049820
    87  C   -0.015102
    88  C   -0.090497
    89  C    0.045759
    90  C    0.114363
    91  C    0.062507
    92  C   -0.077890
    93  H    0.034869
    94  N   -0.423508
    95  C    0.162947
    96  C   -0.174571
    97  C   -0.007767
    98  C    0.152135
    99  C    0.099337
   100  C    0.015613
   101  O   -0.253132
   102  C    0.061177
   103  N   -0.350061
   104  C    0.037514
   105  C   -0.019808
   106  C   -0.034832
   107  C    0.088895
   108  C    0.073646
   109  C    0.034747
   110  C   -0.007682
   111  N   -0.324103
   112  C    0.078416
   113  C   -0.163157
   114  C    0.002204
   115  C    0.096186
   116  C    0.131495
   117  C    0.042346
   118  O   -0.187942
   119  C    0.000955
   120  C    0.211227
   121  O   -0.251009
   122  O   -0.305631
   123  C    0.152030
   124  H   -0.019599
   125  H   -0.015523
   126  H   -0.040488
   127  H   -0.000673
   128  H   -0.004283
   129  H    0.022434
   130  H    0.014437
   131  H    0.016318
   132  H    0.013953
   133  H    0.037659
   134  H    0.020774
   135  H    0.019635
   136  H    0.008786
   137  H    0.026242
   138  H    0.039924
   139  H    0.038310
   140  H    0.036535
   141  H    0.033949
   142  H    0.014437
   143  H    0.012394
   144  H    0.025185
   145  H    0.011649
   146  H    0.005651
   147  H    0.006271
   148  H    0.003618
   149  H    0.010970
   150  H    0.017917
   151  H    0.030102
   152  H    0.045971
   153  H    0.008495
   154  H    0.046903
   155  H    0.035002
   156  H    0.043883
   157  H    0.049509
   158  H    0.053566
 Sum of Mulliken charges =  -0.00000

 Dipole moment (field-independent basis, Debye):
    X=              3.7685    Y=              3.1014    Z=              0.6310  Tot=              4.9212
 Quadrupole moment (field-independent basis, Debye-Ang):
   XX=           -521.4969   YY=           -464.6481   ZZ=           -526.9941
   XY=              4.4099   XZ=            129.5013   YZ=             21.1698

 Normal termination of Gaussian 16 at Sun Sep 12 10:35:25 2021.
