 Gaussian 16, Revision A.03,
 Gaussian 16:  ES64L-G16RevA.03 25-Dec-2016

 -----------------------------------
 #p cam-b3lyp/Def2SVP td=(nstates=5)
 -----------------------------------

 --------------------------------
 TDDFT excited states in gaussian
 --------------------------------
 Symbolic Z-matrix:
 Charge =  0 Multiplicity = 1

                         Standard orientation:
 ---------------------------------------------------------------------
 Center     Atomic      Atomic             Coordinates (Angstroms)
 Number     Number       Type             X           Y           Z
 ---------------------------------------------------------------------
      1         12           0       -5.051511   -0.920597    0.167622
      2          6           0       -5.357743    1.985997    2.234055
      3          6           0       -6.099581    1.008620   -2.444415
      4          6           0       -5.225735   -3.564959   -1.574107
      5          6           0       -5.135361   -2.823328    3.086225
      6          7           0       -5.623900    1.213854    0.036724
      7          6           0       -5.640550    2.233921    0.888990
      8          6           0       -5.913203    3.606622    0.204355
      9          6           0       -6.673270    3.091310   -1.099006
     10          6           0       -6.071424    1.700608   -1.197262
     11          6           0       -8.181672    2.961742   -0.913439
     12          6           0       -4.591080    4.360373   -0.163861
     13          6           0       -4.761882    5.836677   -0.533600
     14          1           0       -3.725140    6.780575   -0.144280
     15          7           0       -5.108911   -1.162371   -1.792251
     16          6           0       -5.550816   -0.265409   -2.706289
     17          6           0       -5.389940   -0.914546   -4.025160
     18          6           0       -4.996512   -2.331571   -3.789896
     19          6           0       -5.121768   -2.417850   -2.357331
     20          6           0       -5.557191   -0.189298   -5.325080
     21          6           0       -4.584733   -3.436060   -4.711131
     22          8           0       -4.509798   -4.652258   -4.324063
     23          6           0       -4.353923   -3.065450   -6.119114
     24          7           0       -5.385027   -2.922754    0.655241
     25          6           0       -5.352425   -3.876013   -0.282426
     26          6           0       -5.334517   -5.244771    0.330860
     27          6           0       -5.115605   -5.024549    1.897171
     28          6           0       -5.128321   -3.476162    1.921826
     29          6           0       -6.592240   -6.095401    0.105976
     30          6           0       -3.920582   -5.762835    2.550831
     31          6           0       -2.619396   -5.196017    2.028593
     32          7           0       -5.038080   -0.518712    2.300543
     33          6           0       -5.101415   -1.461700    3.336610
     34          6           0       -5.173684   -0.708713    4.602254
     35          6           0       -5.164022    0.628708    4.211032
     36          6           0       -5.116869    0.706104    2.789737
     37          6           0       -5.295355   -1.273806    5.902370
     38          6           0       -5.207423    2.010229    4.662003
     39          8           0       -5.159584    2.565760    5.760451
     40          6           0       -5.457531    2.943007    3.395828
     41          6           0       -4.467887    4.074170    3.462041
     42          8           0       -3.245427    3.863463    3.325812
     43          8           0       -5.126410    5.243035    3.436660
     44          6           0       -4.201132    6.407040    3.469926
     45          1           0       -6.640748    1.452566   -3.282264
     46          1           0       -5.177452   -4.502919   -2.131187
     47          1           0       -5.078674   -3.349001    4.041163
     48          1           0       -6.559271    4.276995    0.771471
     49          1           0       -6.415110    3.679022   -1.979728
     50          1           0       -8.470511    3.121925    0.125231
     51          1           0       -8.427016    1.946098   -1.224512
     52          1           0       -8.714340    3.621858   -1.598485
     53          1           0       -4.209208    3.975299   -1.109351
     54          1           0       -3.860002    4.272433    0.640575
     55          1           0       -5.745236    6.208738   -0.244644
     56          1           0       -4.749228    5.920261   -1.620363
     57          1           0       -6.007879    0.791882   -5.181168
     58          1           0       -6.293482   -0.743764   -5.906589
     59          1           0       -4.622303   -0.124192   -5.881926
     60          1           0       -5.265829   -2.633224   -6.531615
     61          1           0       -3.980672   -3.963946   -6.609257
     62          1           0       -3.597785   -2.280805   -6.158299
     63          1           0       -4.512268   -5.839729   -0.064562
     64          1           0       -5.978564   -5.347257    2.480125
     65          1           0       -6.392307   -7.054836   -0.371744
     66          1           0       -7.297244   -5.506242   -0.479817
     67          1           0       -7.173706   -6.298126    1.004984
     68          1           0       -3.938346   -6.819980    2.288011
     69          1           0       -3.913555   -5.691582    3.638547
     70          1           0       -2.477417   -5.734921    1.092508
     71          1           0       -1.806987   -5.403744    2.725767
     72          1           0       -2.715737   -4.137988    1.784096
     73          1           0       -4.609067   -0.718636    6.541717
     74          1           0       -5.057857   -2.337362    5.895668
     75          1           0       -6.348415   -1.082397    6.108001
     76          1           0       -6.486483    3.294767    3.463982
     77          1           0       -4.493236    7.025107    4.318985
     78          1           0       -4.236604    6.859508    2.478755
     79          1           0       -3.162308    6.190018    3.721092
     80         12           0        5.511430   -0.343411   -0.097841
     81          6           0        3.492877    1.867143   -2.077217
     82          6           0        7.757949    2.207086    0.189752
     83          6           0        7.514497   -2.393512    1.263115
     84          6           0        3.711839   -2.992644   -1.472141
     85          7           0        5.512700    1.723182   -0.886159
     86          6           0        4.663634    2.471729   -1.573988
     87          6           0        5.054500    3.971345   -1.663043
     88          6           0        6.636275    3.821838   -1.429554
     89          6           0        6.643204    2.521942   -0.627750
     90          6           0        7.415444    3.594705   -2.714329
     91          6           0        4.385930    4.831385   -0.533717
     92          6           0        4.473636    6.345016   -0.740993
     93          1           0        3.351623    7.173075   -0.307547
     94          7           0        7.113932   -0.018636    1.026915
     95          6           0        7.895072    1.081848    1.032000
     96          6           0        8.953460    0.819410    2.019474
     97          6           0        8.828682   -0.591156    2.477137
     98          6           0        7.804732   -1.072478    1.571629
     99          6           0        9.901857    1.880423    2.497185
    100          6           0        9.525806   -1.380264    3.543674
    101          8           0        9.428078   -2.656569    3.609444
    102          6           0       10.400866   -0.624751    4.451950
    103          7           0        5.746789   -2.402753   -0.259200
    104          6           0        6.659368   -3.054523    0.482640
    105          6           0        6.460073   -4.549294    0.403219
    106          6           0        5.068369   -4.757399   -0.356668
    107          6           0        4.732768   -3.284471   -0.677974
    108          6           0        7.556919   -5.329076   -0.321528
    109          6           0        3.995620   -5.619869    0.363066
    110          6           0        3.503350   -4.904429    1.600488
    111          7           0        3.778113   -0.551758   -1.370725
    112          6           0        3.208134   -1.753247   -1.845741
    113          6           0        2.116398   -1.381960   -2.769140
    114          6           0        2.142128    0.020736   -2.785204
    115          6           0        3.189888    0.490126   -1.947734
    116          6           0        1.295303   -2.290604   -3.494603
    117          6           0        1.528010    1.210873   -3.328465
    118          8           0        0.540911    1.437532   -4.027038
    119          6           0        2.456312    2.456699   -2.992957
    120          6           0        1.582824    3.553530   -2.448431
    121          8           0        0.993409    3.411809   -1.362555
    122          8           0        1.759214    4.664665   -3.186422
    123          6           0        0.922022    5.783971   -2.678395
    124          1           0        8.629709    2.860952    0.152630
    125          1           0        8.106459   -3.142692    1.793968
    126          1           0        3.040278   -3.758991   -1.865080
    127          1           0        4.862555    4.434547   -2.623446
    128          1           0        7.026382    4.641032   -0.831147
    129          1           0        6.761845    3.452929   -3.562186
    130          1           0        8.011752    2.707911   -2.543852
    131          1           0        8.126757    4.410285   -2.873002
    132          1           0        4.975079    4.733407    0.387177
    133          1           0        3.361984    4.544765   -0.392258
    134          1           0        4.769755    6.604393   -1.764708
    135          1           0        5.284871    6.733792   -0.120692
    136          1           0        9.859387    2.773611    1.861724
    137          1           0       10.915694    1.491883    2.352199
    138          1           0        9.764332    2.123968    3.552863
    139          1           0       11.170631   -0.118818    3.874055
    140          1           0       10.738894   -1.345598    5.198939
    141          1           0        9.807856    0.157399    4.938971
    142          1           0        6.388259   -4.983001    1.393096
    143          1           0        5.203486   -5.266733   -1.322153
    144          1           0        8.013814   -6.121022    0.301483
    145          1           0        8.309327   -4.627833   -0.657208
    146          1           0        7.249297   -5.801314   -1.252955
    147          1           0        4.432625   -6.562171    0.702553
    148          1           0        3.146713   -5.866644   -0.265775
    149          1           0        4.260785   -5.156166    2.348831
    150          1           0        2.522339   -5.274140    1.891978
    151          1           0        3.525691   -3.817287    1.461635
    152          1           0        0.280968   -1.921890   -3.419260
    153          1           0        1.381274   -3.302614   -3.104445
    154          1           0        1.733862   -2.196423   -4.491625
    155          1           0        2.955515    2.751475   -3.916798
    156          1           0        0.313185    6.134040   -3.517713
    157          1           0        1.629803    6.508126   -2.232979
    158          1           0        0.157982    5.546656   -1.947383
 ---------------------------------------------------------------------

 SCF Done:  E(RCAM-B3LYP) =  -4069.81175201     A.U. after   19 cycles

 Excitation energies and oscillator strengths:

 Excited State   1:      Singlet-A      1.6578 eV  747.88 nm  f=0.1777  <S**2>=0.000
     309 -> 315        0.12944
     310 -> 316       -0.10855
     311 -> 313        0.52492
     312 -> 314       -0.44334
 This state for optimization and/or second-order correction.
 Total Energy, E(TD-HF/TD-DFT) =  -4069.75082900
 Copying the excited state density for this state as the 1-particle RhoCI density.

 Excited State   2:      Singlet-A      1.6948 eV  731.57 nm  f=0.5793  <S**2>=0.000
     309 -> 315        0.11486
     310 -> 316        0.13639
     311 -> 313        0.44187
     312 -> 314        0.52320

 Excited State   3:      Singlet-A      2.1813 eV  568.39 nm  f=0.0153  <S**2>=0.000
     309 -> 313        0.56170
     310 -> 314        0.31618
     311 -> 315       -0.23499
     312 -> 316       -0.13102

 Excited State   4:      Singlet-A      2.1940 eV  565.11 nm  f=0.1630  <S**2>=0.000
     309 -> 313       -0.31310
     310 -> 314        0.55774
     311 -> 315        0.13670
     312 -> 316       -0.24355

 Excited State   5:      Singlet-A      2.4268 eV  510.90 nm  f=0.0000  <S**2>=0.000
     312 -> 313        0.70636

 The electronic state is 1-A.
 Alpha  occ. eigenvalues --  -46.87564 -46.87291 -19.26338 -19.25863 -19.19090
 Alpha  occ. eigenvalues --  -19.18627 -19.18537 -19.18387 -19.18053 -19.17729
 Alpha  occ. eigenvalues --  -14.42405 -14.41952 -14.41271 -14.40988 -14.39260
 Alpha  occ. eigenvalues --  -14.38900 -14.38510 -14.38096 -10.39026 -10.38605
 Alpha  occ. eigenvalues --  -10.35304 -10.35018 -10.34225 -10.33948 -10.31802
 Alpha  occ. eigenvalues --  -10.31327 -10.31230 -10.30936 -10.30920 -10.30400
 Alpha  occ. eigenvalues --  -10.30314 -10.30281 -10.30082 -10.30052 -10.30045
 Alpha  occ. eigenvalues --  -10.29812 -10.29760 -10.29505 -10.29344 -10.29320
 Alpha  occ. eigenvalues --  -10.29168 -10.28767 -10.28638 -10.28570 -10.28324
 Alpha  occ. eigenvalues --  -10.28253 -10.28147 -10.28067 -10.27926 -10.27866
 Alpha  occ. eigenvalues --  -10.27643 -10.27584 -10.27426 -10.27401 -10.27384
 Alpha  occ. eigenvalues --  -10.27379 -10.27316 -10.27292 -10.27238 -10.27172
 Alpha  occ. eigenvalues --  -10.27130 -10.27101 -10.27016 -10.26925 -10.26902
 Alpha  occ. eigenvalues --  -10.26708 -10.26574 -10.26322 -10.26115 -10.26035
 Alpha  occ. eigenvalues --  -10.25976 -10.25943 -10.25933 -10.25839 -10.25827
 Alpha  occ. eigenvalues --  -10.25773 -10.25570 -10.25460 -10.25327 -10.25151
 Alpha  occ. eigenvalues --  -10.24802 -10.24621 -10.24607 -10.24477 -10.24361
 Alpha  occ. eigenvalues --  -10.24343  -3.16313  -3.16031  -1.91195  -1.90911
 Alpha  occ. eigenvalues --   -1.90784  -1.90621  -1.90500  -1.90342  -1.16622
 Alpha  occ. eigenvalues --   -1.16201  -1.08663  -1.08191  -1.06888  -1.06879
 Alpha  occ. eigenvalues --   -1.06796  -1.06170  -1.04408  -1.04085  -1.03576
 Alpha  occ. eigenvalues --   -1.03296  -1.02952  -1.02754  -1.02026  -1.01937
 Alpha  occ. eigenvalues --   -0.91918  -0.91502  -0.89407  -0.89136  -0.89070
 Alpha  occ. eigenvalues --   -0.88706  -0.88133  -0.87911  -0.87716  -0.87596
 Alpha  occ. eigenvalues --   -0.87423  -0.87192  -0.87034  -0.86776  -0.84917
 Alpha  occ. eigenvalues --   -0.84515  -0.83794  -0.83595  -0.82845  -0.82577
 Alpha  occ. eigenvalues --   -0.82524  -0.82197  -0.81552  -0.81159  -0.80379
 Alpha  occ. eigenvalues --   -0.80146  -0.78553  -0.78313  -0.77063  -0.76835
 Alpha  occ. eigenvalues --   -0.76798  -0.76513  -0.75782  -0.75485  -0.74731
 Alpha  occ. eigenvalues --   -0.74522  -0.72617  -0.72326  -0.71509  -0.71239
 Alpha  occ. eigenvalues --   -0.69665  -0.69585  -0.68749  -0.68418  -0.67527
 Alpha  occ. eigenvalues --   -0.67188  -0.67109  -0.66737  -0.65197  -0.64814
 Alpha  occ. eigenvalues --   -0.64696  -0.64586  -0.64410  -0.64196  -0.64121
 Alpha  occ. eigenvalues --   -0.63867  -0.62235  -0.61875  -0.60255  -0.59982
 Alpha  occ. eigenvalues --   -0.59716  -0.59324  -0.58916  -0.58543  -0.58355
 Alpha  occ. eigenvalues --   -0.58057  -0.57505  -0.57160  -0.57135  -0.56888
 Alpha  occ. eigenvalues --   -0.56128  -0.55853  -0.55844  -0.55548  -0.55384
 Alpha  occ. eigenvalues --   -0.55180  -0.55075  -0.54964  -0.54424  -0.54135
 Alpha  occ. eigenvalues --   -0.53830  -0.53414  -0.53150  -0.53070  -0.52865
 Alpha  occ. eigenvalues --   -0.52824  -0.52754  -0.52584  -0.52476  -0.52308
 Alpha  occ. eigenvalues --   -0.52281  -0.52110  -0.51813  -0.51576  -0.51496
 Alpha  occ. eigenvalues --   -0.51144  -0.51131  -0.50771  -0.50386  -0.50078
 Alpha  occ. eigenvalues --   -0.49897  -0.49787  -0.49656  -0.49451  -0.49406
 Alpha  occ. eigenvalues --   -0.49132  -0.49060  -0.49053  -0.48757  -0.48660
 Alpha  occ. eigenvalues --   -0.48499  -0.48318  -0.48262  -0.48176  -0.48068
 Alpha  occ. eigenvalues --   -0.47997  -0.47523  -0.47255  -0.47041  -0.46850
 Alpha  occ. eigenvalues --   -0.46627  -0.46473  -0.46374  -0.46192  -0.46093
 Alpha  occ. eigenvalues --   -0.46011  -0.45911  -0.45767  -0.45746  -0.45409
 Alpha  occ. eigenvalues --   -0.45131  -0.44832  -0.44456  -0.44398  -0.44156
 Alpha  occ. eigenvalues --   -0.44075  -0.44072  -0.43999  -0.43871  -0.43739
 Alpha  occ. eigenvalues --   -0.43654  -0.43569  -0.43510  -0.43312  -0.43075
 Alpha  occ. eigenvalues --   -0.42943  -0.42888  -0.42842  -0.42600  -0.42465
 Alpha  occ. eigenvalues --   -0.42324  -0.42262  -0.41879  -0.41622  -0.41617
 Alpha  occ. eigenvalues --   -0.41375  -0.41265  -0.41091  -0.40919  -0.40710
 Alpha  occ. eigenvalues --   -0.40635  -0.40611  -0.40457  -0.40410  -0.40377
 Alpha  occ. eigenvalues --   -0.40187  -0.40131  -0.39720  -0.39329  -0.39135
 Alpha  occ. eigenvalues --   -0.38263  -0.38093  -0.37566  -0.37287  -0.37178
 Alpha  occ. eigenvalues --   -0.37114  -0.36911  -0.36778  -0.36720  -0.36285
 Alpha  occ. eigenvalues --   -0.36138  -0.35762  -0.34168  -0.33813  -0.33783
 Alpha  occ. eigenvalues --   -0.33284  -0.33090  -0.32713  -0.31186  -0.30920
 Alpha  occ. eigenvalues --   -0.30889  -0.30571  -0.29958  -0.29590  -0.29246
 Alpha  occ. eigenvalues --   -0.29139  -0.28961  -0.28844  -0.23948  -0.23599
 Alpha  occ. eigenvalues --   -0.21032  -0.20653
 Alpha virt. eigenvalues --   -0.08712  -0.08294  -0.01594  -0.01285   0.00050
 Alpha virt. eigenvalues --    0.00419   0.02258   0.02642   0.03388   0.03797
 Alpha virt. eigenvalues --    0.04814   0.05166   0.05217   0.05566   0.06248

 Mulliken charges:
               1
     1  Mg   0.843413
     2  C   -0.000886
     3  C   -0.090836
     4  C   -0.047375
     5  C   -0.064921
     6  N   -0.256630
     7  C   -0.051078
     8  C   -0.015181
     9  C   -0.087809
    10  C    0.048189
    11  C    0.105068
    12  C    0.053179
    13  C   -0.070469
    14  H    0.031564
    15  N   -0.433071
    16  C    0.171449
    17  C   -0.173734
    18  C   -0.004021
    19  C    0.148753
    20  C    0.110159
    21  C    0.011653
    22  O   -0.252010
    23  C    0.061295
    24  N   -0.341161
    25  C    0.041471
    26  C   -0.027852
    27  C   -0.023596
    28  C    0.074522
    29  C    0.076580
    30  C    0.035588
    31  C   -0.004707
    32  N   -0.310275
    33  C    0.080356
    34  C   -0.170553
    35  C    0.007720
    36  C    0.083639
    37  C    0.127456
    38  C    0.046100
    39  O   -0.190107
    40  C   -0.005760
    41  C    0.211845
    42  O   -0.254100
    43  O   -0.305427
    44  C    0.158416
    45  H   -0.018345
    46  H   -0.018421
    47  H   -0.042989
    48  H   -0.000563
    49  H   -0.003752
    50  H    0.024784
    51  H    0.015993
    52  H    0.015606
    53  H    0.016839
    54  H    0.047823
    55  H    0.016514
    56  H    0.017025
    57  H    0.005679
    58  H    0.024689
    59  H    0.045025
    60  H    0.036770
    61  H    0.033581
    62  H    0.036008
    63  H    0.014878
    64  H    0.008707
    65  H    0.022013
    66  H    0.012643
    67  H    0.004085
    68  H    0.004898
    69  H    0.004466
    70  H    0.006545
    71  H    0.016572
    72  H    0.031375
    73  H    0.046818
    74  H    0.008153
    75  H    0.044974
    76  H    0.034001
    77  H    0.041342
    78  H    0.045675
    79  H    0.053761
    80  Mg   0.839575
    81  C   -0.016069
    82  C   -0.087741
    83  C   -0.045438
    84  C   -0.064845
    85  N   -0.254620
    86  C   -0.049459
    87  C   -0.015448
    88  C   -0.090595
    89  C    0.046202
    90  C    0.114491
    91  C    0.062326
    92  C   -0.077767
    93  H    0.034830
    94  N   -0.423429
    95  C    0.163424
    96  C   -0.174545
    97  C   -0.007614
    98  C    0.152352
    99  C    0.099422
   100  C    0.015824
   101  O   -0.253222
   102  C    0.061049
   103  N   -0.350105
   104  C    0.037635
   105  C   -0.019853
   106  C   -0.034779
   107  C    0.088846
   108  C    0.073735
   109  C    0.034592
   110  C   -0.007813
   111  N   -0.324066
   112  C    0.078488
   113  C   -0.162809
   114  C    0.000995
   115  C    0.097160
   116  C    0.130411
   117  C    0.042865
   118  O   -0.191498
   119  C    0.000940
   120  C    0.209369
   121  O   -0.247588
   122  O   -0.306209
   123  C    0.152145
   124  H   -0.019881
   125  H   -0.015626
   126  H   -0.039938
   127  H   -0.001442
   128  H   -0.004251
   129  H    0.021982
   130  H    0.014356
   131  H    0.015998
   132  H    0.014783
   133  H    0.039378
   134  H    0.019846
   135  H    0.019652
   136  H    0.008693
   137  H    0.025914
   138  H    0.040231
   139  H    0.038034
   140  H    0.036369
   141  H    0.034390
   142  H    0.014457
   143  H    0.012365
   144  H    0.024998
   145  H    0.011445
   146  H    0.005565
   147  H    0.005827
   148  H    0.004258
   149  H    0.010716
   150  H    0.017787
   151  H    0.030897
   152  H    0.045975
   153  H    0.010903
   154  H    0.045568
   155  H    0.034021
   156  H    0.041239
   157  H    0.049916
   158  H    0.054380
 Sum of Mulliken charges =  -0.00000

 Dipole moment (field-independent basis, Debye):
    X=              2.0639    Y=              2.9517    Z=             -3.8580  Tot=              5.2779
 Quadrupole moment (field-independent basis, Debye-Ang):
   XX=           -466.6643   YY=           -465.9863   ZZ=           -529.9478
   XY=             23.4146   XZ=             12.6617   YZ=            -23.3670

 Normal termination of Gaussian 16 at Fri Sep 10 16:24:36 2021.
