 Gaussian 16, Revision A.03,
 Gaussian 16:  ES64L-G16RevA.03 25-Dec-2016

 -----------------------------------
 #p cam-b3lyp/Def2SVP td=(nstates=5)
 -----------------------------------

 --------------------------------
 TDDFT excited states in gaussian
 --------------------------------
 Symbolic Z-matrix:
 Charge =  0 Multiplicity = 1

                         Standard orientation:
 ---------------------------------------------------------------------
 Center     Atomic      Atomic             Coordinates (Angstroms)
 Number     Number       Type             X           Y           Z
 ---------------------------------------------------------------------
      1         12           0        3.256620    1.489064    0.831778
      2          6           0        4.532152   -1.608956   -0.428186
      3          6           0        4.310583    2.933590   -2.074348
      4          6           0        2.552494    4.307129    2.104310
      5          6           0        3.343476    0.062272    4.010203
      6          7           0        4.277114    0.662118   -0.950187
      7          6           0        4.656738   -0.552822   -1.333562
      8          6           0        5.130096   -0.612908   -2.816699
      9          6           0        5.544589    0.914361   -3.010717
     10          6           0        4.631757    1.547206   -1.975261
     11          6           0        6.993142    1.205387   -2.631904
     12          6           0        3.976213   -1.021830   -3.792952
     13          6           0        4.423254   -1.419811   -5.202604
     14          1           0        3.702403   -2.478563   -5.893088
     15          7           0        2.958721    3.243644   -0.025865
     16          6           0        3.450728    3.655873   -1.218880
     17          6           0        2.946774    5.032344   -1.413916
     18          6           0        2.278903    5.455486   -0.151778
     19          6           0        2.597015    4.347881    0.712741
     20          6           0        3.076722    5.780960   -2.704822
     21          6           0        1.489558    6.670818    0.219753
     22          8           0        1.197036    6.947110    1.433288
     23          6           0        1.138987    7.587927   -0.879816
     24          7           0        3.191571    2.182116    2.799793
     25          6           0        2.798985    3.429790    3.079382
     26          6           0        2.560603    3.610748    4.549200
     27          6           0        2.638526    2.151411    5.192640
     28          6           0        3.010020    1.351713    3.919555
     29          6           0        3.540279    4.542098    5.276410
     30          6           0        1.419397    1.684848    6.027184
     31          6           0        0.219336    1.502810    5.125067
     32          7           0        3.659826   -0.478257    1.655258
     33          6           0        3.661501   -0.841108    3.009884
     34          6           0        4.096034   -2.248370    3.079614
     35          6           0        4.334432   -2.603738    1.753445
     36          6           0        4.091076   -1.481338    0.911253
     37          6           0        4.280650   -3.005543    4.270009
     38          6           0        4.761838   -3.663346    0.854327
     39          8           0        5.010180   -4.862945    0.983873
     40          6           0        5.024216   -3.026668   -0.581509
     41          6           0        4.342585   -3.901493   -1.598057
     42          8           0        3.098287   -3.989484   -1.634758
     43          8           0        5.240197   -4.305925   -2.509796
     44          6           0        4.622983   -5.153987   -3.564307
     45          1           0        4.805567    3.536794   -2.837943
     46          1           0        2.206130    5.228939    2.576259
     47          1           0        3.313267   -0.474644    4.960077
     48          1           0        5.991234   -1.257673   -2.993175
     49          1           0        5.297628    1.279601   -4.007377
     50          1           0        7.465303    0.339479   -2.168020
     51          1           0        6.948575    2.037091   -1.928502
     52          1           0        7.552791    1.571060   -3.493213
     53          1           0        3.377123   -0.142548   -4.029626
     54          1           0        3.375324   -1.825055   -3.365063
     55          1           0        5.497919   -1.599488   -5.244081
     56          1           0        4.265277   -0.568051   -5.864229
     57          1           0        3.757137    5.279437   -3.391885
     58          1           0        3.568966    6.726120   -2.476617
     59          1           0        2.108354    5.973024   -3.167107
     60          1           0        2.052277    7.938993   -1.360652
     61          1           0        0.499434    8.352937   -0.440975
     62          1           0        0.586274    7.033870   -1.639077
     63          1           0        1.573475    4.031420    4.736390
     64          1           0        3.482560    2.049922    5.875269
     65          1           0        3.055241    5.371168    5.792246
     66          1           0        4.264383    4.904963    4.547512
     67          1           0        4.189230    4.048371    5.999261
     68          1           0        1.153840    2.440550    6.765655
     69          1           0        1.594150    0.749106    6.558314
     70          1           0       -0.183021    2.512305    5.048522
     71          1           0       -0.503532    0.828254    5.585117
     72          1           0        0.517767    1.194129    4.122998
     73          1           0        3.845420   -3.986252    4.078295
     74          1           0        3.807106   -2.522134    5.124218
     75          1           0        5.368198   -3.007630    4.341371
     76          1           0        6.104532   -3.002352   -0.720966
     77          1           0        5.174630   -6.093951   -3.583971
     78          1           0        4.610486   -4.555488   -4.475376
     79          1           0        3.612596   -5.512492   -3.364481
     80         12           0       -4.289395   -0.547127   -0.538027
     81          6           0       -1.350439   -2.547851   -0.049487
     82          6           0       -2.214541    2.035468   -1.350316
     83          6           0       -6.825642    1.359421   -0.539351
     84          6           0       -6.028506   -2.882308    1.377205
     85          7           0       -2.085373   -0.398831   -0.650000
     86          6           0       -1.073811   -1.241023   -0.502386
     87          6           0        0.304122   -0.673740   -0.937208
     88          6           0       -0.015269    0.890796   -0.766637
     89          6           0       -1.528732    0.854736   -0.968666
     90          6           0        0.267595    1.413788    0.631857
     91          6           0        0.654592   -1.029614   -2.424677
     92          6           0        2.110861   -0.776071   -2.820587
     93          1           0        2.745332   -1.692511   -3.764007
     94          7           0       -4.548081    1.245492   -1.349306
     95          6           0       -3.593198    2.156516   -1.631337
     96          6           0       -4.298684    3.316703   -2.197394
     97          6           0       -5.762952    3.081278   -2.074059
     98          6           0       -5.769072    1.869090   -1.279935
     99          6           0       -3.584573    4.462729   -2.853216
    100          6           0       -6.959857    3.831003   -2.575597
    101          8           0       -8.141334    3.576260   -2.148937
    102          6           0       -6.697570    4.934561   -3.510924
    103          7           0       -6.106576   -0.617276    0.469583
    104          6           0       -7.056055    0.308668    0.248133
    105          6           0       -8.370337   -0.098018    0.870754
    106          6           0       -8.168324   -1.609768    1.351762
    107          6           0       -6.678570   -1.794035    0.988324
    108          6           0       -8.838948    0.752951    2.050857
    109          6           0       -9.191066   -2.656549    0.831282
    110          6           0       -9.026423   -2.841748   -0.660017
    111          7           0       -3.856415   -2.476202    0.333321
    112          6           0       -4.720052   -3.270484    1.119014
    113          6           0       -3.940378   -4.438397    1.577831
    114          6           0       -2.660678   -4.229171    1.042014
    115          6           0       -2.638543   -3.006323    0.318383
    116          6           0       -4.420453   -5.479898    2.420996
    117          6           0       -1.320668   -4.759417    0.932917
    118          8           0       -0.771246   -5.807764    1.268841
    119          6           0       -0.378653   -3.631528    0.327216
    120          6           0        0.440373   -4.251172   -0.771754
    121          8           0       -0.105674   -4.670027   -1.807612
    122          8           0        1.745840   -4.050650   -0.514998
    123          6           0        2.598409   -4.637742   -1.582834
    124          1           0       -1.652956    2.968790   -1.399341
    125          1           0       -7.758648    1.924666   -0.598229
    126          1           0       -6.525194   -3.704686    1.896507
    127          1           0        1.133213   -0.955683   -0.299339
    128          1           0        0.459807    1.478377   -1.547924
    129          1           0        0.525769    0.618248    1.314937
    130          1           0       -0.641455    1.906476    0.951131
    131          1           0        1.035262    2.192036    0.595159
    132          1           0        0.151876   -0.317129   -3.091288
    133          1           0        0.391824   -2.045932   -2.645341
    134          1           0        2.754173   -0.618229   -1.946417
    135          1           0        2.162666    0.169533   -3.365722
    136          1           0       -2.507567    4.436908   -2.646333
    137          1           0       -3.933233    5.378725   -2.364094
    138          1           0       -3.792897    4.532066   -3.923011
    139          1           0       -6.040868    5.660687   -3.037698
    140          1           0       -7.680416    5.290388   -3.826039
    141          1           0       -6.156052    4.537914   -4.376975
    142          1           0       -9.170351   -0.065251    0.141367
    143          1           0       -8.238711   -1.702194    2.445532
    144          1           0       -9.841565    1.195410    1.899018
    145          1           0       -8.104126    1.527420    2.226296
    146          1           0       -8.865412    0.238129    3.009746
    147          1           0      -10.211797   -2.299574    0.988886
    148          1           0       -9.108271   -3.621479    1.320212
    149          1           0       -9.606620   -2.013202   -1.077122
    150          1           0       -9.429165   -3.802784   -0.973466
    151          1           0       -7.982406   -2.697766   -0.961587
    152          1           0       -4.060941   -6.410328    2.002007
    153          1           0       -5.506214   -5.467183    2.489684
    154          1           0       -3.946088   -5.200443    3.365533
    155          1           0        0.244314   -3.254193    1.139067
    156          1           0        3.297470   -5.322679   -1.093075
    157          1           0        3.033050   -3.777046   -2.125095
    158          1           0        2.122040   -5.297664   -2.298386
 ---------------------------------------------------------------------

 SCF Done:  E(RCAM-B3LYP) =  -4067.62168567     A.U. after   23 cycles

 Excitation energies and oscillator strengths:

 Excited State   1:      Singlet-A      1.0899 eV 1137.54 nm  f=0.1066  <S**2>=0.000
     312 -> 313        0.32616
     312 -> 314        0.61793
 This state for optimization and/or second-order correction.
 Total Energy, E(TD-HF/TD-DFT) =  -4067.58163149
 Copying the excited state density for this state as the 1-particle RhoCI density.

 Excited State   2:      Singlet-A      1.5602 eV  794.69 nm  f=0.0037  <S**2>=0.000
     312 -> 313        0.61738
     312 -> 314       -0.32876

 Excited State   3:      Singlet-A      1.6326 eV  759.43 nm  f=0.0143  <S**2>=0.000
     309 -> 316        0.11807
     310 -> 313       -0.14592
     310 -> 314       -0.42910
     311 -> 313        0.48601
     311 -> 314       -0.15242

 Excited State   4:      Singlet-A      1.7096 eV  725.23 nm  f=0.5714  <S**2>=0.000
     308 -> 315        0.12239
     309 -> 316        0.11950
     310 -> 313        0.27860
     310 -> 314        0.41973
     311 -> 313        0.37084
     311 -> 314       -0.26261

 Excited State   5:      Singlet-A      2.2119 eV  560.52 nm  f=0.0325  <S**2>=0.000
     308 -> 313        0.22987
     308 -> 314        0.45267
     310 -> 315       -0.20651
     311 -> 313       -0.17260
     311 -> 314       -0.37829
     312 -> 315       -0.11103

 The electronic state is 1-A.
 Alpha  occ. eigenvalues --  -46.87526 -46.87400 -19.46911 -19.24461 -19.23100
 Alpha  occ. eigenvalues --  -19.19974 -19.18552 -19.18521 -19.17900 -19.16553
 Alpha  occ. eigenvalues --  -14.42513 -14.42117 -14.41126 -14.40833 -14.39103
 Alpha  occ. eigenvalues --  -14.39005 -14.38370 -14.38353 -10.43475 -10.39601
 Alpha  occ. eigenvalues --  -10.35217 -10.35203 -10.34088 -10.33718 -10.32300
 Alpha  occ. eigenvalues --  -10.31187 -10.31096 -10.31018 -10.30606 -10.30146
 Alpha  occ. eigenvalues --  -10.30138 -10.30108 -10.30093 -10.30084 -10.30023
 Alpha  occ. eigenvalues --  -10.29946 -10.29759 -10.29657 -10.29554 -10.29248
 Alpha  occ. eigenvalues --  -10.29202 -10.29166 -10.29154 -10.29092 -10.28713
 Alpha  occ. eigenvalues --  -10.28183 -10.28008 -10.27854 -10.27830 -10.27804
 Alpha  occ. eigenvalues --  -10.27778 -10.27729 -10.27386 -10.27375 -10.27357
 Alpha  occ. eigenvalues --  -10.27307 -10.27265 -10.27226 -10.27219 -10.27200
 Alpha  occ. eigenvalues --  -10.27176 -10.27175 -10.27162 -10.26730 -10.26714
 Alpha  occ. eigenvalues --  -10.26548 -10.26514 -10.26395 -10.26278 -10.26204
 Alpha  occ. eigenvalues --  -10.26018 -10.26008 -10.25728 -10.25716 -10.25596
 Alpha  occ. eigenvalues --  -10.25352 -10.25228 -10.25198 -10.24696 -10.24631
 Alpha  occ. eigenvalues --  -10.24577 -10.24561 -10.24451 -10.24332 -10.24315
 Alpha  occ. eigenvalues --  -10.22934  -3.16232  -3.16151  -1.91115  -1.91034
 Alpha  occ. eigenvalues --   -1.90706  -1.90620  -1.90547  -1.90460  -1.73269
 Alpha  occ. eigenvalues --   -1.23739  -1.15419  -1.14173  -1.08678  -1.07963
 Alpha  occ. eigenvalues --   -1.07074  -1.06980  -1.06777  -1.06100  -1.04818
 Alpha  occ. eigenvalues --   -1.04160  -1.03517  -1.03376  -1.02919  -1.02814
 Alpha  occ. eigenvalues --   -1.02126  -1.01880  -0.93848  -0.93278  -0.91647
 Alpha  occ. eigenvalues --   -0.90976  -0.89262  -0.89102  -0.88796  -0.88439
 Alpha  occ. eigenvalues --   -0.87993  -0.87883  -0.87602  -0.87438  -0.87185
 Alpha  occ. eigenvalues --   -0.87029  -0.86909  -0.86473  -0.84252  -0.83621
 Alpha  occ. eigenvalues --   -0.83563  -0.82995  -0.82728  -0.82693  -0.82109
 Alpha  occ. eigenvalues --   -0.81419  -0.80668  -0.80636  -0.78742  -0.78529
 Alpha  occ. eigenvalues --   -0.78399  -0.78334  -0.77726  -0.76881  -0.76515
 Alpha  occ. eigenvalues --   -0.75830  -0.75046  -0.74614  -0.73955  -0.73000
 Alpha  occ. eigenvalues --   -0.72539  -0.72286  -0.71427  -0.70907  -0.69673
 Alpha  occ. eigenvalues --   -0.69515  -0.68509  -0.68021  -0.67241  -0.67121
 Alpha  occ. eigenvalues --   -0.66411  -0.65584  -0.64815  -0.64600  -0.64214
 Alpha  occ. eigenvalues --   -0.64134  -0.64007  -0.63947  -0.63442  -0.61968
 Alpha  occ. eigenvalues --   -0.61318  -0.60218  -0.60159  -0.59975  -0.59697
 Alpha  occ. eigenvalues --   -0.59198  -0.58661  -0.58545  -0.58140  -0.57933
 Alpha  occ. eigenvalues --   -0.57139  -0.57016  -0.56809  -0.56427  -0.56122
 Alpha  occ. eigenvalues --   -0.55965  -0.55741  -0.55382  -0.55081  -0.55000
 Alpha  occ. eigenvalues --   -0.54834  -0.54510  -0.54267  -0.54070  -0.53583
 Alpha  occ. eigenvalues --   -0.53373  -0.53156  -0.52975  -0.52760  -0.52708
 Alpha  occ. eigenvalues --   -0.52403  -0.52334  -0.52285  -0.52197  -0.51803
 Alpha  occ. eigenvalues --   -0.51766  -0.51646  -0.51054  -0.50878  -0.50538
 Alpha  occ. eigenvalues --   -0.50436  -0.50358  -0.50262  -0.50006  -0.49895
 Alpha  occ. eigenvalues --   -0.49742  -0.49727  -0.49667  -0.49502  -0.49220
 Alpha  occ. eigenvalues --   -0.49018  -0.48836  -0.48600  -0.48519  -0.48183
 Alpha  occ. eigenvalues --   -0.48155  -0.48023  -0.47882  -0.47716  -0.47185
 Alpha  occ. eigenvalues --   -0.47035  -0.46768  -0.46765  -0.46652  -0.46428
 Alpha  occ. eigenvalues --   -0.46183  -0.46144  -0.46095  -0.46049  -0.45845
 Alpha  occ. eigenvalues --   -0.45399  -0.45259  -0.45120  -0.44960  -0.44794
 Alpha  occ. eigenvalues --   -0.44675  -0.44396  -0.44227  -0.44081  -0.44007
 Alpha  occ. eigenvalues --   -0.43902  -0.43655  -0.43600  -0.43544  -0.43212
 Alpha  occ. eigenvalues --   -0.43183  -0.42942  -0.42831  -0.42578  -0.42442
 Alpha  occ. eigenvalues --   -0.42368  -0.42194  -0.42159  -0.41891  -0.41683
 Alpha  occ. eigenvalues --   -0.41603  -0.41494  -0.41348  -0.41029  -0.40866
 Alpha  occ. eigenvalues --   -0.40821  -0.40639  -0.40497  -0.40401  -0.40291
 Alpha  occ. eigenvalues --   -0.40195  -0.39948  -0.39558  -0.39271  -0.39197
 Alpha  occ. eigenvalues --   -0.38422  -0.38320  -0.38191  -0.37428  -0.37219
 Alpha  occ. eigenvalues --   -0.37196  -0.37084  -0.36910  -0.36379  -0.36070
 Alpha  occ. eigenvalues --   -0.35824  -0.34103  -0.34080  -0.33852  -0.33033
 Alpha  occ. eigenvalues --   -0.32951  -0.31168  -0.31083  -0.31011  -0.30727
 Alpha  occ. eigenvalues --   -0.29773  -0.29141  -0.29104  -0.29013  -0.28970
 Alpha  occ. eigenvalues --   -0.28555  -0.24804  -0.24105  -0.23781  -0.21107
 Alpha  occ. eigenvalues --   -0.20838  -0.18119
 Alpha virt. eigenvalues --   -0.08581  -0.08507  -0.01733  -0.01436   0.00033
 Alpha virt. eigenvalues --    0.00185   0.01225   0.02393   0.02743   0.03412
 Alpha virt. eigenvalues --    0.04445   0.04498   0.05290   0.05928   0.06565

 Mulliken charges:
               1
     1  Mg   0.660707
     2  C   -0.066885
     3  C   -0.089220
     4  C   -0.043762
     5  C   -0.067476
     6  N   -0.248177
     7  C   -0.110745
     8  C    0.077257
     9  C   -0.068401
    10  C    0.022564
    11  C    0.109984
    12  C    0.093596
    13  C   -0.060144
    14  H    0.032211
    15  N   -0.432145
    16  C    0.162512
    17  C   -0.182857
    18  C   -0.010746
    19  C    0.138139
    20  C    0.111881
    21  C    0.007775
    22  O   -0.251175
    23  C    0.064575
    24  N   -0.323759
    25  C    0.044262
    26  C   -0.026750
    27  C   -0.024600
    28  C    0.079499
    29  C    0.076687
    30  C    0.035333
    31  C   -0.004347
    32  N   -0.303841
    33  C    0.080962
    34  C   -0.179758
    35  C    0.038721
    36  C    0.074679
    37  C    0.127820
    38  C    0.004279
    39  O   -0.183290
    40  C    0.100636
    41  C   -0.393405
    42  O    1.129727
    43  O   -0.303423
    44  C    0.138039
    45  H   -0.021010
    46  H   -0.020337
    47  H   -0.044218
    48  H   -0.004675
    49  H   -0.008677
    50  H    0.027673
    51  H    0.020571
    52  H    0.015582
    53  H    0.039101
    54  H    0.112937
    55  H    0.022849
    56  H    0.023931
    57  H    0.002921
    58  H    0.025417
    59  H    0.033541
    60  H    0.037694
    61  H    0.034329
    62  H    0.025142
    63  H    0.015237
    64  H    0.009495
    65  H    0.022145
    66  H    0.013192
    67  H    0.004004
    68  H    0.006023
    69  H    0.004916
    70  H    0.008621
    71  H    0.017947
    72  H    0.027302
    73  H    0.049668
    74  H    0.007095
    75  H    0.044989
    76  H    0.024540
    77  H    0.062477
    78  H    0.046260
    79  H   -0.004611
    80  Mg   0.835849
    81  C   -0.020099
    82  C   -0.089187
    83  C   -0.045699
    84  C   -0.066004
    85  N   -0.257320
    86  C   -0.033478
    87  C   -0.050106
    88  C   -0.099540
    89  C    0.052628
    90  C    0.045411
    91  C    0.211255
    92  C   -0.349578
    93  H    0.015062
    94  N   -0.423493
    95  C    0.162572
    96  C   -0.173924
    97  C   -0.008446
    98  C    0.152098
    99  C    0.099485
   100  C    0.015192
   101  O   -0.253802
   102  C    0.061402
   103  N   -0.350049
   104  C    0.037251
   105  C   -0.019658
   106  C   -0.034700
   107  C    0.089023
   108  C    0.073732
   109  C    0.034913
   110  C   -0.007506
   111  N   -0.323858
   112  C    0.078554
   113  C   -0.164293
   114  C    0.003302
   115  C    0.094886
   116  C    0.131779
   117  C    0.039600
   118  O   -0.186341
   119  C   -0.001657
   120  C    0.230501
   121  O   -0.264492
   122  O   -0.382554
   123  C   -0.091440
   124  H   -0.016090
   125  H   -0.016198
   126  H   -0.041364
   127  H    0.005571
   128  H    0.016607
   129  H    0.074814
   130  H    0.018907
   131  H    0.124502
   132  H   -0.015456
   133  H   -0.002023
   134  H    0.046989
   135  H    0.005241
   136  H    0.007336
   137  H    0.026671
   138  H    0.037530
   139  H    0.038420
   140  H    0.035668
   141  H    0.032760
   142  H    0.013757
   143  H    0.012033
   144  H    0.024603
   145  H    0.012196
   146  H    0.005179
   147  H    0.005866
   148  H    0.003241
   149  H    0.010753
   150  H    0.017145
   151  H    0.030089
   152  H    0.045269
   153  H    0.008103
   154  H    0.046834
   155  H    0.041961
   156  H   -0.016193
   157  H   -0.199957
   158  H    0.072955
 Sum of Mulliken charges =  -0.00000

 Dipole moment (field-independent basis, Debye):
    X=              1.9757    Y=              3.8901    Z=             -5.0691  Tot=              6.6882
 Quadrupole moment (field-independent basis, Debye-Ang):
   XX=           -515.5258   YY=           -552.6644   ZZ=           -466.6181
   XY=             32.2157   XZ=            -38.6903   YZ=             -4.8220

 Normal termination of Gaussian 16 at Thu Sep  9 03:34:05 2021.
