 Gaussian 16, Revision A.03,
 Gaussian 16:  ES64L-G16RevA.03 25-Dec-2016

 -----------------------------------
 #p cam-b3lyp/Def2SVP td=(nstates=5)
 -----------------------------------

 --------------------------------
 TDDFT excited states in gaussian
 --------------------------------
 Symbolic Z-matrix:
 Charge =  0 Multiplicity = 1

                         Standard orientation:
 ---------------------------------------------------------------------
 Center     Atomic      Atomic             Coordinates (Angstroms)
 Number     Number       Type             X           Y           Z
 ---------------------------------------------------------------------
      1         12           0        3.691202    0.644964    1.561819
      2          6           0        4.843649   -2.266972   -0.171591
      3          6           0        5.526422    2.498521   -0.638036
      4          6           0        3.056302    3.189790    3.344340
      5          6           0        2.901749   -1.441898    4.239024
      6          7           0        4.978446    0.073217   -0.146032
      7          6           0        5.289046   -1.073066   -0.743304
      8          6           0        6.069944   -0.882540   -2.077947
      9          6           0        6.692893    0.558827   -1.801555
     10          6           0        5.653131    1.090787   -0.831072
     11          6           0        8.044807    0.513325   -1.096743
     12          6           0        5.122292   -0.867673   -3.324329
     13          6           0        5.821862   -1.013686   -4.678816
     14          1           0        5.153825   -1.758572   -5.735328
     15          7           0        3.798732    2.570007    1.131123
     16          6           0        4.588414    3.147304    0.193884
     17          6           0        4.304961    4.597165    0.258978
     18          6           0        3.427380    4.836734    1.438196
     19          6           0        3.413550    3.528542    2.041372
     20          6           0        4.805299    5.579712   -0.754931
     21          6           0        2.722877    6.054342    1.947350
     22          8           0        2.202242    6.100910    3.114116
     23          6           0        2.735271    7.236741    1.067110
     24          7           0        3.271741    0.887638    3.592286
     25          6           0        2.975496    2.090437    4.096763
     26          6           0        2.439135    1.979817    5.493194
     27          6           0        2.200836    0.422449    5.753138
     28          6           0        2.749939   -0.127140    4.413472
     29          6           0        3.334634    2.550999    6.601275
     30          6           0        0.780694   -0.006701    6.199731
     31          6           0       -0.201604    0.217546    5.071945
     32          7           0        3.668317   -1.494546    1.926532
     33          6           0        3.326329   -2.142387    3.122367
     34          6           0        3.566847   -3.582614    2.917514
     35          6           0        4.050888   -3.671296    1.613794
     36          6           0        4.133844   -2.366280    1.049574
     37          6           0        3.392331   -4.603674    3.892918
     38          6           0        4.540569   -4.562489    0.574639
     39          8           0        4.611854   -5.785295    0.443661
     40          6           0        5.188223   -3.677626   -0.580086
     41          6           0        4.652150   -4.180362   -1.892790
     42          8           0        3.445624   -4.049291   -2.183446
     43          8           0        5.676387   -4.517576   -2.691393
     44          6           0        5.214236   -4.996962   -4.021340
     45          1           0        6.245847    3.164106   -1.119039
     46          1           0        2.723921    4.029288    3.958510
     47          1           0        2.598531   -2.162399    5.000858
     48          1           0        6.867299   -1.606846   -2.245372
     49          1           0        6.718154    1.170898   -2.702917
     50          1           0        8.297425   -0.499901   -0.784528
     51          1           0        7.942549    1.164832   -0.228657
     52          1           0        8.820769    0.961418   -1.717929
     53          1           0        4.697864    0.129447   -3.441261
     54          1           0        4.351604   -1.633748   -3.232165
     55          1           0        6.850274   -1.356443   -4.561356
     56          1           0        5.915663   -0.022831   -5.123347
     57          1           0        5.557997    5.135851   -1.405299
     58          1           0        5.341556    6.355556   -0.208851
     59          1           0        3.993227    6.027788   -1.327731
     60          1           0        3.767235    7.527873    0.870026
     61          1           0        2.108126    7.981760    1.555461
     62          1           0        2.304293    6.963994    0.103359
     63          1           0        1.491242    2.507421    5.590959
     64          1           0        2.854165    0.033540    6.534538
     65          1           0        2.847423    3.314820    7.207829
     66          1           0        4.240010    2.939752    6.136027
     67          1           0        3.744323    1.808816    7.285919
     68          1           0        0.447846    0.600889    7.040560
     69          1           0        0.722323   -1.052269    6.502437
     70          1           0       -0.455982    1.271660    5.176678
     71          1           0       -1.082464   -0.411630    5.203985
     72          1           0        0.273947    0.092214    4.098996
     73          1           0        2.898989   -5.431240    3.383294
     74          1           0        2.800590   -4.248601    4.736344
     75          1           0        4.428892   -4.802813    4.164469
     76          1           0        6.267744   -3.803674   -0.503487
     77          1           0        5.642637   -5.987930   -4.171969
     78          1           0        5.474692   -4.218720   -4.738910
     79          1           0        4.149896   -5.217050   -4.111230
     80         12           0       -3.551010    0.252513   -1.649762
     81          6           0       -5.335180   -1.767601    0.719821
     82          6           0       -5.595302    2.834724   -0.762256
     83          6           0       -2.305322    1.928957   -4.038326
     84          6           0       -2.452874   -2.703569   -3.133475
     85          7           0       -5.212418    0.392172   -0.196326
     86          6           0       -5.760756   -0.423151    0.691873
     87          6           0       -6.768169    0.259393    1.655620
     88          6           0       -7.174981    1.509013    0.732683
     89          6           0       -5.904764    1.615214   -0.108706
     90          6           0       -8.340721    1.216142   -0.197165
     91          6           0       -6.092956    0.728178    2.992159
     92          6           0       -7.069657    1.121548    4.102595
     93          1           0       -6.708509    0.822163    5.485495
     94          7           0       -3.547187    2.209367   -1.980308
     95          6           0       -4.439744    3.113308   -1.524753
     96          6           0       -4.007115    4.412320   -2.062866
     97          6           0       -2.881535    4.177308   -3.007620
     98          6           0       -2.881361    2.729178   -3.062424
     99          6           0       -4.595987    5.717122   -1.611044
    100          6           0       -1.966141    5.103060   -3.750096
    101          8           0       -1.214067    4.686924   -4.700911
    102          6           0       -2.044528    6.527374   -3.394176
    103          7           0       -2.700876   -0.297645   -3.465515
    104          6           0       -2.188882    0.626395   -4.297341
    105          6           0       -1.389535   -0.019043   -5.404061
    106          6           0       -1.269286   -1.562569   -5.003245
    107          6           0       -2.133719   -1.559739   -3.723339
    108          6           0       -1.982710    0.097214   -6.807992
    109          6           0        0.162287   -2.160423   -4.927003
    110          6           0        0.919822   -1.540460   -3.774967
    111          7           0       -3.671349   -1.855603   -1.192117
    112          6           0       -3.165159   -2.925805   -1.961874
    113          6           0       -3.592543   -4.176751   -1.302392
    114          6           0       -4.343113   -3.744219   -0.198739
    115          6           0       -4.397794   -2.324259   -0.183603
    116          6           0       -3.320694   -5.495460   -1.764148
    117          6           0       -5.110516   -4.166169    0.950930
    118          8           0       -5.338588   -5.246196    1.494313
    119          6           0       -5.893083   -2.907750    1.525700
    120          6           0       -5.691972   -2.876694    3.016029
    121          8           0       -4.562346   -2.679661    3.497405
    122          8           0       -6.892946   -2.867210    3.622624
    123          6           0       -6.745870   -2.825434    5.101958
    124          1           0       -6.325330    3.643705   -0.723883
    125          1           0       -1.766783    2.460335   -4.826411
    126          1           0       -2.068897   -3.665708   -3.479204
    127          1           0       -7.645579   -0.331832    1.888828
    128          1           0       -7.315785    2.408860    1.325828
    129          1           0       -8.627940    0.175574   -0.167779
    130          1           0       -8.001620    1.487183   -1.188424
    131          1           0       -9.178611    1.882368    0.027378
    132          1           0       -5.599967    1.694412    2.824566
    133          1           0       -5.412218   -0.016371    3.356699
    134          1           0       -8.091800    0.784909    3.890840
    135          1           0       -7.146127    2.211293    4.127506
    136          1           0       -5.516177    5.564660   -1.033631
    137          1           0       -4.924799    6.248195   -2.510881
    138          1           0       -3.876993    6.340753   -1.075509
    139          1           0       -3.059034    6.884407   -3.554676
    140          1           0       -1.253581    7.015624   -3.966787
    141          1           0       -1.839858    6.632042   -2.322836
    142          1           0       -0.395590    0.407313   -5.462497
    143          1           0       -1.782033   -2.212692   -5.727311
    144          1           0       -1.296929    0.574151   -7.533457
    145          1           0       -2.910512    0.649800   -6.741846
    146          1           0       -2.304909   -0.842892   -7.252498
    147          1           0        0.722712   -1.917992   -5.833258
    148          1           0        0.174399   -3.239957   -4.819979
    149          1           0        1.293703   -0.604478   -4.200695
    150          1           0        1.737800   -2.186457   -3.462504
    151          1           0        0.242737   -1.281336   -2.952737
    152          1           0       -3.033379   -6.075777   -0.897433
    153          1           0       -2.540093   -5.498305   -2.522053
    154          1           0       -4.296523   -5.761911   -2.178923
    155          1           0       -6.943611   -3.024396    1.256704
    156          1           0       -7.300574   -3.679616    5.502429
    157          1           0       -7.083856   -1.817371    5.407436
    158          1           0       -5.758829   -3.002885    5.512708
 ---------------------------------------------------------------------

 SCF Done:  E(RCAM-B3LYP) =  -4069.81439442     A.U. after   19 cycles

 Excitation energies and oscillator strengths:

 Excited State   1:      Singlet-A      1.6358 eV  757.94 nm  f=0.0034  <S**2>=0.000
     309 -> 315       -0.11257
     310 -> 316        0.11875
     311 -> 313       -0.47162
     312 -> 314        0.50130
 This state for optimization and/or second-order correction.
 Total Energy, E(TD-HF/TD-DFT) =  -4069.75427997
 Copying the excited state density for this state as the 1-particle RhoCI density.

 Excited State   2:      Singlet-A      1.7079 eV  725.94 nm  f=0.6827  <S**2>=0.000
     309 -> 315        0.13314
     310 -> 316        0.12428
     311 -> 313        0.49807
     312 -> 314        0.46864

 Excited State   3:      Singlet-A      2.1787 eV  569.07 nm  f=0.0202  <S**2>=0.000
     309 -> 313        0.31285
     310 -> 314        0.56453
     311 -> 315       -0.12823
     312 -> 316       -0.23367

 Excited State   4:      Singlet-A      2.1957 eV  564.66 nm  f=0.1543  <S**2>=0.000
     309 -> 313        0.55940
     310 -> 314       -0.30802
     311 -> 315       -0.24625
     312 -> 316        0.13742

 Excited State   5:      Singlet-A      2.3688 eV  523.41 nm  f=0.0000  <S**2>=0.000
     312 -> 313        0.70702

 The electronic state is 1-A.
 Alpha  occ. eigenvalues --  -46.87610 -46.87389 -19.26495 -19.26251 -19.19334
 Alpha  occ. eigenvalues --  -19.19055 -19.18700 -19.18581 -19.18064 -19.17827
 Alpha  occ. eigenvalues --  -14.42272 -14.42236 -14.41254 -14.41061 -14.39220
 Alpha  occ. eigenvalues --  -14.39093 -14.38398 -14.38318 -10.39322 -10.38971
 Alpha  occ. eigenvalues --  -10.35338 -10.35267 -10.34296 -10.34006 -10.31882
 Alpha  occ. eigenvalues --  -10.31700 -10.31231 -10.31035 -10.30808 -10.30774
 Alpha  occ. eigenvalues --  -10.30377 -10.30320 -10.30116 -10.30066 -10.29990
 Alpha  occ. eigenvalues --  -10.29829 -10.29718 -10.29580 -10.29444 -10.29170
 Alpha  occ. eigenvalues --  -10.29127 -10.29057 -10.28663 -10.28557 -10.28545
 Alpha  occ. eigenvalues --  -10.28536 -10.28209 -10.28166 -10.27992 -10.27936
 Alpha  occ. eigenvalues --  -10.27738 -10.27609 -10.27538 -10.27406 -10.27402
 Alpha  occ. eigenvalues --  -10.27274 -10.27261 -10.27260 -10.27233 -10.27221
 Alpha  occ. eigenvalues --  -10.27219 -10.27214 -10.27142 -10.27070 -10.27029
 Alpha  occ. eigenvalues --  -10.26857 -10.26674 -10.26544 -10.26385 -10.26346
 Alpha  occ. eigenvalues --  -10.26115 -10.25838 -10.25789 -10.25776 -10.25578
 Alpha  occ. eigenvalues --  -10.25558 -10.25441 -10.25435 -10.25252 -10.25151
 Alpha  occ. eigenvalues --  -10.24659 -10.24610 -10.24610 -10.24422 -10.24127
 Alpha  occ. eigenvalues --  -10.23649  -3.16352  -3.16139  -1.91234  -1.91021
 Alpha  occ. eigenvalues --   -1.90820  -1.90663  -1.90609  -1.90447  -1.16848
 Alpha  occ. eigenvalues --   -1.16540  -1.08545  -1.08441  -1.07107  -1.06903
 Alpha  occ. eigenvalues --   -1.06844  -1.06832  -1.04413  -1.04242  -1.03571
 Alpha  occ. eigenvalues --   -1.03390  -1.03044  -1.02747  -1.02223  -1.01831
 Alpha  occ. eigenvalues --   -0.91848  -0.91740  -0.89278  -0.89120  -0.89070
 Alpha  occ. eigenvalues --   -0.88929  -0.88047  -0.87818  -0.87659  -0.87500
 Alpha  occ. eigenvalues --   -0.87489  -0.87410  -0.87106  -0.86912  -0.84868
 Alpha  occ. eigenvalues --   -0.84784  -0.83697  -0.83446  -0.82807  -0.82723
 Alpha  occ. eigenvalues --   -0.82545  -0.82405  -0.81546  -0.81379  -0.80481
 Alpha  occ. eigenvalues --   -0.80214  -0.78614  -0.78382  -0.77035  -0.76883
 Alpha  occ. eigenvalues --   -0.76829  -0.76601  -0.75818  -0.75609  -0.74704
 Alpha  occ. eigenvalues --   -0.74469  -0.72576  -0.72396  -0.71520  -0.71328
 Alpha  occ. eigenvalues --   -0.69588  -0.69219  -0.68747  -0.68591  -0.67499
 Alpha  occ. eigenvalues --   -0.67359  -0.67125  -0.67023  -0.65178  -0.65055
 Alpha  occ. eigenvalues --   -0.64742  -0.64504  -0.64477  -0.64397  -0.64037
 Alpha  occ. eigenvalues --   -0.63799  -0.62287  -0.62059  -0.60264  -0.60096
 Alpha  occ. eigenvalues --   -0.59667  -0.59570  -0.58829  -0.58718  -0.58367
 Alpha  occ. eigenvalues --   -0.58160  -0.57584  -0.57352  -0.57139  -0.56945
 Alpha  occ. eigenvalues --   -0.56206  -0.55982  -0.55948  -0.55707  -0.55404
 Alpha  occ. eigenvalues --   -0.55268  -0.55213  -0.54937  -0.54440  -0.54131
 Alpha  occ. eigenvalues --   -0.53797  -0.53713  -0.53152  -0.53110  -0.53004
 Alpha  occ. eigenvalues --   -0.52913  -0.52848  -0.52680  -0.52637  -0.52516
 Alpha  occ. eigenvalues --   -0.52092  -0.51785  -0.51687  -0.51539  -0.51516
 Alpha  occ. eigenvalues --   -0.51469  -0.51042  -0.50891  -0.50410  -0.50286
 Alpha  occ. eigenvalues --   -0.49847  -0.49767  -0.49721  -0.49505  -0.49367
 Alpha  occ. eigenvalues --   -0.49269  -0.49112  -0.49000  -0.48979  -0.48855
 Alpha  occ. eigenvalues --   -0.48523  -0.48354  -0.48347  -0.48275  -0.48173
 Alpha  occ. eigenvalues --   -0.48056  -0.47558  -0.47350  -0.47153  -0.46884
 Alpha  occ. eigenvalues --   -0.46612  -0.46462  -0.46427  -0.46312  -0.46200
 Alpha  occ. eigenvalues --   -0.46006  -0.45962  -0.45794  -0.45724  -0.45565
 Alpha  occ. eigenvalues --   -0.44995  -0.44855  -0.44479  -0.44350  -0.44320
 Alpha  occ. eigenvalues --   -0.44195  -0.44017  -0.43936  -0.43930  -0.43856
 Alpha  occ. eigenvalues --   -0.43755  -0.43671  -0.43443  -0.43289  -0.43215
 Alpha  occ. eigenvalues --   -0.43126  -0.42887  -0.42781  -0.42725  -0.42634
 Alpha  occ. eigenvalues --   -0.42390  -0.42159  -0.41776  -0.41564  -0.41511
 Alpha  occ. eigenvalues --   -0.41406  -0.41400  -0.41108  -0.40993  -0.40747
 Alpha  occ. eigenvalues --   -0.40738  -0.40693  -0.40580  -0.40437  -0.40326
 Alpha  occ. eigenvalues --   -0.40171  -0.40074  -0.40031  -0.39096  -0.38822
 Alpha  occ. eigenvalues --   -0.38250  -0.37992  -0.37669  -0.37458  -0.37147
 Alpha  occ. eigenvalues --   -0.37104  -0.36982  -0.36895  -0.36823  -0.36601
 Alpha  occ. eigenvalues --   -0.36070  -0.35892  -0.34132  -0.33984  -0.33970
 Alpha  occ. eigenvalues --   -0.33723  -0.33019  -0.32896  -0.31231  -0.31139
 Alpha  occ. eigenvalues --   -0.30879  -0.30712  -0.29932  -0.29731  -0.29272
 Alpha  occ. eigenvalues --   -0.29137  -0.29087  -0.28937  -0.23905  -0.23759
 Alpha  occ. eigenvalues --   -0.20934  -0.20836
 Alpha virt. eigenvalues --   -0.08594  -0.08528  -0.01567  -0.01413   0.00084
 Alpha virt. eigenvalues --    0.00168   0.02314   0.02414   0.02489   0.04471
 Alpha virt. eigenvalues --    0.04762   0.04850   0.04978   0.05293   0.06084

 Mulliken charges:
               1
     1  Mg   0.838868
     2  C   -0.005253
     3  C   -0.093203
     4  C   -0.045953
     5  C   -0.061661
     6  N   -0.256724
     7  C   -0.052945
     8  C   -0.013192
     9  C   -0.086952
    10  C    0.046424
    11  C    0.104947
    12  C    0.047531
    13  C   -0.071106
    14  H    0.032443
    15  N   -0.433153
    16  C    0.168970
    17  C   -0.176499
    18  C   -0.004309
    19  C    0.148666
    20  C    0.110094
    21  C    0.011555
    22  O   -0.250616
    23  C    0.062397
    24  N   -0.341278
    25  C    0.041449
    26  C   -0.027737
    27  C   -0.024182
    28  C    0.075132
    29  C    0.076460
    30  C    0.034745
    31  C   -0.006044
    32  N   -0.310994
    33  C    0.081320
    34  C   -0.167223
    35  C    0.007901
    36  C    0.084211
    37  C    0.127057
    38  C    0.046140
    39  O   -0.188918
    40  C   -0.005849
    41  C    0.213540
    42  O   -0.253528
    43  O   -0.303836
    44  C    0.157218
    45  H   -0.017959
    46  H   -0.017455
    47  H   -0.039774
    48  H   -0.000026
    49  H   -0.003704
    50  H    0.025114
    51  H    0.016642
    52  H    0.016431
    53  H    0.014666
    54  H    0.048038
    55  H    0.018116
    56  H    0.019268
    57  H    0.006162
    58  H    0.025830
    59  H    0.041233
    60  H    0.037809
    61  H    0.033755
    62  H    0.031411
    63  H    0.016176
    64  H    0.008861
    65  H    0.022341
    66  H    0.011976
    67  H    0.004593
    68  H    0.004464
    69  H    0.006598
    70  H    0.004849
    71  H    0.029187
    72  H    0.028454
    73  H    0.049022
    74  H    0.011358
    75  H    0.045036
    76  H    0.035526
    77  H    0.044257
    78  H    0.047158
    79  H    0.051509
    80  Mg   0.837272
    81  C   -0.017820
    82  C   -0.087920
    83  C   -0.046065
    84  C   -0.061140
    85  N   -0.254649
    86  C   -0.049777
    87  C   -0.015190
    88  C   -0.090439
    89  C    0.045428
    90  C    0.114563
    91  C    0.062469
    92  C   -0.077301
    93  H    0.033106
    94  N   -0.423312
    95  C    0.162669
    96  C   -0.174969
    97  C   -0.008638
    98  C    0.151767
    99  C    0.099425
   100  C    0.014093
   101  O   -0.255172
   102  C    0.061425
   103  N   -0.350586
   104  C    0.037894
   105  C   -0.018935
   106  C   -0.033643
   107  C    0.089587
   108  C    0.074368
   109  C    0.034050
   110  C   -0.024577
   111  N   -0.324744
   112  C    0.079824
   113  C   -0.159937
   114  C    0.001607
   115  C    0.097064
   116  C    0.131122
   117  C    0.042587
   118  O   -0.188161
   119  C    0.000716
   120  C    0.211511
   121  O   -0.252275
   122  O   -0.305329
   123  C    0.152499
   124  H   -0.020575
   125  H   -0.017011
   126  H   -0.037093
   127  H   -0.001142
   128  H   -0.004682
   129  H    0.022083
   130  H    0.014408
   131  H    0.015617
   132  H    0.014703
   133  H    0.036801
   134  H    0.020683
   135  H    0.019860
   136  H    0.008618
   137  H    0.024913
   138  H    0.039530
   139  H    0.038818
   140  H    0.033397
   141  H    0.033230
   142  H    0.013446
   143  H    0.010679
   144  H    0.023042
   145  H    0.010694
   146  H    0.005140
   147  H    0.000382
   148  H    0.007477
   149  H    0.001515
   150  H    0.047044
   151  H    0.025804
   152  H    0.047630
   153  H    0.012488
   154  H    0.045414
   155  H    0.034572
   156  H    0.043801
   157  H    0.049368
   158  H    0.052042
 Sum of Mulliken charges =  -0.00000

 Dipole moment (field-independent basis, Debye):
    X=              0.4420    Y=              6.4172    Z=             -1.6075  Tot=              6.6302
 Quadrupole moment (field-independent basis, Debye-Ang):
   XX=           -460.3704   YY=           -538.1515   ZZ=           -483.3447
   XY=            -11.9731   XZ=            -22.5302   YZ=             10.0575

 Normal termination of Gaussian 16 at Wed Sep  8 17:43:55 2021.
