 Gaussian 16, Revision A.03,
 Gaussian 16:  ES64L-G16RevA.03 25-Dec-2016

 -----------------------------------
 #p cam-b3lyp/Def2SVP td=(nstates=5)
 -----------------------------------

 --------------------------------
 TDDFT excited states in gaussian
 --------------------------------
 Symbolic Z-matrix:
 Charge =  0 Multiplicity = 1

                         Standard orientation:
 ---------------------------------------------------------------------
 Center     Atomic      Atomic             Coordinates (Angstroms)
 Number     Number       Type             X           Y           Z
 ---------------------------------------------------------------------
      1         12           0       15.772315   -0.820373   -0.014864
      2          6           0       16.154665    2.703805   -0.511037
      3          6           0       16.691782   -0.312436    3.231618
      4          6           0       15.883015   -3.970527    0.332838
      5          6           0       15.997188   -1.182410   -3.473769
      6          7           0       16.326483    1.009901    1.100321
      7          6           0       16.375625    2.306105    0.809439
      8          6           0       16.609786    3.210628    2.056187
      9          6           0       17.313599    2.145540    3.011297
     10          6           0       16.715644    0.872813    2.438113
     11          6           0       18.829487    2.091538    2.851080
     12          6           0       15.268370    3.733680    2.671614
     13          6           0       15.414304    4.875668    3.681525
     14          1           0       14.390829    5.909183    3.722671
     15          7           0       15.743286   -1.930822    1.618816
     16          6           0       16.138888   -1.556863    2.859357
     17          6           0       15.922739   -2.733785    3.728158
     18          6           0       15.548061   -3.880953    2.855394
     19          6           0       15.737773   -3.305848    1.548244
     20          6           0       16.027646   -2.684439    5.221580
     21          6           0       15.101571   -5.277603    3.152290
     22          8           0       15.050747   -6.181770    2.249809
     23          6           0       14.805943   -5.586895    4.562958
     24          7           0       16.138363   -2.384216   -1.348295
     25          6           0       16.069095   -3.659713   -0.951691
     26          6           0       16.086205   -4.597246   -2.122450
     27          6           0       15.936392   -3.683080   -3.423069
     28          6           0       15.941653   -2.294511   -2.737416
     29          6           0       17.337280   -5.476170   -2.257780
     30          6           0       14.775910   -4.023012   -4.391649
     31          6           0       13.449550   -3.736883   -3.723819
     32          7           0       15.852127    0.510813   -1.727353
     33          6           0       15.966967    0.143754   -3.075965
     34          6           0       16.091644    1.390149   -3.853797
     35          6           0       16.057103    2.401580   -2.895852
     36          6           0       15.945967    1.822503   -1.599468
     37          6           0       16.274490    1.478887   -5.262033
     38          6           0       16.113014    3.835787   -2.663942
     39          8           0       16.111314    4.832075   -3.388441
     40          6           0       16.301059    4.083876   -1.102238
     41          6           0       15.309141    5.135796   -0.686459
     42          8           0       14.082991    4.905152   -0.713360
     43          8           0       15.959407    6.153861   -0.102302
     44          6           0       15.030134    7.218962    0.360477
     45          1           0       17.192454   -0.308270    4.201798
     46          1           0       15.815028   -5.058474    0.397554
     47          1           0       15.986194   -1.213370   -4.564811
     48          1           0       17.276875    4.055814    1.885670
     49          1           0       17.013046    2.270452    4.051386
     50          1           0       19.163628    2.703596    2.013431
     51          1           0       19.066266    1.042195    2.674138
     52          1           0       19.327314    2.357887    3.783819
     53          1           0       14.846701    2.965519    3.319831
     54          1           0       14.574520    4.033933    1.885647
     55          1           0       16.407535    5.323276    3.636260
     56          1           0       15.352569    4.454238    4.684912
     57          1           0       16.478899   -1.752855    5.560796
     58          1           0       16.740226   -3.454544    5.516328
     59          1           0       15.068430   -2.866138    5.706578
     60          1           0       15.696077   -5.404789    5.165494
     61          1           0       14.416097   -6.604137    4.572455
     62          1           0       14.044490   -4.894981    4.924058
     63          1           0       15.250381   -5.294245   -2.077533
     64          1           0       16.826342   -3.717522   -4.051938
     65          1           0       17.121468   -6.544648   -2.279813
     66          1           0       18.012101   -5.230325   -1.438349
     67          1           0       17.959505   -5.255255   -3.124642
     68          1           0       14.787730   -5.083720   -4.640054
     69          1           0       14.817173   -3.463091   -5.326013
     70          1           0       13.268800   -4.641330   -3.144047
     71          1           0       12.670311   -3.590888   -4.472607
     72          1           0       13.529011   -2.908695   -3.019351
     73          1           0       15.614447    2.275239   -5.605740
     74          1           0       16.042804    0.533329   -5.751772
     75          1           0       17.334624    1.726668   -5.312790
     76          1           0       17.330073    4.411943   -0.958626
     77          1           0       15.356525    8.151788   -0.099457
     78          1           0       15.018717    7.168587    1.449392
     79          1           0       14.004804    7.156651   -0.005794
     80         12           0      -15.942897    0.816517    0.142214
     81          6           0      -15.922290   -2.771418    0.069104
     82          6           0      -15.085685    0.739847   -3.158376
     83          6           0      -15.512379    3.956923    0.283322
     84          6           0      -15.668017    0.609032    3.610222
     85          7           0      -15.580380   -0.860377   -1.253791
     86          6           0      -15.662145   -2.180580   -1.184952
     87          6           0      -15.532903   -2.905140   -2.551651
     88          6           0      -14.717769   -1.773420   -3.347673
     89          6           0      -15.178560   -0.544877   -2.565982
     90          6           0      -13.210852   -1.898335   -3.196261
     91          6           0      -16.927384   -3.182618   -3.215299
     92          6           0      -16.895547   -4.155954   -4.395709
     93          1           0      -18.026319   -5.060933   -4.582317
     94          7           0      -15.864393    2.168499   -1.308501
     95          6           0      -15.518504    1.960970   -2.596356
     96          6           0      -15.598807    3.275753   -3.251384
     97          6           0      -15.860457    4.304337   -2.208185
     98          6           0      -15.732412    3.501570   -1.008491
     99          6           0      -15.511656    3.449995   -4.739829
    100          6           0      -16.161782    5.770803   -2.278147
    101          8           0      -16.118703    6.517474   -1.237264
    102          6           0      -16.417273    6.324482   -3.615925
    103          7           0      -15.422616    2.100090    1.692729
    104          6           0      -15.355233    3.428687    1.497229
    105          6           0      -15.235773    4.167657    2.808736
    106          6           0      -15.481323    3.069129    3.944752
    107          6           0      -15.617831    1.812897    3.056705
    108          6           0      -13.900236    4.867918    3.058486
    109          6           0      -16.599142    3.366503    4.981433
    110          6           0      -17.951000    3.337429    4.305400
    111          7           0      -16.001415   -0.762845    1.615384
    112          6           0      -15.839596   -0.632848    3.012161
    113          6           0      -15.842858   -1.996808    3.579637
    114          6           0      -15.984383   -2.833450    2.462284
    115          6           0      -16.043429   -2.047408    1.279846
    116          6           0      -15.677386   -2.326210    4.954492
    117          6           0      -16.086573   -4.203350    2.013229
    118          8           0      -16.182145   -5.295630    2.571361
    119          6           0      -15.923823   -4.230410    0.432353
    120          6           0      -17.019687   -5.091973   -0.132723
    121          8           0      -18.210137   -4.746062   -0.033868
    122          8           0      -16.472197   -6.066034   -0.882273
    123          6           0      -17.519994   -6.940350   -1.473470
    124          1           0      -14.596899    0.829550   -4.128908
    125          1           0      -15.467672    5.042275    0.399470
    126          1           0      -15.685465    0.464445    4.692569
    127          1           0      -14.962058   -3.825596   -2.525619
    128          1           0      -15.040333   -1.709283   -4.383621
    129          1           0      -12.939634   -2.659475   -2.479847
    130          1           0      -12.866983   -0.927223   -2.864984
    131          1           0      -12.746501   -2.065626   -4.172335
    132          1           0      -17.266122   -2.274227   -3.729908
    133          1           0      -17.635788   -3.522998   -2.485283
    134          1           0      -15.949006   -4.707383   -4.449847
    135          1           0      -16.922506   -3.578139   -5.322752
    136          1           0      -15.152733    2.537302   -5.231335
    137          1           0      -14.724977    4.188166   -4.929845
    138          1           0      -16.445843    3.808517   -5.177352
    139          1           0      -15.553788    6.144947   -4.252019
    140          1           0      -16.700861    7.365900   -3.451900
    141          1           0      -17.256915    5.781970   -4.064590
    142          1           0      -15.996193    4.934503    2.891191
    143          1           0      -14.586453    2.918790    4.566394
    144          1           0      -14.005444    5.952030    3.252677
    145          1           0      -13.259202    4.695073    2.204239
    146          1           0      -13.310130    4.458674    3.876704
    147          1           0      -16.478306    4.372563    5.390577
    148          1           0      -16.606049    2.676927    5.818953
    149          1           0      -18.033079    4.339799    3.874580
    150          1           0      -18.739278    3.154759    5.032929
    151          1           0      -17.961066    2.620441    3.476263
    152          1           0      -16.407889   -3.091296    5.181454
    153          1           0      -15.804556   -1.452788    5.590689
    154          1           0      -14.643453   -2.681451    4.946867
    155          1           0      -14.933501   -4.630653    0.211781
    156          1           0      -17.287297   -7.966393   -1.172183
    157          1           0      -17.515781   -6.720479   -2.557623
    158          1           0      -18.531350   -6.834140   -1.098877
 ---------------------------------------------------------------------

 SCF Done:  E(RCAM-B3LYP) =  -4069.81178386     A.U. after   19 cycles

 Excitation energies and oscillator strengths:

 Excited State   1:      Singlet-A      1.6753 eV  740.05 nm  f=0.2170  <S**2>=0.000
     310 -> 316        0.16869
     311 -> 314        0.16108
     312 -> 313        0.66688
     310 <- 316        0.10170
 This state for optimization and/or second-order correction.
 Total Energy, E(TD-HF/TD-DFT) =  -4069.75021632
 Copying the excited state density for this state as the 1-particle RhoCI density.

 Excited State   2:      Singlet-A      1.6802 eV  737.93 nm  f=0.5603  <S**2>=0.000
     309 -> 315        0.17071
     311 -> 314        0.66651
     312 -> 313       -0.16103
     309 <- 315        0.10221

 Excited State   3:      Singlet-A      2.1861 eV  567.14 nm  f=0.0953  <S**2>=0.000
     310 -> 313        0.64211
     312 -> 316       -0.27296

 Excited State   4:      Singlet-A      2.1926 eV  565.47 nm  f=0.1048  <S**2>=0.000
     309 -> 314        0.64033
     311 -> 315       -0.27816

 Excited State   5:      Singlet-A      3.0659 eV  404.39 nm  f=0.0000  <S**2>=0.000
     311 -> 313        0.70711

 The electronic state is 1-A.
 Alpha  occ. eigenvalues --  -46.87796 -46.87660 -19.26350 -19.26285 -19.19162
 Alpha  occ. eigenvalues --  -19.19020 -19.18812 -19.18712 -19.18170 -19.18053
 Alpha  occ. eigenvalues --  -14.42497 -14.42449 -14.41449 -14.41359 -14.39402
 Alpha  occ. eigenvalues --  -14.39352 -14.38600 -14.38587 -10.39091 -10.39080
 Alpha  occ. eigenvalues --  -10.35445 -10.35389 -10.34390 -10.34230 -10.31757
 Alpha  occ. eigenvalues --  -10.31679 -10.31405 -10.31308 -10.31022 -10.30907
 Alpha  occ. eigenvalues --  -10.30570 -10.30507 -10.30398 -10.30361 -10.30207
 Alpha  occ. eigenvalues --  -10.30141 -10.29921 -10.29896 -10.29630 -10.29436
 Alpha  occ. eigenvalues --  -10.29401 -10.29254 -10.28747 -10.28717 -10.28651
 Alpha  occ. eigenvalues --  -10.28535 -10.28404 -10.28364 -10.28137 -10.28115
 Alpha  occ. eigenvalues --  -10.28001 -10.27793 -10.27726 -10.27668 -10.27583
 Alpha  occ. eigenvalues --  -10.27520 -10.27503 -10.27483 -10.27477 -10.27466
 Alpha  occ. eigenvalues --  -10.27461 -10.27451 -10.27403 -10.27377 -10.27158
 Alpha  occ. eigenvalues --  -10.27051 -10.26702 -10.26691 -10.26410 -10.26405
 Alpha  occ. eigenvalues --  -10.26232 -10.26187 -10.26142 -10.26020 -10.26020
 Alpha  occ. eigenvalues --  -10.25935 -10.25855 -10.25847 -10.25436 -10.25398
 Alpha  occ. eigenvalues --  -10.24873 -10.24833 -10.24787 -10.24735 -10.24691
 Alpha  occ. eigenvalues --  -10.24690  -3.16539  -3.16410  -1.91421  -1.91293
 Alpha  occ. eigenvalues --   -1.91007  -1.90881  -1.90849  -1.90718  -1.16644
 Alpha  occ. eigenvalues --   -1.16633  -1.08660  -1.08628  -1.07213  -1.06964
 Alpha  occ. eigenvalues --   -1.06947  -1.06643  -1.04580  -1.04494  -1.03760
 Alpha  occ. eigenvalues --   -1.03663  -1.03234  -1.03039  -1.02411  -1.02112
 Alpha  occ. eigenvalues --   -0.91987  -0.91972  -0.89521  -0.89496  -0.89186
 Alpha  occ. eigenvalues --   -0.89149  -0.88288  -0.88222  -0.87871  -0.87795
 Alpha  occ. eigenvalues --   -0.87683  -0.87672  -0.87272  -0.87118  -0.84998
 Alpha  occ. eigenvalues --   -0.84981  -0.83938  -0.83878  -0.82965  -0.82930
 Alpha  occ. eigenvalues --   -0.82651  -0.82647  -0.81597  -0.81586  -0.80596
 Alpha  occ. eigenvalues --   -0.80442  -0.78796  -0.78635  -0.77218  -0.77144
 Alpha  occ. eigenvalues --   -0.76934  -0.76898  -0.75922  -0.75838  -0.74899
 Alpha  occ. eigenvalues --   -0.74804  -0.72774  -0.72699  -0.71672  -0.71581
 Alpha  occ. eigenvalues --   -0.69909  -0.69760  -0.68872  -0.68826  -0.67641
 Alpha  occ. eigenvalues --   -0.67601  -0.67217  -0.67198  -0.65285  -0.65271
 Alpha  occ. eigenvalues --   -0.64854  -0.64770  -0.64654  -0.64620  -0.64270
 Alpha  occ. eigenvalues --   -0.64205  -0.62298  -0.62279  -0.60441  -0.60339
 Alpha  occ. eigenvalues --   -0.59803  -0.59795  -0.58993  -0.58987  -0.58504
 Alpha  occ. eigenvalues --   -0.58426  -0.57585  -0.57555  -0.57309  -0.57237
 Alpha  occ. eigenvalues --   -0.56309  -0.56204  -0.55978  -0.55886  -0.55519
 Alpha  occ. eigenvalues --   -0.55451  -0.55340  -0.55249  -0.54524  -0.54489
 Alpha  occ. eigenvalues --   -0.53910  -0.53893  -0.53298  -0.53228  -0.53220
 Alpha  occ. eigenvalues --   -0.53141  -0.52914  -0.52902  -0.52753  -0.52665
 Alpha  occ. eigenvalues --   -0.52440  -0.52404  -0.51916  -0.51888  -0.51657
 Alpha  occ. eigenvalues --   -0.51615  -0.51202  -0.51196  -0.50569  -0.50472
 Alpha  occ. eigenvalues --   -0.50032  -0.49978  -0.49916  -0.49868  -0.49513
 Alpha  occ. eigenvalues --   -0.49486  -0.49214  -0.49201  -0.49104  -0.49095
 Alpha  occ. eigenvalues --   -0.48593  -0.48558  -0.48461  -0.48444  -0.48377
 Alpha  occ. eigenvalues --   -0.48337  -0.47694  -0.47594  -0.47296  -0.47117
 Alpha  occ. eigenvalues --   -0.46797  -0.46709  -0.46554  -0.46552  -0.46359
 Alpha  occ. eigenvalues --   -0.46271  -0.46163  -0.46087  -0.45823  -0.45823
 Alpha  occ. eigenvalues --   -0.45209  -0.45202  -0.44578  -0.44514  -0.44505
 Alpha  occ. eigenvalues --   -0.44475  -0.44145  -0.44127  -0.44087  -0.44078
 Alpha  occ. eigenvalues --   -0.44018  -0.43938  -0.43554  -0.43495  -0.43385
 Alpha  occ. eigenvalues --   -0.43385  -0.43027  -0.42931  -0.42902  -0.42699
 Alpha  occ. eigenvalues --   -0.42656  -0.42554  -0.42010  -0.41965  -0.41704
 Alpha  occ. eigenvalues --   -0.41670  -0.41532  -0.41458  -0.41140  -0.40989
 Alpha  occ. eigenvalues --   -0.40868  -0.40821  -0.40721  -0.40697  -0.40572
 Alpha  occ. eigenvalues --   -0.40494  -0.40231  -0.40225  -0.39443  -0.39428
 Alpha  occ. eigenvalues --   -0.38469  -0.38351  -0.37746  -0.37652  -0.37321
 Alpha  occ. eigenvalues --   -0.37267  -0.37262  -0.37198  -0.36772  -0.36714
 Alpha  occ. eigenvalues --   -0.36218  -0.36193  -0.34286  -0.34254  -0.33863
 Alpha  occ. eigenvalues --   -0.33771  -0.33186  -0.33176  -0.31342  -0.31271
 Alpha  occ. eigenvalues --   -0.31035  -0.30973  -0.30030  -0.29957  -0.29448
 Alpha  occ. eigenvalues --   -0.29327  -0.29322  -0.29212  -0.24080  -0.24036
 Alpha  occ. eigenvalues --   -0.21127  -0.21117
 Alpha virt. eigenvalues --   -0.08792  -0.08774  -0.01749  -0.01684  -0.00056
 Alpha virt. eigenvalues --   -0.00027   0.02200   0.02206   0.03125   0.03227
 Alpha virt. eigenvalues --    0.04719   0.04730   0.05098   0.05164   0.06179

 Mulliken charges:
               1
     1  Mg   0.838790
     2  C   -0.002949
     3  C   -0.094087
     4  C   -0.045868
     5  C   -0.063981
     6  N   -0.256791
     7  C   -0.052462
     8  C   -0.014024
     9  C   -0.086995
    10  C    0.046327
    11  C    0.104805
    12  C    0.053453
    13  C   -0.071823
    14  H    0.036147
    15  N   -0.433152
    16  C    0.168436
    17  C   -0.177122
    18  C   -0.003994
    19  C    0.148714
    20  C    0.110170
    21  C    0.012308
    22  O   -0.249616
    23  C    0.062462
    24  N   -0.341144
    25  C    0.041230
    26  C   -0.028183
    27  C   -0.023943
    28  C    0.074815
    29  C    0.076174
    30  C    0.035137
    31  C   -0.004488
    32  N   -0.310478
    33  C    0.080403
    34  C   -0.169761
    35  C    0.008344
    36  C    0.082976
    37  C    0.127323
    38  C    0.046091
    39  O   -0.188490
    40  C   -0.005336
    41  C    0.212865
    42  O   -0.257121
    43  O   -0.304787
    44  C    0.157694
    45  H   -0.017569
    46  H   -0.016827
    47  H   -0.041539
    48  H    0.000935
    49  H   -0.004000
    50  H    0.025466
    51  H    0.016448
    52  H    0.016684
    53  H    0.011228
    54  H    0.044110
    55  H    0.017871
    56  H    0.017985
    57  H    0.005898
    58  H    0.026854
    59  H    0.039612
    60  H    0.037364
    61  H    0.035693
    62  H    0.031537
    63  H    0.016553
    64  H    0.009442
    65  H    0.023217
    66  H    0.012564
    67  H    0.004738
    68  H    0.006346
    69  H    0.004685
    70  H    0.008795
    71  H    0.018077
    72  H    0.028996
    73  H    0.047517
    74  H    0.009070
    75  H    0.045996
    76  H    0.035150
    77  H    0.042932
    78  H    0.046432
    79  H    0.053670
    80  Mg   0.837881
    81  C   -0.016826
    82  C   -0.087759
    83  C   -0.045488
    84  C   -0.064918
    85  N   -0.254591
    86  C   -0.049823
    87  C   -0.015116
    88  C   -0.090487
    89  C    0.045764
    90  C    0.114352
    91  C    0.062513
    92  C   -0.077914
    93  H    0.034893
    94  N   -0.423508
    95  C    0.162925
    96  C   -0.174563
    97  C   -0.007782
    98  C    0.152121
    99  C    0.099334
   100  C    0.015593
   101  O   -0.253155
   102  C    0.061184
   103  N   -0.350081
   104  C    0.037532
   105  C   -0.019836
   106  C   -0.034787
   107  C    0.088916
   108  C    0.073648
   109  C    0.034718
   110  C   -0.007664
   111  N   -0.324111
   112  C    0.078453
   113  C   -0.163165
   114  C    0.002218
   115  C    0.096199
   116  C    0.131486
   117  C    0.042362
   118  O   -0.187913
   119  C    0.000923
   120  C    0.211248
   121  O   -0.251022
   122  O   -0.305617
   123  C    0.152021
   124  H   -0.019573
   125  H   -0.015546
   126  H   -0.040499
   127  H   -0.000637
   128  H   -0.004288
   129  H    0.022460
   130  H    0.014464
   131  H    0.016365
   132  H    0.013926
   133  H    0.037657
   134  H    0.020810
   135  H    0.019627
   136  H    0.008814
   137  H    0.026244
   138  H    0.039828
   139  H    0.038317
   140  H    0.036430
   141  H    0.033897
   142  H    0.014397
   143  H    0.012399
   144  H    0.025155
   145  H    0.011697
   146  H    0.005660
   147  H    0.006255
   148  H    0.003617
   149  H    0.010943
   150  H    0.017906
   151  H    0.030110
   152  H    0.045974
   153  H    0.008481
   154  H    0.046920
   155  H    0.035037
   156  H    0.043902
   157  H    0.049524
   158  H    0.053569
 Sum of Mulliken charges =  -0.00000

 Dipole moment (field-independent basis, Debye):
    X=              4.0219    Y=              0.2643    Z=              0.2770  Tot=              4.0400
 Quadrupole moment (field-independent basis, Debye-Ang):
   XX=           -519.0037   YY=           -550.8982   ZZ=           -447.7846
   XY=            -40.4465   XZ=            126.3341   YZ=             47.5151

 Normal termination of Gaussian 16 at Sat Sep  4 17:35:03 2021.
