 Gaussian 16, Revision A.03,
 Gaussian 16:  ES64L-G16RevA.03 25-Dec-2016

 -----------------------------------
 #p cam-b3lyp/Def2SVP td=(nstates=5)
 -----------------------------------

 --------------------------------
 TDDFT excited states in gaussian
 --------------------------------
 Symbolic Z-matrix:
 Charge =  0 Multiplicity = 1

                         Standard orientation:
 ---------------------------------------------------------------------
 Center     Atomic      Atomic             Coordinates (Angstroms)
 Number     Number       Type             X           Y           Z
 ---------------------------------------------------------------------
      1         12           0       -5.204878    0.990493    0.440037
      2          6           0       -5.880849   -1.494663   -2.045778
      3          6           0       -6.511369   -1.166722    2.738421
      4          6           0       -5.038058    3.332202    2.571982
      5          6           0       -5.022342    3.317593   -2.147809
      6          7           0       -6.054186   -1.044837    0.248326
      7          6           0       -6.200739   -1.909173   -0.750982
      8          6           0       -6.655390   -3.323834   -0.282582
      9          6           0       -7.347589   -2.922039    1.096337
     10          6           0       -6.568255   -1.654387    1.399027
     11          6           0       -8.824798   -2.568830    0.956338
     12          6           0       -5.446015   -4.292176   -0.055735
     13          6           0       -5.811745   -5.772740    0.084007
     14          1           0       -4.906437   -6.772305   -0.462468
     15          7           0       -5.239949    0.930522    2.414378
     16          6           0       -5.800862   -0.031758    3.185532
     17          6           0       -5.562607    0.378061    4.586233
     18          6           0       -4.984696    1.750552    4.566736
     19          6           0       -5.090157    2.073807    3.166821
     20          6           0       -5.830614   -0.511951    5.760883
     21          6           0       -4.435693    2.635100    5.641122
     22          8           0       -4.199179    3.876222    5.445545
     23          6           0       -4.262939    2.023432    6.971182
     24          7           0       -5.269170    3.070292    0.272898
     25          6           0       -5.116044    3.853866    1.346000
     26          6           0       -4.914798    5.286953    0.951408
     27          6           0       -4.718799    5.285783   -0.633311
     28          6           0       -4.935303    3.775156   -0.896759
     29          6           0       -6.050605    6.249657    1.324442
     30          6           0       -3.433585    5.953651   -1.183398
     31          6           0       -2.221122    5.147180   -0.775186
     32          7           0       -5.233602    0.926306   -1.729318
     33          6           0       -5.166828    2.018761   -2.606106
     34          6           0       -5.331206    1.487391   -3.971643
     35          6           0       -5.499857    0.115848   -3.792002
     36          6           0       -5.470588   -0.186731   -2.400643
     37          6           0       -5.370701    2.258452   -5.166775
     38          6           0       -5.722608   -1.161197   -4.450331
     39          8           0       -5.742764   -1.540909   -5.622042
     40          6           0       -6.099921   -2.238325   -3.339810
     41          6           0       -5.267629   -3.465239   -3.595312
     42          8           0       -4.028776   -3.440160   -3.447051
     43          8           0       -6.074548   -4.527446   -3.740707
     44          6           0       -5.310555   -5.783202   -3.967742
     45          1           0       -7.110595   -1.660602    3.505853
     46          1           0       -4.869457    4.157819    3.266509
     47          1           0       -4.891997    3.973119   -3.010797
     48          1           0       -7.381245   -3.807598   -0.936440
     49          1           0       -7.173632   -3.668022    1.871561
     50          1           0       -9.126905   -2.526620   -0.090023
     51          1           0       -8.935764   -1.590508    1.424383
     52          1           0       -9.443301   -3.251768    1.539283
     53          1           0       -5.021577   -4.111900    0.931895
     54          1           0       -4.705617   -4.176940   -0.848109
     55          1           0       -6.834057   -5.963416   -0.243756
     56          1           0       -5.815776   -6.024933    1.144471
     57          1           0       -6.405915   -1.391324    5.474045
     58          1           0       -6.490392    0.037118    6.432392
     59          1           0       -4.915319   -0.784568    6.286474
     60          1           0       -5.225946    1.655603    7.325962
     61          1           0       -3.777065    2.778240    7.588467
     62          1           0       -3.616994    1.150033    6.876956
     63          1           0       -4.023359    5.700452    1.421280
     64          1           0       -5.528717    5.805266   -1.145994
     65          1           0       -5.728442    7.088761    1.941548
     66          1           0       -6.830082    5.674172    1.822964
     67          1           0       -6.595681    6.663853    0.476650
     68          1           0       -3.313244    6.950295   -0.760121
     69          1           0       -3.430442    6.051803   -2.269035
     70          1           0       -2.014165    5.510955    0.230631
     71          1           0       -1.384867    5.352405   -1.444343
     72          1           0       -2.457285    4.085864   -0.695676
     73          1           0       -4.760286    1.724220   -5.894757
     74          1           0       -4.995170    3.267702   -4.999459
     75          1           0       -6.438733    2.240858   -5.383230
     76          1           0       -7.165889   -2.437426   -3.445609
     77          1           0       -5.677203   -6.218340   -4.897505
     78          1           0       -5.410409   -6.375450   -3.057975
     79          1           0       -4.250920   -5.667758   -4.198364
     80         12           0        5.185557   -0.984529    0.461555
     81          6           0        5.952806    1.479416   -2.032315
     82          6           0        6.554194    1.132086    2.759687
     83          6           0        4.934929   -3.309895    2.605672
     84          6           0        4.941873   -3.316680   -2.116700
     85          7           0        6.101599    1.019260    0.266632
     86          6           0        6.282388    1.882559   -0.721484
     87          6           0        6.773197    3.284079   -0.269351
     88          6           0        7.454966    2.862721    1.122241
     89          6           0        6.633699    1.611825    1.427907
     90          6           0        8.911784    2.454522    0.979412
     91          6           0        5.588963    4.289292   -0.047663
     92          6           0        6.007090    5.754564    0.093446
     93          1           0        5.130305    6.784643   -0.456701
     94          7           0        5.214938   -0.911584    2.444581
     95          6           0        5.796402    0.031089    3.215649
     96          6           0        5.553450   -0.380997    4.606811
     97          6           0        4.923893   -1.729400    4.593475
     98          6           0        5.021311   -2.051876    3.183997
     99          6           0        5.838676    0.509765    5.780949
    100          6           0        4.343322   -2.591999    5.672856
    101          8           0        4.066228   -3.827142    5.471684
    102          6           0        4.195862   -1.973219    6.998322
    103          7           0        5.178151   -3.057197    0.299309
    104          6           0        5.001897   -3.834760    1.382014
    105          6           0        4.757101   -5.271740    0.987586
    106          6           0        4.564490   -5.254672   -0.599924
    107          6           0        4.831533   -3.757832   -0.871160
    108          6           0        5.863544   -6.260199    1.355143
    109          6           0        3.259073   -5.885453   -1.157306
    110          6           0        2.067050   -5.050078   -0.749146
    111          7           0        5.218539   -0.924883   -1.697942
    112          6           0        5.125959   -2.021286   -2.583039
    113          6           0        5.312214   -1.493937   -3.950383
    114          6           0        5.524851   -0.119877   -3.762668
    115          6           0        5.494752    0.184178   -2.374812
    116          6           0        5.320846   -2.266423   -5.145916
    117          6           0        5.778503    1.140782   -4.422291
    118          8           0        5.821388    1.515205   -5.593482
    119          6           0        6.192720    2.211801   -3.323315
    120          6           0        5.400966    3.465686   -3.575093
    121          8           0        4.164644    3.470242   -3.440572
    122          8           0        6.248674    4.500493   -3.719789
    123          6           0        5.510111    5.768706   -3.960566
    124          1           0        7.162238    1.617914    3.523312
    125          1           0        4.737075   -4.133458    3.295658
    126          1           0        4.782485   -3.964151   -2.981597
    127          1           0        7.509083    3.739713   -0.920995
    128          1           0        7.295108    3.619758    1.885592
    129          1           0        9.215814    2.401793   -0.055450
    130          1           0        8.992034    1.482072    1.447335
    131          1           0        9.549799    3.123720    1.563735
    132          1           0        5.157433    4.120388    0.947316
    133          1           0        4.858498    4.195462   -0.827558
    134          1           0        7.042876    5.920325   -0.226864
    135          1           0        6.010044    6.013903    1.154936
    136          1           0        6.450634    1.373017    5.491664
    137          1           0        6.477260   -0.058594    6.465821
    138          1           0        4.932587    0.811305    6.310814
    139          1           0        5.167775   -1.633828    7.348569
    140          1           0        3.682349   -2.715871    7.612033
    141          1           0        3.567617   -1.080900    6.899917
    142          1           0        3.852367   -5.650187    1.447297
    143          1           0        5.360628   -5.813918   -1.112997
    144          1           0        5.508754   -7.098403    1.984118
    145          1           0        6.653954   -5.717064    1.855928
    146          1           0        6.387190   -6.702660    0.509428
    147          1           0        3.104395   -6.878013   -0.727123
    148          1           0        3.260574   -5.998750   -2.236265
    149          1           0        1.850782   -5.406356    0.262470
    150          1           0        1.227506   -5.227952   -1.418152
    151          1           0        2.336250   -3.990047   -0.674788
    152          1           0        4.736154   -1.719956   -5.873931
    153          1           0        4.917736   -3.262997   -4.978257
    154          1           0        6.393412   -2.287590   -5.356709
    155          1           0        7.266269    2.379629   -3.417695
    156          1           0        5.897297    6.191901   -4.892600
    157          1           0        5.641555    6.370098   -3.041438
    158          1           0        4.452031    5.697857   -4.183956
 ---------------------------------------------------------------------

 SCF Done:  E(RCAM-B3LYP) =  -4069.81171530     A.U. after   19 cycles

 Excitation energies and oscillator strengths:

 Excited State   1:      Singlet-A      1.6566 eV  748.43 nm  f=0.0050  <S**2>=0.000
     309 -> 315       -0.11343
     310 -> 316        0.12511
     311 -> 313        0.51036
     312 -> 314       -0.46010
 This state for optimization and/or second-order correction.
 Total Energy, E(TD-HF/TD-DFT) =  -4069.75083634
 Copying the excited state density for this state as the 1-particle RhoCI density.

 Excited State   2:      Singlet-A      1.6955 eV  731.27 nm  f=0.7188  <S**2>=0.000
     309 -> 315        0.13321
     310 -> 316        0.11941
     311 -> 313        0.45855
     312 -> 314        0.50850

 Excited State   3:      Singlet-A      2.1830 eV  567.96 nm  f=0.0248  <S**2>=0.000
     309 -> 314        0.27107
     310 -> 313        0.58379
     311 -> 316       -0.24566
     312 -> 315       -0.11337

 Excited State   4:      Singlet-A      2.1931 eV  565.33 nm  f=0.1590  <S**2>=0.000
     309 -> 314        0.58066
     310 -> 313       -0.26857
     311 -> 316        0.11790
     312 -> 315       -0.25359

 Excited State   5:      Singlet-A      2.5776 eV  481.01 nm  f=0.0000  <S**2>=0.000
     312 -> 313        0.70710

 The electronic state is 1-A.
 Alpha  occ. eigenvalues --  -46.87613 -46.87512 -19.26254 -19.26161 -19.19049
 Alpha  occ. eigenvalues --  -19.18880 -19.18692 -19.18630 -19.17994 -19.17909
 Alpha  occ. eigenvalues --  -14.42358 -14.42274 -14.41267 -14.41210 -14.39227
 Alpha  occ. eigenvalues --  -14.39212 -14.38445 -14.38397 -10.38978 -10.38939
 Alpha  occ. eigenvalues --  -10.35329 -10.35312 -10.34215 -10.34087 -10.31687
 Alpha  occ. eigenvalues --  -10.31585 -10.31223 -10.31162 -10.30900 -10.30749
 Alpha  occ. eigenvalues --  -10.30381 -10.30324 -10.30250 -10.30206 -10.30029
 Alpha  occ. eigenvalues --  -10.29998 -10.29740 -10.29733 -10.29451 -10.29298
 Alpha  occ. eigenvalues --  -10.29257 -10.29079 -10.28607 -10.28601 -10.28571
 Alpha  occ. eigenvalues --  -10.28422 -10.28268 -10.28193 -10.28022 -10.27962
 Alpha  occ. eigenvalues --  -10.27856 -10.27612 -10.27550 -10.27529 -10.27414
 Alpha  occ. eigenvalues --  -10.27357 -10.27350 -10.27346 -10.27332 -10.27331
 Alpha  occ. eigenvalues --  -10.27302 -10.27272 -10.27232 -10.27231 -10.26999
 Alpha  occ. eigenvalues --  -10.26924 -10.26588 -10.26565 -10.26377 -10.26329
 Alpha  occ. eigenvalues --  -10.26092 -10.25935 -10.25919 -10.25914 -10.25825
 Alpha  occ. eigenvalues --  -10.25772 -10.25646 -10.25609 -10.25290 -10.25288
 Alpha  occ. eigenvalues --  -10.24725 -10.24650 -10.24614 -10.24551 -10.24426
 Alpha  occ. eigenvalues --  -10.24366  -3.16356  -3.16262  -1.91237  -1.91144
 Alpha  occ. eigenvalues --   -1.90824  -1.90733  -1.90666  -1.90570  -1.16544
 Alpha  occ. eigenvalues --   -1.16506  -1.08517  -1.08452  -1.07097  -1.06887
 Alpha  occ. eigenvalues --   -1.06834  -1.06503  -1.04407  -1.04357  -1.03581
 Alpha  occ. eigenvalues --   -1.03521  -1.03052  -1.02890  -1.02230  -1.01964
 Alpha  occ. eigenvalues --   -0.91848  -0.91799  -0.89330  -0.89320  -0.89032
 Alpha  occ. eigenvalues --   -0.89030  -0.88096  -0.88060  -0.87672  -0.87630
 Alpha  occ. eigenvalues --   -0.87544  -0.87500  -0.87120  -0.87006  -0.84879
 Alpha  occ. eigenvalues --   -0.84827  -0.83736  -0.83706  -0.82827  -0.82826
 Alpha  occ. eigenvalues --   -0.82535  -0.82496  -0.81472  -0.81431  -0.80436
 Alpha  occ. eigenvalues --   -0.80318  -0.78628  -0.78501  -0.77039  -0.77006
 Alpha  occ. eigenvalues --   -0.76774  -0.76765  -0.75765  -0.75714  -0.74723
 Alpha  occ. eigenvalues --   -0.74660  -0.72589  -0.72547  -0.71506  -0.71449
 Alpha  occ. eigenvalues --   -0.69685  -0.69563  -0.68715  -0.68704  -0.67475
 Alpha  occ. eigenvalues --   -0.67471  -0.67093  -0.67076  -0.65147  -0.65125
 Alpha  occ. eigenvalues --   -0.64682  -0.64628  -0.64524  -0.64453  -0.64077
 Alpha  occ. eigenvalues --   -0.64042  -0.62155  -0.62146  -0.60280  -0.60214
 Alpha  occ. eigenvalues --   -0.59669  -0.59641  -0.58851  -0.58812  -0.58331
 Alpha  occ. eigenvalues --   -0.58287  -0.57424  -0.57422  -0.57137  -0.57098
 Alpha  occ. eigenvalues --   -0.56138  -0.56065  -0.55840  -0.55775  -0.55367
 Alpha  occ. eigenvalues --   -0.55342  -0.55158  -0.55098  -0.54350  -0.54340
 Alpha  occ. eigenvalues --   -0.53795  -0.53742  -0.53138  -0.53098  -0.53067
 Alpha  occ. eigenvalues --   -0.53019  -0.52776  -0.52754  -0.52617  -0.52575
 Alpha  occ. eigenvalues --   -0.52206  -0.52191  -0.51706  -0.51705  -0.51548
 Alpha  occ. eigenvalues --   -0.51468  -0.51053  -0.51015  -0.50436  -0.50374
 Alpha  occ. eigenvalues --   -0.49860  -0.49841  -0.49767  -0.49710  -0.49380
 Alpha  occ. eigenvalues --   -0.49367  -0.49081  -0.49052  -0.48975  -0.48939
 Alpha  occ. eigenvalues --   -0.48433  -0.48431  -0.48313  -0.48282  -0.48241
 Alpha  occ. eigenvalues --   -0.48230  -0.47535  -0.47469  -0.47138  -0.46996
 Alpha  occ. eigenvalues --   -0.46612  -0.46561  -0.46435  -0.46405  -0.46179
 Alpha  occ. eigenvalues --   -0.46124  -0.45984  -0.45941  -0.45680  -0.45648
 Alpha  occ. eigenvalues --   -0.45061  -0.45022  -0.44414  -0.44395  -0.44343
 Alpha  occ. eigenvalues --   -0.44334  -0.44007  -0.43968  -0.43927  -0.43915
 Alpha  occ. eigenvalues --   -0.43859  -0.43829  -0.43422  -0.43332  -0.43258
 Alpha  occ. eigenvalues --   -0.43218  -0.42855  -0.42813  -0.42763  -0.42555
 Alpha  occ. eigenvalues --   -0.42451  -0.42389  -0.41808  -0.41792  -0.41532
 Alpha  occ. eigenvalues --   -0.41531  -0.41375  -0.41323  -0.40977  -0.40860
 Alpha  occ. eigenvalues --   -0.40715  -0.40679  -0.40630  -0.40568  -0.40380
 Alpha  occ. eigenvalues --   -0.40330  -0.40127  -0.40094  -0.39221  -0.39208
 Alpha  occ. eigenvalues --   -0.38285  -0.38201  -0.37599  -0.37540  -0.37134
 Alpha  occ. eigenvalues --   -0.37115  -0.37102  -0.37070  -0.36654  -0.36561
 Alpha  occ. eigenvalues --   -0.36075  -0.36024  -0.34108  -0.34105  -0.33744
 Alpha  occ. eigenvalues --   -0.33623  -0.33031  -0.33008  -0.31221  -0.31189
 Alpha  occ. eigenvalues --   -0.30863  -0.30836  -0.29853  -0.29813  -0.29280
 Alpha  occ. eigenvalues --   -0.29195  -0.29135  -0.29058  -0.23901  -0.23891
 Alpha  occ. eigenvalues --   -0.20972  -0.20946
 Alpha virt. eigenvalues --   -0.08651  -0.08598  -0.01575  -0.01544   0.00086
 Alpha virt. eigenvalues --    0.00094   0.02353   0.02381   0.03285   0.03476
 Alpha virt. eigenvalues --    0.04857   0.04881   0.05242   0.05280   0.06279

 Mulliken charges:
               1
     1  Mg   0.839464
     2  C   -0.003069
     3  C   -0.094106
     4  C   -0.045998
     5  C   -0.063131
     6  N   -0.256750
     7  C   -0.052397
     8  C   -0.014069
     9  C   -0.087001
    10  C    0.046228
    11  C    0.104898
    12  C    0.053450
    13  C   -0.071414
    14  H    0.035096
    15  N   -0.432971
    16  C    0.168319
    17  C   -0.177364
    18  C   -0.004408
    19  C    0.148624
    20  C    0.110247
    21  C    0.011805
    22  O   -0.250419
    23  C    0.062634
    24  N   -0.341247
    25  C    0.041313
    26  C   -0.027895
    27  C   -0.024103
    28  C    0.075212
    29  C    0.076395
    30  C    0.034989
    31  C   -0.004706
    32  N   -0.310755
    33  C    0.081172
    34  C   -0.168269
    35  C    0.008400
    36  C    0.083664
    37  C    0.127066
    38  C    0.046594
    39  O   -0.188301
    40  C   -0.005587
    41  C    0.212907
    42  O   -0.256940
    43  O   -0.304783
    44  C    0.157985
    45  H   -0.018019
    46  H   -0.017452
    47  H   -0.040802
    48  H    0.000668
    49  H   -0.004149
    50  H    0.025291
    51  H    0.016380
    52  H    0.016314
    53  H    0.011715
    54  H    0.043978
    55  H    0.017707
    56  H    0.018143
    57  H    0.005842
    58  H    0.026225
    59  H    0.039390
    60  H    0.037402
    61  H    0.034447
    62  H    0.031302
    63  H    0.016154
    64  H    0.009081
    65  H    0.022504
    66  H    0.012248
    67  H    0.004535
    68  H    0.005189
    69  H    0.005456
    70  H    0.006963
    71  H    0.021953
    72  H    0.029723
    73  H    0.048841
    74  H    0.009989
    75  H    0.045413
    76  H    0.034859
    77  H    0.042773
    78  H    0.046159
    79  H    0.053000
    80  Mg   0.838544
    81  C   -0.016945
    82  C   -0.087836
    83  C   -0.045666
    84  C   -0.064040
    85  N   -0.254529
    86  C   -0.049767
    87  C   -0.015136
    88  C   -0.090501
    89  C    0.045653
    90  C    0.114463
    91  C    0.062523
    92  C   -0.077538
    93  H    0.034010
    94  N   -0.423302
    95  C    0.162783
    96  C   -0.174867
    97  C   -0.008264
    98  C    0.152018
    99  C    0.099450
   100  C    0.015016
   101  O   -0.254022
   102  C    0.061397
   103  N   -0.350186
   104  C    0.037598
   105  C   -0.019552
   106  C   -0.034948
   107  C    0.089329
   108  C    0.073912
   109  C    0.034617
   110  C   -0.007974
   111  N   -0.324411
   112  C    0.079317
   113  C   -0.161593
   114  C    0.002267
   115  C    0.096913
   116  C    0.131267
   117  C    0.042920
   118  O   -0.187657
   119  C    0.000655
   120  C    0.211271
   121  O   -0.250766
   122  O   -0.305651
   123  C    0.152282
   124  H   -0.020093
   125  H   -0.016219
   126  H   -0.039639
   127  H   -0.000889
   128  H   -0.004473
   129  H    0.022289
   130  H    0.014353
   131  H    0.015936
   132  H    0.014328
   133  H    0.037604
   134  H    0.020629
   135  H    0.019710
   136  H    0.008710
   137  H    0.025545
   138  H    0.039524
   139  H    0.038335
   140  H    0.035130
   141  H    0.033611
   142  H    0.013981
   143  H    0.012012
   144  H    0.024375
   145  H    0.011322
   146  H    0.005458
   147  H    0.004955
   148  H    0.004441
   149  H    0.008863
   150  H    0.022388
   151  H    0.030849
   152  H    0.047368
   153  H    0.009489
   154  H    0.046318
   155  H    0.034722
   156  H    0.043745
   157  H    0.049234
   158  H    0.053037
 Sum of Mulliken charges =  -0.00000

 Dipole moment (field-independent basis, Debye):
    X=             -0.0353    Y=             -0.0041    Z=              6.9806  Tot=              6.9807
 Quadrupole moment (field-independent basis, Debye-Ang):
   XX=           -466.2084   YY=           -466.1449   ZZ=           -540.3302
   XY=             26.3850   XZ=              0.0885   YZ=              0.1081

 Normal termination of Gaussian 16 at Fri Sep 10 13:18:08 2021.
