 Gaussian 16, Revision A.03,
 Gaussian 16:  ES64L-G16RevA.03 25-Dec-2016

 -----------------------------------
 #p cam-b3lyp/Def2SVP td=(nstates=5)
 -----------------------------------

 --------------------------------
 TDDFT excited states in gaussian
 --------------------------------
 Symbolic Z-matrix:
 Charge =  0 Multiplicity = 1

                         Standard orientation:
 ---------------------------------------------------------------------
 Center     Atomic      Atomic             Coordinates (Angstroms)
 Number     Number       Type             X           Y           Z
 ---------------------------------------------------------------------
      1         12           0        4.344309   -0.987906    0.517208
      2          6           0        5.149228    1.440214   -1.986500
      3          6           0        5.696751    1.146676    2.810137
      4          6           0        4.058692   -3.295920    2.673156
      5          6           0        4.112803   -3.337600   -2.046189
      6          7           0        5.271921    1.011916    0.314981
      7          6           0        5.465371    1.858089   -0.691865
      8          6           0        5.965727    3.260373   -0.232933
      9          6           0        6.622092    2.849714    1.160818
     10          6           0        5.791501    1.615712    1.466239
     11          6           0        8.086941    2.440059    1.047231
     12          6           0        4.790243    4.275757   -0.035536
     13          6           0        5.209039    5.743245    0.092696
     14          1           0        4.349894    6.769184   -0.478852
     15          7           0        4.352621   -0.905501    2.491034
     16          6           0        4.937779    0.044438    3.259469
     17          6           0        4.663822   -0.339317    4.661026
     18          6           0        4.035295   -1.689462    4.648569
     19          6           0        4.149118   -2.033264    3.254216
     20          6           0        4.947683    0.554181    5.829287
     21          6           0        3.437862   -2.539936    5.724627
     22          8           0        3.157958   -3.773653    5.539773
     23          6           0        3.268621   -1.906277    7.044807
     24          7           0        4.333161   -3.070519    0.374971
     25          6           0        4.135084   -3.834860    1.454570
     26          6           0        3.886155   -5.264105    1.073475
     27          6           0        3.713615   -5.274727   -0.513935
     28          6           0        3.990349   -3.776498   -0.791421
     29          6           0        4.979538   -6.263887    1.474672
     30          6           0        2.412516   -5.900834   -1.075675
     31          6           0        1.225227   -5.044897   -0.695131
     32          7           0        4.407249   -0.950975   -1.652059
     33          6           0        4.312510   -2.050669   -2.517144
     34          6           0        4.516683   -1.542281   -3.886057
     35          6           0        4.733895   -0.175907   -3.719661
     36          6           0        4.695554    0.144292   -2.332471
     37          6           0        4.544827   -2.328620   -5.071516
     38          6           0        5.013923    1.083929   -4.389179
     39          8           0        5.065471    1.448482   -5.564737
     40          6           0        5.414947    2.159555   -3.285533
     41          6           0        4.632997    3.413454   -3.567668
     42          8           0        3.392032    3.436330   -3.437871
     43          8           0        5.481153    4.443036   -3.713046
     44          6           0        4.768110    5.723554   -3.966019
     45          1           0        6.302715    1.627101    3.580813
     46          1           0        3.849134   -4.106256    3.374497
     47          1           0        3.970694   -3.998165   -2.903459
     48          1           0        6.718697    3.708849   -0.881261
     49          1           0        6.464818    3.610944    1.924699
     50          1           0        8.402580    2.374022    0.006111
     51          1           0        8.154333    1.463993    1.528111
     52          1           0        8.721950    3.106457    1.631573
     53          1           0        4.344906    4.123329    0.947572
     54          1           0        4.057759    4.178644   -0.837634
     55          1           0        6.242472    5.891743   -0.221746
     56          1           0        5.206943    6.007871    1.150131
     57          1           0        5.559642    1.407993    5.541092
     58          1           0        5.576523   -0.010955    6.516959
     59          1           0        4.035617    0.867018    6.337816
     60          1           0        4.239409   -1.570330    7.409854
     61          1           0        2.745830   -2.634970    7.663311
     62          1           0        2.657270   -1.010621    6.930798
     63          1           0        2.973064   -5.638419    1.534539
     64          1           0        4.510960   -5.830160   -1.008313
     65          1           0        4.617173   -7.082912    2.096441
     66          1           0        5.772607   -5.711874    1.978274
     67          1           0        5.521113   -6.708285    0.640032
     68          1           0        2.248759   -6.887132   -0.642840
     69          1           0        2.421635   -6.011873   -2.160035
     70          1           0        0.990060   -5.388566    0.311557
     71          1           0        0.391787   -5.226875   -1.374449
     72          1           0        1.499754   -3.992234   -0.624262
     73          1           0        3.965584   -1.780830   -5.814733
     74          1           0        4.129371   -3.321092   -4.898309
     75          1           0        5.615831   -2.353434   -5.271990
     76          1           0        6.489058    2.317519   -3.377487
     77          1           0        5.164392    6.133499   -4.895072
     78          1           0        4.876698    6.322590   -3.061713
     79          1           0        3.708396    5.644893   -4.211290
     80         12           0       -4.416047    1.018261    0.383272
     81          6           0       -4.923039   -1.533861   -2.088301
     82          6           0       -5.623910   -1.185008    2.690051
     83          6           0       -4.405990    3.381982    2.499912
     84          6           0       -4.343619    3.332154   -2.221794
     85          7           0       -5.146358   -1.061661    0.202151
     86          6           0       -5.234634   -1.949335   -0.776925
     87          6           0       -5.604874   -3.383714   -0.313189
     88          6           0       -6.342089   -3.008640    1.063291
     89          6           0       -5.640505   -1.685690    1.363727
     90          6           0       -7.827280   -2.734253    0.895197
     91          6           0       -4.338955   -4.276156   -0.062149
     92          6           0       -4.626500   -5.771202    0.092454
     93          1           0       -3.653127   -6.725082   -0.432074
     94          7           0       -4.468131    0.966491    2.366496
     95          6           0       -4.974370   -0.015266    3.141850
     96          6           0       -4.789846    0.433382    4.530673
     97          6           0       -4.283180    1.832494    4.508249
     98          6           0       -4.388154    2.128219    3.093463
     99          6           0       -5.011662   -0.465365    5.712397
    100          6           0       -3.798049    2.756338    5.584055
    101          8           0       -3.629504    4.008859    5.370500
    102          6           0       -3.615522    2.169007    6.919421
    103          7           0       -4.591502    3.081200    0.193944
    104          6           0       -4.501484    3.884205    1.268659
    105          6           0       -4.380265    5.332557    0.858791
    106          6           0       -4.163435    5.313991   -0.725580
    107          6           0       -4.291592    3.796149   -0.980767
    108          6           0       -5.575943    6.222261    1.198167
    109          6           0       -2.911507    6.052484   -1.273277
    110          6           0       -1.655762    5.332093   -0.837920
    111          7           0       -4.411606    0.930324   -1.775500
    112          6           0       -4.404285    2.020050   -2.673563
    113          6           0       -4.522411    1.461973   -4.036291
    114          6           0       -4.614157    0.076715   -3.833481
    115          6           0       -4.577543   -0.206960   -2.441474
    116          6           0       -4.582355    2.216362   -5.241872
    117          6           0       -4.744347   -1.209324   -4.479910
    118          8           0       -4.736255   -1.599938   -5.646563
    119          6           0       -5.077413   -2.300025   -3.372737
    120          6           0       -4.173128   -3.480878   -3.597184
    121          8           0       -2.943469   -3.373116   -3.445708
    122          8           0       -4.922730   -4.589084   -3.739854
    123          6           0       -4.070302   -5.788831   -3.953850
    124          1           0       -6.197341   -1.714261    3.451605
    125          1           0       -4.292760    4.228070    3.181666
    126          1           0       -4.229947    3.981005   -3.092858
    127          1           0       -6.287367   -3.911103   -0.968804
    128          1           0       -6.126530   -3.739216    1.838627
    129          1           0       -8.119452   -2.721223   -0.144320
    130          1           0       -8.001035   -1.767419    1.349177
    131          1           0       -8.411524   -3.450921    1.479473
    132          1           0       -3.939016   -4.057508    0.936341
    133          1           0       -3.608335   -4.126532   -0.833144
    134          1           0       -5.638484   -6.032830   -0.239789
    135          1           0       -4.621980   -6.017169    1.157114
    136          1           0       -5.539683   -1.383317    5.426119
    137          1           0       -5.708557    0.051607    6.380939
    138          1           0       -4.090196   -0.678248    6.258506
    139          1           0       -4.558284    1.748121    7.260763
    140          1           0       -3.179570    2.961880    7.530303
    141          1           0       -2.908653    1.335419    6.841345
    142          1           0       -3.519880    5.795925    1.325830
    143          1           0       -4.998686    5.793586   -1.256784
    144          1           0       -5.306820    7.096258    1.820884
    145          1           0       -6.321972    5.616496    1.695186
    146          1           0       -6.124458    6.605991    0.339634
    147          1           0       -2.852524    7.059935   -0.854091
    148          1           0       -2.907145    6.152403   -2.353549
    149          1           0       -1.487194    5.718274    0.171802
    150          1           0       -0.825663    5.576489   -1.497652
    151          1           0       -1.830233    4.253185   -0.753337
    152          1           0       -3.940445    1.715849   -5.954579
    153          1           0       -4.272439    3.246942   -5.081806
    154          1           0       -5.649271    2.138903   -5.467578
    155          1           0       -6.130143   -2.564419   -3.479584
    156          1           0       -4.404281   -6.256009   -4.885451
    157          1           0       -4.161067   -6.388637   -3.028785
    158          1           0       -3.019603   -5.626168   -4.163650
 ---------------------------------------------------------------------

 SCF Done:  E(RCAM-B3LYP) =  -4069.81173618     A.U. after   19 cycles

 Excitation energies and oscillator strengths:

 Excited State   1:      Singlet-A      1.6468 eV  752.87 nm  f=0.0039  <S**2>=0.000
     309 -> 316        0.12094
     310 -> 315       -0.11373
     311 -> 313        0.50227
     312 -> 314       -0.46975
 This state for optimization and/or second-order correction.
 Total Energy, E(TD-HF/TD-DFT) =  -4069.75121660
 Copying the excited state density for this state as the 1-particle RhoCI density.

 Excited State   2:      Singlet-A      1.7022 eV  728.37 nm  f=0.7003  <S**2>=0.000
     309 -> 316        0.12205
     310 -> 315        0.13125
     311 -> 313        0.46748
     312 -> 314        0.49966

 Excited State   3:      Singlet-A      2.1809 eV  568.51 nm  f=0.0136  <S**2>=0.000
     309 -> 313        0.55158
     310 -> 314        0.33289
     311 -> 316       -0.22946
     312 -> 315       -0.13767

 Excited State   4:      Singlet-A      2.1938 eV  565.14 nm  f=0.1637  <S**2>=0.000
     309 -> 313       -0.32927
     310 -> 314        0.54736
     311 -> 316        0.14452
     312 -> 315       -0.23950

 Excited State   5:      Singlet-A      2.4643 eV  503.11 nm  f=0.0000  <S**2>=0.000
     312 -> 313        0.70709

 The electronic state is 1-A.
 Alpha  occ. eigenvalues --  -46.87562 -46.87484 -19.26297 -19.26140 -19.19091
 Alpha  occ. eigenvalues --  -19.18853 -19.18680 -19.18622 -19.17944 -19.17888
 Alpha  occ. eigenvalues --  -14.42331 -14.42223 -14.41216 -14.41181 -14.39185
 Alpha  occ. eigenvalues --  -14.39180 -14.38412 -14.38338 -10.39010 -10.38910
 Alpha  occ. eigenvalues --  -10.35321 -10.35305 -10.34165 -10.34068 -10.31759
 Alpha  occ. eigenvalues --  -10.31579 -10.31165 -10.31131 -10.30883 -10.30712
 Alpha  occ. eigenvalues --  -10.30320 -10.30270 -10.30220 -10.30172 -10.29982
 Alpha  occ. eigenvalues --  -10.29969 -10.29709 -10.29676 -10.29396 -10.29268
 Alpha  occ. eigenvalues --  -10.29226 -10.29030 -10.28598 -10.28592 -10.28566
 Alpha  occ. eigenvalues --  -10.28400 -10.28243 -10.28146 -10.28003 -10.27921
 Alpha  occ. eigenvalues --  -10.27825 -10.27560 -10.27498 -10.27498 -10.27367
 Alpha  occ. eigenvalues --  -10.27329 -10.27324 -10.27318 -10.27304 -10.27301
 Alpha  occ. eigenvalues --  -10.27249 -10.27231 -10.27205 -10.27183 -10.26958
 Alpha  occ. eigenvalues --  -10.26920 -10.26589 -10.26534 -10.26389 -10.26350
 Alpha  occ. eigenvalues --  -10.26054 -10.25902 -10.25872 -10.25861 -10.25761
 Alpha  occ. eigenvalues --  -10.25735 -10.25589 -10.25513 -10.25267 -10.25263
 Alpha  occ. eigenvalues --  -10.24693 -10.24594 -10.24568 -10.24524 -10.24362
 Alpha  occ. eigenvalues --  -10.24228  -3.16304  -3.16233  -1.91185  -1.91115
 Alpha  occ. eigenvalues --   -1.90772  -1.90704  -1.90614  -1.90541  -1.16585
 Alpha  occ. eigenvalues --   -1.16484  -1.08499  -1.08402  -1.07089  -1.06881
 Alpha  occ. eigenvalues --   -1.06869  -1.06476  -1.04358  -1.04332  -1.03531
 Alpha  occ. eigenvalues --   -1.03493  -1.02999  -1.02860  -1.02177  -1.01934
 Alpha  occ. eigenvalues --   -0.91827  -0.91750  -0.89299  -0.89261  -0.89014
 Alpha  occ. eigenvalues --   -0.88991  -0.88042  -0.88029  -0.87605  -0.87593
 Alpha  occ. eigenvalues --   -0.87516  -0.87450  -0.87087  -0.86985  -0.84865
 Alpha  occ. eigenvalues --   -0.84787  -0.83677  -0.83677  -0.82815  -0.82806
 Alpha  occ. eigenvalues --   -0.82524  -0.82458  -0.81475  -0.81392  -0.80395
 Alpha  occ. eigenvalues --   -0.80308  -0.78583  -0.78474  -0.76987  -0.76984
 Alpha  occ. eigenvalues --   -0.76756  -0.76731  -0.75722  -0.75704  -0.74675
 Alpha  occ. eigenvalues --   -0.74638  -0.72532  -0.72516  -0.71461  -0.71428
 Alpha  occ. eigenvalues --   -0.69613  -0.69526  -0.68689  -0.68675  -0.67451
 Alpha  occ. eigenvalues --   -0.67433  -0.67085  -0.67045  -0.65135  -0.65083
 Alpha  occ. eigenvalues --   -0.64634  -0.64610  -0.64512  -0.64407  -0.64021
 Alpha  occ. eigenvalues --   -0.64014  -0.62162  -0.62109  -0.60242  -0.60192
 Alpha  occ. eigenvalues --   -0.59649  -0.59597  -0.58828  -0.58762  -0.58284
 Alpha  occ. eigenvalues --   -0.58269  -0.57422  -0.57379  -0.57093  -0.57076
 Alpha  occ. eigenvalues --   -0.56091  -0.56044  -0.55811  -0.55787  -0.55335
 Alpha  occ. eigenvalues --   -0.55333  -0.55108  -0.55083  -0.54331  -0.54303
 Alpha  occ. eigenvalues --   -0.53783  -0.53703  -0.53106  -0.53082  -0.53022
 Alpha  occ. eigenvalues --   -0.53004  -0.52772  -0.52716  -0.52592  -0.52567
 Alpha  occ. eigenvalues --   -0.52150  -0.52127  -0.51663  -0.51631  -0.51538
 Alpha  occ. eigenvalues --   -0.51431  -0.51033  -0.50962  -0.50417  -0.50359
 Alpha  occ. eigenvalues --   -0.49845  -0.49793  -0.49728  -0.49679  -0.49370
 Alpha  occ. eigenvalues --   -0.49334  -0.49070  -0.49011  -0.48957  -0.48896
 Alpha  occ. eigenvalues --   -0.48425  -0.48389  -0.48289  -0.48236  -0.48228
 Alpha  occ. eigenvalues --   -0.48211  -0.47496  -0.47455  -0.47099  -0.46977
 Alpha  occ. eigenvalues --   -0.46557  -0.46538  -0.46422  -0.46369  -0.46126
 Alpha  occ. eigenvalues --   -0.46101  -0.45932  -0.45920  -0.45666  -0.45594
 Alpha  occ. eigenvalues --   -0.45036  -0.44972  -0.44385  -0.44378  -0.44312
 Alpha  occ. eigenvalues --   -0.44295  -0.43996  -0.43930  -0.43886  -0.43876
 Alpha  occ. eigenvalues --   -0.43821  -0.43812  -0.43426  -0.43288  -0.43243
 Alpha  occ. eigenvalues --   -0.43173  -0.42827  -0.42808  -0.42741  -0.42526
 Alpha  occ. eigenvalues --   -0.42385  -0.42358  -0.41764  -0.41741  -0.41510
 Alpha  occ. eigenvalues --   -0.41486  -0.41333  -0.41306  -0.40935  -0.40838
 Alpha  occ. eigenvalues --   -0.40696  -0.40636  -0.40625  -0.40551  -0.40324
 Alpha  occ. eigenvalues --   -0.40299  -0.40122  -0.40064  -0.39182  -0.39131
 Alpha  occ. eigenvalues --   -0.38234  -0.38176  -0.37564  -0.37538  -0.37090
 Alpha  occ. eigenvalues --   -0.37081  -0.37059  -0.37050  -0.36677  -0.36527
 Alpha  occ. eigenvalues --   -0.36060  -0.35979  -0.34082  -0.34052  -0.33770
 Alpha  occ. eigenvalues --   -0.33592  -0.33003  -0.32955  -0.31210  -0.31181
 Alpha  occ. eigenvalues --   -0.30816  -0.30813  -0.29803  -0.29793  -0.29236
 Alpha  occ. eigenvalues --   -0.29170  -0.29075  -0.29024  -0.23863  -0.23848
 Alpha  occ. eigenvalues --   -0.20941  -0.20892
 Alpha virt. eigenvalues --   -0.08622  -0.08548  -0.01527  -0.01517   0.00104
 Alpha virt. eigenvalues --    0.00127   0.02377   0.02432   0.02975   0.03873
 Alpha virt. eigenvalues --    0.04853   0.04926   0.05237   0.05272   0.06160

 Mulliken charges:
               1
     1  Mg   0.839492
     2  C   -0.003234
     3  C   -0.094090
     4  C   -0.046179
     5  C   -0.061834
     6  N   -0.256768
     7  C   -0.052352
     8  C   -0.014099
     9  C   -0.086974
    10  C    0.046095
    11  C    0.104932
    12  C    0.053400
    13  C   -0.071239
    14  H    0.034628
    15  N   -0.432870
    16  C    0.168116
    17  C   -0.177569
    18  C   -0.004768
    19  C    0.148438
    20  C    0.110306
    21  C    0.011304
    22  O   -0.250940
    23  C    0.062850
    24  N   -0.341292
    25  C    0.041289
    26  C   -0.027675
    27  C   -0.024036
    28  C    0.075317
    29  C    0.076501
    30  C    0.034724
    31  C   -0.005396
    32  N   -0.311078
    33  C    0.082052
    34  C   -0.166777
    35  C    0.008357
    36  C    0.084189
    37  C    0.126996
    38  C    0.046905
    39  O   -0.188242
    40  C   -0.005740
    41  C    0.212927
    42  O   -0.256970
    43  O   -0.304737
    44  C    0.158144
    45  H   -0.018219
    46  H   -0.017890
    47  H   -0.040327
    48  H    0.000574
    49  H   -0.004203
    50  H    0.025198
    51  H    0.016357
    52  H    0.016177
    53  H    0.011936
    54  H    0.043846
    55  H    0.017672
    56  H    0.018266
    57  H    0.005889
    58  H    0.025962
    59  H    0.039004
    60  H    0.037645
    61  H    0.033819
    62  H    0.030615
    63  H    0.015652
    64  H    0.008798
    65  H    0.022045
    66  H    0.012196
    67  H    0.004407
    68  H    0.003747
    69  H    0.005726
    70  H    0.004611
    71  H    0.025590
    72  H    0.031120
    73  H    0.049740
    74  H    0.010618
    75  H    0.044940
    76  H    0.034738
    77  H    0.042747
    78  H    0.046097
    79  H    0.052515
    80  Mg   0.838644
    81  C   -0.017142
    82  C   -0.087569
    83  C   -0.045767
    84  C   -0.063401
    85  N   -0.254548
    86  C   -0.049741
    87  C   -0.015281
    88  C   -0.090488
    89  C    0.045533
    90  C    0.114479
    91  C    0.062060
    92  C   -0.077098
    93  H    0.032566
    94  N   -0.423313
    95  C    0.162708
    96  C   -0.174915
    97  C   -0.008500
    98  C    0.151934
    99  C    0.099518
   100  C    0.014694
   101  O   -0.254206
   102  C    0.061562
   103  N   -0.350257
   104  C    0.037610
   105  C   -0.019491
   106  C   -0.034995
   107  C    0.089393
   108  C    0.073958
   109  C    0.034558
   110  C   -0.007754
   111  N   -0.324624
   112  C    0.079899
   113  C   -0.160563
   114  C    0.002282
   115  C    0.097335
   116  C    0.131218
   117  C    0.043210
   118  O   -0.187707
   119  C    0.000428
   120  C    0.211347
   121  O   -0.251079
   122  O   -0.305394
   123  C    0.152418
   124  H   -0.020129
   125  H   -0.016389
   126  H   -0.039362
   127  H   -0.001048
   128  H   -0.004338
   129  H    0.022193
   130  H    0.014389
   131  H    0.015901
   132  H    0.015079
   133  H    0.037514
   134  H    0.020689
   135  H    0.020240
   136  H    0.008899
   137  H    0.025362
   138  H    0.039499
   139  H    0.038540
   140  H    0.034821
   141  H    0.032996
   142  H    0.013801
   143  H    0.011912
   144  H    0.024222
   145  H    0.011280
   146  H    0.005409
   147  H    0.004449
   148  H    0.004596
   149  H    0.007856
   150  H    0.023010
   151  H    0.031845
   152  H    0.048028
   153  H    0.009791
   154  H    0.046009
   155  H    0.034696
   156  H    0.043967
   157  H    0.049161
   158  H    0.051882
 Sum of Mulliken charges =  -0.00000

 Dipole moment (field-independent basis, Debye):
    X=              0.0443    Y=             -0.1534    Z=              6.6964  Tot=              6.6983
 Quadrupole moment (field-independent basis, Debye-Ang):
   XX=           -475.1978   YY=           -466.4265   ZZ=           -540.4899
   XY=             23.6522   XZ=              3.8617   YZ=             -0.9918

 Normal termination of Gaussian 16 at Thu Sep  9 17:40:40 2021.
