 Gaussian 16, Revision A.03,
 Gaussian 16:  ES64L-G16RevA.03 25-Dec-2016

 -----------------------------------
 #p cam-b3lyp/Def2SVP td=(nstates=5)
 -----------------------------------

 --------------------------------
 TDDFT excited states in gaussian
 --------------------------------
 Symbolic Z-matrix:
 Charge =  0 Multiplicity = 1

                         Standard orientation:
 ---------------------------------------------------------------------
 Center     Atomic      Atomic             Coordinates (Angstroms)
 Number     Number       Type             X           Y           Z
 ---------------------------------------------------------------------
      1         12           0        5.031568    0.705263   -0.108889
      2          6           0        5.406903   -2.524666   -1.605185
      3          6           0        5.839608    2.040512   -3.143234
      4          6           0        5.151456    3.546282    1.294982
      5          6           0        5.373292   -0.853314    2.989453
      6          7           0        5.536407   -0.227120   -2.052197
      7          6           0        5.586612   -1.474703   -2.508473
      8          6           0        5.773372   -1.560675   -4.052851
      9          6           0        6.452163   -0.140018   -4.303798
     10          6           0        5.881930    0.614855   -3.115974
     11          6           0        7.972849   -0.162304   -4.187536
     12          6           0        4.408884   -1.685530   -4.810687
     13          6           0        4.513747   -2.100286   -6.281175
     14          1           0        3.482679   -2.960807   -6.841309
     15          7           0        4.955755    2.521173   -0.883209
     16          6           0        5.307567    2.880516   -2.141139
     17          6           0        5.070518    4.337416   -2.230194
     18          6           0        4.732532    4.827706   -0.865102
     19          6           0        4.961649    3.640643   -0.081671
     20          6           0        5.125564    5.102894   -3.516570
     21          6           0        4.285669    6.158198   -0.347187
     22          8           0        4.270734    6.431870    0.901594
     23          6           0        3.945515    7.176023   -1.357816
     24          7           0        5.451895    1.306939    1.845323
     25          6           0        5.377936    2.593880    2.202111
     26          6           0        5.440004    2.751740    3.692469
     27          6           0        5.327338    1.278563    4.298118
     28          6           0        5.300725    0.479537    2.971800
     29          6           0        6.700644    3.434104    4.241265
     30          6           0        4.201848    1.027871    5.332935
     31          6           0        2.852234    1.130936    4.658386
     32          7           0        5.159291   -1.338376    0.611022
     33          6           0        5.321165   -1.755540    1.940099
     34          6           0        5.463322   -3.222977    1.918007
     35          6           0        5.390395   -3.558081    0.567366
     36          6           0        5.240193   -2.372513   -0.207334
     37          6           0        5.692133   -4.055198    3.049152
     38          6           0        5.429136   -4.639707   -0.403428
     39          8           0        5.444869   -5.869367   -0.331453
     40          6           0        5.563699   -4.003683   -1.857111
     41          6           0        4.551638   -4.677187   -2.743357
     42          8           0        3.328599   -4.512644   -2.557705
     43          8           0        5.175468   -5.211098   -3.804638
     44          6           0        4.224370   -5.869570   -4.739508
     45          1           0        6.307825    2.566608   -3.977461
     46          1           0        5.088537    4.496284    1.829749
     47          1           0        5.398653   -1.416022    3.924423
     48          1           0        6.440156   -2.355996   -4.386449
     49          1           0        6.116500    0.312262   -5.236802
     50          1           0        8.330515   -1.125392   -3.823589
     51          1           0        8.222274    0.628577   -3.479872
     52          1           0        8.437735    0.122830   -5.131653
     53          1           0        3.971045   -0.694302   -4.928271
     54          1           0        3.739488   -2.370907   -4.289637
     55          1           0        5.504960   -2.489295   -6.515865
     56          1           0        4.421584   -1.204907   -6.895994
     57          1           0        5.559180    4.507187   -4.318851
     58          1           0        5.833050    5.919041   -3.371393
     59          1           0        4.152026    5.505702   -3.796395
     60          1           0        4.813978    7.358765   -1.991004
     61          1           0        3.562284    8.032738   -0.804623
     62          1           0        3.167971    6.778942   -2.011040
     63          1           0        4.607765    3.352460    4.057078
     64          1           0        6.237841    0.979247    4.817798
     65          1           0        6.492729    4.319090    4.843160
     66          1           0        7.346311    3.677550    3.397975
     67          1           0        7.349775    2.788104    4.831798
     68          1           0        4.228885    1.786991    6.113929
     69          1           0        4.270351    0.052885    5.815594
     70          1           0        2.658343    2.202944    4.664352
     71          1           0        2.097284    0.594432    5.234082
     72          1           0        2.902851    0.814751    3.616296
     73          1           0        5.038602   -4.919209    2.929351
     74          1           0        5.483037   -3.526228    3.978707
     75          1           0        6.751710   -4.278114    2.924809
     76          1           0        6.585205   -4.189709   -2.187327
     77          1           0        4.559662   -6.899019   -4.866191
     78          1           0        4.177217   -5.239812   -5.628094
     79          1           0        3.212170   -6.027364   -4.365487
     80         12           0       -5.527313    0.148589   -0.118425
     81          6           0       -3.885466   -1.350142    2.698868
     82          6           0       -4.766194    3.182663    1.241619
     83          6           0       -7.348782    1.491296   -2.342584
     84          6           0       -7.118225   -2.907820   -0.640971
     85          7           0       -4.459633    0.713636    1.734418
     86          6           0       -3.826019    0.059072    2.695882
     87          6           0       -3.019699    0.963414    3.666239
     88          6           0       -3.834768    2.330696    3.453935
     89          6           0       -4.361784    2.084333    2.041758
     90          6           0       -5.023868    2.473921    4.389276
     91          6           0       -1.519238    1.116013    3.233386
     92          6           0       -0.602672    1.727831    4.295148
     93          1           0        0.773435    1.247855    4.386947
     94          7           0       -5.587274    2.022064   -0.770417
     95          6           0       -5.218697    3.130847   -0.095127
     96          6           0       -5.474412    4.259040   -1.003954
     97          6           0       -6.177698    3.740762   -2.208733
     98          6           0       -6.422390    2.371406   -1.802430
     99          6           0       -4.991075    5.652942   -0.726737
    100          6           0       -6.576783    4.376322   -3.506030
    101          8           0       -7.390201    3.803649   -4.314256
    102          6           0       -6.060693    5.729484   -3.759241
    103          7           0       -7.174314   -0.529793   -1.190578
    104          6           0       -7.746808    0.235806   -2.136124
    105          6           0       -8.731286   -0.559640   -2.959810
    106          6           0       -8.521938   -2.084391   -2.525218
    107          6           0       -7.468954   -1.888086   -1.412528
    108          6           0      -10.201859   -0.179354   -2.789021
    109          6           0       -8.219548   -3.103771   -3.657517
    110          6           0       -6.859916   -2.822544   -4.255593
    111          7           0       -5.389437   -1.839412    0.716376
    112          6           0       -6.167109   -2.965947    0.369673
    113          6           0       -5.786479   -4.057517    1.289473
    114          6           0       -4.822668   -3.478966    2.129023
    115          6           0       -4.631807   -2.116869    1.771583
    116          6           0       -6.349402   -5.364782    1.307133
    117          6           0       -3.931071   -3.707824    3.243186
    118          8           0       -3.597290   -4.692799    3.900573
    119          6           0       -3.376571   -2.304645    3.743177
    120          6           0       -1.887163   -2.427777    3.913557
    121          8           0       -1.152464   -2.623564    2.929445
    122          8           0       -1.557144   -2.079324    5.170561
    123          6           0       -0.088581   -2.174727    5.385123
    124          1           0       -4.778902    4.175668    1.691810
    125          1           0       -7.925221    1.873763   -3.188099
    126          1           0       -7.497570   -3.919176   -0.801981
    127          1           0       -3.060936    0.663655    4.706536
    128          1           0       -3.171987    3.192001    3.468712
    129          1           0       -5.194931    1.575760    4.963908
    130          1           0       -5.874238    2.684270    3.753929
    131          1           0       -4.898529    3.354171    5.026284
    132          1           0       -1.447522    1.887616    2.456063
    133          1           0       -1.118744    0.175296    2.908911
    134          1           0       -1.071866    1.741441    5.286416
    135          1           0       -0.450749    2.783173    4.056021
    136          1           0       -4.650371    5.761761    0.310316
    137          1           0       -5.862148    6.313351   -0.797177
    138          1           0       -4.235768    5.986777   -1.441390
    139          1           0       -6.386824    6.395119   -2.963614
    140          1           0       -6.380084    5.979121   -4.772923
    141          1           0       -4.966198    5.700204   -3.716239
    142          1           0       -8.517709   -0.463136   -4.017254
    143          1           0       -9.418835   -2.496567   -2.039911
    144          1           0      -10.693259    0.101663   -3.739615
    145          1           0      -10.264167    0.630860   -2.074727
    146          1           0      -10.825689   -0.942831   -2.327359
    147          1           0       -8.943883   -2.994914   -4.468464
    148          1           0       -8.256304   -4.137229   -3.329455
    149          1           0       -7.067570   -2.026817   -4.977245
    150          1           0       -6.467250   -3.709688   -4.748361
    151          1           0       -6.175579   -2.414433   -3.502742
    152          1           0       -5.525826   -6.056873    1.422122
    153          1           0       -6.915324   -5.566246    0.399994
    154          1           0       -6.995791   -5.286931    2.185420
    155          1           0       -3.878129   -2.070188    4.682888
    156          1           0        0.066585   -2.834790    6.244140
    157          1           0        0.267785   -1.131808    5.480392
    158          1           0        0.497549   -2.676582    4.624180
 ---------------------------------------------------------------------

 SCF Done:  E(RCAM-B3LYP) =  -4069.80356761     A.U. after   19 cycles

 Excitation energies and oscillator strengths:

 Excited State   1:      Singlet-A      1.6550 eV  749.17 nm  f=0.0089  <S**2>=0.000
     309 -> 315       -0.10956
     310 -> 316        0.12688
     311 -> 313       -0.44784
     312 -> 314        0.52131
 This state for optimization and/or second-order correction.
 Total Energy, E(TD-HF/TD-DFT) =  -4069.74274915
 Copying the excited state density for this state as the 1-particle RhoCI density.

 Excited State   2:      Singlet-A      1.6974 eV  730.44 nm  f=0.7094  <S**2>=0.000
     309 -> 315        0.13581
     310 -> 316        0.11600
     311 -> 313        0.51919
     312 -> 314        0.44616

 Excited State   3:      Singlet-A      2.1821 eV  568.19 nm  f=0.0487  <S**2>=0.000
     309 -> 313        0.28726
     310 -> 314        0.57676
     311 -> 315       -0.11952
     312 -> 316       -0.24034

 Excited State   4:      Singlet-A      2.1929 eV  565.38 nm  f=0.1413  <S**2>=0.000
     309 -> 313        0.57273
     310 -> 314       -0.28465
     311 -> 315       -0.25032
     312 -> 316        0.12410

 Excited State   5:      Singlet-A      2.4848 eV  498.97 nm  f=0.0000  <S**2>=0.000
     312 -> 313        0.70687

 The electronic state is 1-A.
 Alpha  occ. eigenvalues --  -46.87827 -46.87384 -19.26163 -19.26111 -19.18919
 Alpha  occ. eigenvalues --  -19.18868 -19.18821 -19.18525 -19.18091 -19.17781
 Alpha  occ. eigenvalues --  -14.42475 -14.42189 -14.41534 -14.41098 -14.39443
 Alpha  occ. eigenvalues --  -14.39088 -14.38589 -14.38323 -10.38900 -10.38811
 Alpha  occ. eigenvalues --  -10.35555 -10.35208 -10.34308 -10.33956 -10.31748
 Alpha  occ. eigenvalues --  -10.31499 -10.31404 -10.30989 -10.30921 -10.30704
 Alpha  occ. eigenvalues --  -10.30583 -10.30553 -10.30348 -10.30133 -10.30075
 Alpha  occ. eigenvalues --  -10.30012 -10.29907 -10.29665 -10.29636 -10.29305
 Alpha  occ. eigenvalues --  -10.29191 -10.29138 -10.28709 -10.28441 -10.28365
 Alpha  occ. eigenvalues --  -10.28225 -10.28137 -10.28094 -10.27835 -10.27798
 Alpha  occ. eigenvalues --  -10.27758 -10.27746 -10.27737 -10.27708 -10.27626
 Alpha  occ. eigenvalues --  -10.27531 -10.27414 -10.27378 -10.27313 -10.27258
 Alpha  occ. eigenvalues --  -10.27215 -10.27196 -10.27195 -10.27172 -10.27078
 Alpha  occ. eigenvalues --  -10.26781 -10.26759 -10.26618 -10.26545 -10.26290
 Alpha  occ. eigenvalues --  -10.26218 -10.26128 -10.25998 -10.25948 -10.25824
 Alpha  occ. eigenvalues --  -10.25702 -10.25681 -10.25639 -10.25621 -10.25596
 Alpha  occ. eigenvalues --  -10.25222 -10.24860 -10.24815 -10.24610 -10.24536
 Alpha  occ. eigenvalues --  -10.24434  -3.16568  -3.16134  -1.91449  -1.91037
 Alpha  occ. eigenvalues --   -1.91016  -1.90878  -1.90604  -1.90442  -1.16458
 Alpha  occ. eigenvalues --   -1.16428  -1.08532  -1.08385  -1.07326  -1.06782
 Alpha  occ. eigenvalues --   -1.06668  -1.06450  -1.04600  -1.04190  -1.03832
 Alpha  occ. eigenvalues --   -1.03385  -1.03273  -1.02779  -1.02451  -1.01844
 Alpha  occ. eigenvalues --   -0.91966  -0.91711  -0.89811  -0.89256  -0.89165
 Alpha  occ. eigenvalues --   -0.88716  -0.88510  -0.87988  -0.87865  -0.87707
 Alpha  occ. eigenvalues --   -0.87520  -0.87341  -0.87333  -0.86898  -0.84997
 Alpha  occ. eigenvalues --   -0.84579  -0.84308  -0.83665  -0.83116  -0.82743
 Alpha  occ. eigenvalues --   -0.82684  -0.82319  -0.81556  -0.81359  -0.80612
 Alpha  occ. eigenvalues --   -0.80180  -0.78842  -0.78391  -0.77457  -0.76967
 Alpha  occ. eigenvalues --   -0.76850  -0.76516  -0.75916  -0.75545  -0.75092
 Alpha  occ. eigenvalues --   -0.74584  -0.72855  -0.72426  -0.71725  -0.71312
 Alpha  occ. eigenvalues --   -0.70527  -0.69541  -0.68900  -0.68453  -0.67681
 Alpha  occ. eigenvalues --   -0.67337  -0.67211  -0.66713  -0.65337  -0.64983
 Alpha  occ. eigenvalues --   -0.64883  -0.64701  -0.64515  -0.64452  -0.64331
 Alpha  occ. eigenvalues --   -0.63968  -0.62263  -0.62066  -0.60538  -0.60111
 Alpha  occ. eigenvalues --   -0.59798  -0.59426  -0.59049  -0.58720  -0.58552
 Alpha  occ. eigenvalues --   -0.58167  -0.57567  -0.57364  -0.57295  -0.57000
 Alpha  occ. eigenvalues --   -0.56346  -0.55977  -0.55900  -0.55850  -0.55611
 Alpha  occ. eigenvalues --   -0.55500  -0.55219  -0.55024  -0.54657  -0.54269
 Alpha  occ. eigenvalues --   -0.53875  -0.53521  -0.53460  -0.53266  -0.53087
 Alpha  occ. eigenvalues --   -0.52991  -0.52869  -0.52851  -0.52687  -0.52618
 Alpha  occ. eigenvalues --   -0.52383  -0.52189  -0.51900  -0.51625  -0.51601
 Alpha  occ. eigenvalues --   -0.51314  -0.51260  -0.50979  -0.50717  -0.50405
 Alpha  occ. eigenvalues --   -0.50273  -0.49980  -0.49709  -0.49633  -0.49533
 Alpha  occ. eigenvalues --   -0.49240  -0.49196  -0.49090  -0.48936  -0.48730
 Alpha  occ. eigenvalues --   -0.48685  -0.48528  -0.48484  -0.48284  -0.48159
 Alpha  occ. eigenvalues --   -0.48113  -0.47829  -0.47383  -0.47321  -0.47082
 Alpha  occ. eigenvalues --   -0.46891  -0.46579  -0.46511  -0.46434  -0.46207
 Alpha  occ. eigenvalues --   -0.46086  -0.46035  -0.45847  -0.45827  -0.45623
 Alpha  occ. eigenvalues --   -0.45431  -0.44968  -0.44776  -0.44562  -0.44332
 Alpha  occ. eigenvalues --   -0.44238  -0.44129  -0.44090  -0.44003  -0.43902
 Alpha  occ. eigenvalues --   -0.43845  -0.43673  -0.43517  -0.43454  -0.43335
 Alpha  occ. eigenvalues --   -0.43293  -0.43021  -0.42981  -0.42712  -0.42634
 Alpha  occ. eigenvalues --   -0.42565  -0.42323  -0.42216  -0.41739  -0.41642
 Alpha  occ. eigenvalues --   -0.41552  -0.41392  -0.41265  -0.41062  -0.41015
 Alpha  occ. eigenvalues --   -0.40917  -0.40795  -0.40680  -0.40648  -0.40460
 Alpha  occ. eigenvalues --   -0.40271  -0.40173  -0.39692  -0.39519  -0.39177
 Alpha  occ. eigenvalues --   -0.38682  -0.38021  -0.37745  -0.37516  -0.37245
 Alpha  occ. eigenvalues --   -0.37103  -0.36967  -0.36859  -0.36559  -0.36259
 Alpha  occ. eigenvalues --   -0.36012  -0.35227  -0.34313  -0.33958  -0.33619
 Alpha  occ. eigenvalues --   -0.33568  -0.33193  -0.32904  -0.31450  -0.31083
 Alpha  occ. eigenvalues --   -0.31066  -0.30697  -0.29945  -0.29682  -0.29487
 Alpha  occ. eigenvalues --   -0.29302  -0.29081  -0.28945  -0.24116  -0.23763
 Alpha  occ. eigenvalues --   -0.21173  -0.20842
 Alpha virt. eigenvalues --   -0.08808  -0.08530  -0.01820  -0.01420  -0.00096
 Alpha virt. eigenvalues --    0.00221   0.02197   0.02473   0.03109   0.03550
 Alpha virt. eigenvalues --    0.04694   0.05197   0.05255   0.05436   0.06223

 Mulliken charges:
               1
     1  Mg   0.841164
     2  C   -0.001453
     3  C   -0.093473
     4  C   -0.046717
     5  C   -0.065624
     6  N   -0.256479
     7  C   -0.051920
     8  C   -0.014161
     9  C   -0.087063
    10  C    0.046264
    11  C    0.104815
    12  C    0.053403
    13  C   -0.071978
    14  H    0.037099
    15  N   -0.432947
    16  C    0.168138
    17  C   -0.177103
    18  C   -0.004612
    19  C    0.148649
    20  C    0.110156
    21  C    0.011502
    22  O   -0.251016
    23  C    0.062747
    24  N   -0.340554
    25  C    0.040533
    26  C   -0.029267
    27  C   -0.028170
    28  C    0.073551
    29  C    0.076347
    30  C    0.085714
    31  C   -0.081990
    32  N   -0.311203
    33  C    0.082372
    34  C   -0.167684
    35  C    0.009912
    36  C    0.085274
    37  C    0.126705
    38  C    0.048430
    39  O   -0.186538
    40  C   -0.006280
    41  C    0.212662
    42  O   -0.253880
    43  O   -0.305455
    44  C    0.157414
    45  H   -0.017476
    46  H   -0.017975
    47  H   -0.043122
    48  H    0.001249
    49  H   -0.003852
    50  H    0.025592
    51  H    0.016087
    52  H    0.016718
    53  H    0.011230
    54  H    0.045646
    55  H    0.017617
    56  H    0.017701
    57  H    0.006239
    58  H    0.026603
    59  H    0.039092
    60  H    0.037877
    61  H    0.034575
    62  H    0.030939
    63  H    0.015336
    64  H    0.010982
    65  H    0.022942
    66  H    0.013709
    67  H    0.004951
    68  H    0.006514
    69  H    0.001360
    70  H    0.025007
    71  H    0.043548
    72  H    0.046201
    73  H    0.050601
    74  H    0.006946
    75  H    0.046105
    76  H    0.035009
    77  H    0.042834
    78  H    0.045879
    79  H    0.055071
    80  Mg   0.837953
    81  C   -0.016463
    82  C   -0.087610
    83  C   -0.046030
    84  C   -0.065352
    85  N   -0.255022
    86  C   -0.048310
    87  C   -0.012885
    88  C   -0.090213
    89  C    0.046168
    90  C    0.114640
    91  C    0.066970
    92  C   -0.098670
    93  H    0.047334
    94  N   -0.423261
    95  C    0.162547
    96  C   -0.175179
    97  C   -0.008580
    98  C    0.151968
    99  C    0.099570
   100  C    0.014889
   101  O   -0.254010
   102  C    0.061611
   103  N   -0.350167
   104  C    0.037342
   105  C   -0.019617
   106  C   -0.034784
   107  C    0.089172
   108  C    0.073919
   109  C    0.034858
   110  C   -0.007592
   111  N   -0.324362
   112  C    0.079120
   113  C   -0.162556
   114  C    0.002464
   115  C    0.097173
   116  C    0.131251
   117  C    0.043633
   118  O   -0.187664
   119  C    0.000340
   120  C    0.211909
   121  O   -0.247802
   122  O   -0.307060
   123  C    0.151069
   124  H   -0.019925
   125  H   -0.016446
   126  H   -0.040819
   127  H   -0.002924
   128  H   -0.003016
   129  H    0.021602
   130  H    0.013348
   131  H    0.015590
   132  H    0.010978
   133  H    0.031773
   134  H    0.010768
   135  H    0.012573
   136  H    0.009305
   137  H    0.025396
   138  H    0.038418
   139  H    0.038193
   140  H    0.035324
   141  H    0.032891
   142  H    0.013799
   143  H    0.011993
   144  H    0.024431
   145  H    0.011503
   146  H    0.005242
   147  H    0.005520
   148  H    0.003622
   149  H    0.010203
   150  H    0.017792
   151  H    0.031043
   152  H    0.046992
   153  H    0.008244
   154  H    0.046321
   155  H    0.034350
   156  H    0.042837
   157  H    0.049522
   158  H    0.055827
 Sum of Mulliken charges =  -0.00000

 Dipole moment (field-independent basis, Debye):
    X=              2.1946    Y=              6.6368    Z=             -1.8545  Tot=              7.2321
 Quadrupole moment (field-independent basis, Debye-Ang):
   XX=           -485.3877   YY=           -534.6570   ZZ=           -469.8424
   XY=             17.5487   XZ=            -17.4441   YZ=             17.4904

 Normal termination of Gaussian 16 at Fri Sep 10 15:48:51 2021.
