 Gaussian 16, Revision A.03,
 Gaussian 16:  ES64L-G16RevA.03 25-Dec-2016

 -----------------------------------
 #p cam-b3lyp/Def2SVP td=(nstates=5)
 -----------------------------------

 --------------------------------
 TDDFT excited states in gaussian
 --------------------------------
 Symbolic Z-matrix:
 Charge =  0 Multiplicity = 1

                         Standard orientation:
 ---------------------------------------------------------------------
 Center     Atomic      Atomic             Coordinates (Angstroms)
 Number     Number       Type             X           Y           Z
 ---------------------------------------------------------------------
      1         12           0        8.205478    0.388051    0.380003
      2          6           0        8.361303   -2.817008   -1.206038
      3          6           0        9.154951    1.744931   -2.603359
      4          6           0        8.515863    3.171038    1.868380
      5          6           0        8.384903   -1.279262    3.435086
      6          7           0        8.667929   -0.523798   -1.583493
      7          6           0        8.631839   -1.758149   -2.075677
      8          6           0        8.834267   -1.813864   -3.619469
      9          6           0        9.620482   -0.441396   -3.819953
     10          6           0        9.090675    0.319905   -2.617602
     11          6           0       11.133431   -0.580665   -3.685442
     12          6           0        7.475510   -1.814687   -4.397613
     13          6           0        7.570732   -2.194109   -5.878264
     14          1           0        6.486802   -2.958805   -6.476331
     15          7           0        8.276330    2.225844   -0.341348
     16          6           0        8.672277    2.593518   -1.583655
     17          6           0        8.545617    4.066011   -1.632683
     18          6           0        8.225106    4.541160   -0.258056
     19          6           0        8.353772    3.318471    0.492846
     20          6           0        8.676288    4.861525   -2.895154
     21          6           0        7.870947    5.886071    0.293232
     22          8           0        7.858141    6.124442    1.549253
     23          6           0        7.622296    6.954835   -0.691124
     24          7           0        8.640761    0.900743    2.356188
     25          6           0        8.657551    2.178934    2.749800
     26          6           0        8.709373    2.289230    4.244821
     27          6           0        8.478554    0.811970    4.805337
     28          6           0        8.411977    0.055243    3.455818
     29          6           0       10.009123    2.859493    4.829168
     30          6           0        7.322507    0.616819    5.818200
     31          6           0        5.994319    0.839700    5.130203
     32          7           0        8.170237   -1.679074    1.040908
     33          6           0        8.281153   -2.144832    2.359029
     34          6           0        8.314037   -3.617567    2.295473
     35          6           0        8.236154   -3.907703    0.934738
     36          6           0        8.185937   -2.692655    0.193502
     37          6           0        8.463712   -4.496424    3.404365
     38          6           0        8.208512   -4.961130   -0.066953
     39          8           0        8.131652   -6.190071   -0.031059
     40          6           0        8.411287   -4.295841   -1.499468
     41          6           0        7.364998   -4.866261   -2.417731
     42          8           0        6.155006   -4.616046   -2.242577
     43          8           0        7.962837   -5.414919   -3.486424
     44          6           0        6.979166   -5.973532   -4.452083
     45          1           0        9.673175    2.258059   -3.415815
     46          1           0        8.515986    4.107480    2.430087
     47          1           0        8.354639   -1.868672    4.353309
     48          1           0        9.444837   -2.647015   -3.968020
     49          1           0        9.333094    0.061094   -4.743335
     50          1           0       11.413080   -1.577775   -3.345606
     51          1           0       11.430627    0.168883   -2.951722
     52          1           0       11.632011   -0.304350   -4.614875
     53          1           0        7.114405   -0.790543   -4.491384
     54          1           0        6.749419   -2.462624   -3.905378
     55          1           0        8.533580   -2.649333   -6.111937
     56          1           0        7.554454   -1.277211   -6.467529
     57          1           0        9.076072    4.258126   -3.709173
     58          1           0        9.440338    5.618003   -2.717176
     59          1           0        7.739620    5.343824   -3.175106
     60          1           0        8.511123    7.090050   -1.307771
     61          1           0        7.295817    7.821725   -0.117745
     62          1           0        6.827006    6.635779   -1.365413
     63          1           0        7.918891    2.939898    4.616569
     64          1           0        9.356559    0.430719    5.327285
     65          1           0        9.858847    3.740062    5.454244
     66          1           0       10.683388    3.077861    4.001537
     67          1           0       10.599677    2.150203    5.408455
     68          1           0        7.394518    1.349255    6.621504
     69          1           0        7.311203   -0.373900    6.272732
     70          1           0        5.880663    1.922604    5.165342
     71          1           0        5.193198    0.345004    5.680377
     72          1           0        6.036516    0.550400    4.079960
     73          1           0        7.749528   -5.305371    3.251012
     74          1           0        8.280973   -3.979965    4.346426
     75          1           0        9.505471   -4.794342    3.286730
     76          1           0        9.420843   -4.548280   -1.822258
     77          1           0        7.238749   -7.021153   -4.604859
     78          1           0        6.992012   -5.316978   -5.322242
     79          1           0        5.952666   -6.065751   -4.095527
     80         12           0       -7.672552    0.741333    0.148562
     81          6           0      -10.182676   -1.823267    0.182897
     82          6           0       -9.693175    2.482327   -1.977605
     83          6           0       -5.297647    2.805477   -0.259528
     84          6           0       -5.416593   -1.644709    1.316113
     85          7           0       -9.657907    0.284248   -0.712653
     86          6           0      -10.542585   -0.692450   -0.579425
     87          6           0      -11.919172   -0.407596   -1.237777
     88          6           0      -11.444394    0.667104   -2.332515
     89          6           0      -10.206170    1.209448   -1.621643
     90          6           0      -11.004780    0.036731   -3.643513
     91          6           0      -12.946678    0.215685   -0.228927
     92          6           0      -14.397048    0.233087   -0.716664
     93          1           0      -15.462483    0.026648    0.260427
     94          7           0       -7.691871    2.600404   -0.545724
     95          6           0       -8.599214    3.147456   -1.381638
     96          6           0       -8.156226    4.532271   -1.605740
     97          6           0       -6.824392    4.708155   -0.965428
     98          6           0       -6.537327    3.342493   -0.574720
     99          6           0       -9.008153    5.557488   -2.296061
    100          6           0       -5.947734    5.905003   -0.752789
    101          8           0       -4.725506    5.787611   -0.385073
    102          6           0       -6.534359    7.213362   -1.077687
    103          7           0       -5.605738    0.555888    0.275990
    104          6           0       -4.804110    1.621614    0.104071
    105          6           0       -3.384559    1.307939    0.512551
    106          6           0       -3.448628   -0.122326    1.225178
    107          6           0       -4.945206   -0.442043    1.016845
    108          6           0       -2.359979    1.266021   -0.620970
    109          6           0       -2.864911   -0.219843    2.661300
    110          6           0       -3.717911    0.578797    3.620448
    111          7           0       -7.788924   -1.302632    0.839012
    112          6           0       -6.719076   -2.123767    1.257666
    113          6           0       -7.278005   -3.465169    1.523497
    114          6           0       -8.640986   -3.336447    1.216559
    115          6           0       -8.908578   -2.014055    0.770289
    116          6           0       -6.537674   -4.607162    1.940501
    117          6           0       -9.912218   -4.021487    1.158455
    118          8           0      -10.316580   -5.132621    1.498464
    119          6           0      -10.943150   -3.107300    0.366090
    120          6           0      -12.222227   -3.057466    1.156028
    121          8           0      -12.253310   -2.515752    2.275046
    122          8           0      -13.239566   -3.460717    0.373233
    123          6           0      -14.531359   -3.418134    1.108935
    124          1           0      -10.143527    3.005711   -2.821491
    125          1           0       -4.461057    3.507787   -0.278078
    126          1           0       -4.796476   -2.416785    1.776581
    127          1           0      -12.373956   -1.260603   -1.726981
    128          1           0      -12.184481    1.452536   -2.461842
    129          1           0      -10.972257   -1.040876   -3.581456
    130          1           0      -10.018530    0.434029   -3.844823
    131          1           0      -11.642414    0.384272   -4.461405
    132          1           0      -12.761874    1.294770   -0.150489
    133          1           0      -12.891493   -0.275290    0.723188
    134          1           0      -14.546006   -0.413430   -1.590042
    135          1           0      -14.627847    1.236241   -1.083311
    136          1           0       -9.863650    5.094262   -2.802959
    137          1           0       -8.406363    5.978579   -3.108709
    138          1           0       -9.317449    6.365743   -1.629936
    139          1           0       -6.840512    7.222794   -2.121060
    140          1           0       -5.788338    7.951144   -0.776017
    141          1           0       -7.444033    7.346654   -0.481567
    142          1           0       -3.016137    2.038154    1.222596
    143          1           0       -2.884019   -0.882231    0.665185
    144          1           0       -1.514204    1.963300   -0.470842
    145          1           0       -2.870166    1.481616   -1.550365
    146          1           0       -1.927598    0.286255   -0.816662
    147          1           0       -1.865300    0.220418    2.694512
    148          1           0       -2.780412   -1.238477    3.024951
    149          1           0       -3.340163    1.598136    3.496570
    150          1           0       -3.578442    0.227458    4.640809
    151          1           0       -4.768695    0.576444    3.308215
    152          1           0       -7.117450   -5.087339    2.717540
    153          1           0       -5.547100   -4.330841    2.295718
    154          1           0       -6.496014   -5.166028    1.001772
    155          1           0      -11.087232   -3.553659   -0.618578
    156          1           0      -14.969694   -4.418743    1.043054
    157          1           0      -15.104661   -2.586384    0.658076
    158          1           0      -14.492289   -3.274619    2.182399
 ---------------------------------------------------------------------

 SCF Done:  E(RCAM-B3LYP) =  -4069.81185547     A.U. after   19 cycles

 Excitation energies and oscillator strengths:

 Excited State   1:      Singlet-A      1.6693 eV  742.71 nm  f=0.0197  <S**2>=0.000
     309 -> 315       -0.10189
     310 -> 316        0.13905
     311 -> 313       -0.40431
     312 -> 314        0.55466
 This state for optimization and/or second-order correction.
 Total Energy, E(TD-HF/TD-DFT) =  -4069.75050810
 Copying the excited state density for this state as the 1-particle RhoCI density.

 Excited State   2:      Singlet-A      1.6855 eV  735.59 nm  f=0.7358  <S**2>=0.000
     309 -> 315        0.14311
     310 -> 316        0.10376
     311 -> 313        0.55383
     312 -> 314        0.40377

 Excited State   3:      Singlet-A      2.1856 eV  567.29 nm  f=0.1020  <S**2>=0.000
     310 -> 314        0.64124
     312 -> 316       -0.27227

 Excited State   4:      Singlet-A      2.1932 eV  565.31 nm  f=0.0996  <S**2>=0.000
     309 -> 313        0.63925
     311 -> 315       -0.27809

 Excited State   5:      Singlet-A      2.7682 eV  447.89 nm  f=0.0000  <S**2>=0.000
     312 -> 313        0.70696

 The electronic state is 1-A.
 Alpha  occ. eigenvalues --  -46.87809 -46.87579 -19.26305 -19.26291 -19.19099
 Alpha  occ. eigenvalues --  -19.19045 -19.18802 -19.18651 -19.18181 -19.17976
 Alpha  occ. eigenvalues --  -14.42461 -14.42419 -14.41460 -14.41271 -14.39412
 Alpha  occ. eigenvalues --  -14.39273 -14.38600 -14.38517 -10.39103 -10.39027
 Alpha  occ. eigenvalues --  -10.35433 -10.35330 -10.34402 -10.34153 -10.31704
 Alpha  occ. eigenvalues --  -10.31698 -10.31418 -10.31231 -10.30953 -10.30917
 Alpha  occ. eigenvalues --  -10.30582 -10.30517 -10.30314 -10.30279 -10.30213
 Alpha  occ. eigenvalues --  -10.30048 -10.29932 -10.29799 -10.29638 -10.29356
 Alpha  occ. eigenvalues --  -10.29321 -10.29260 -10.28760 -10.28658 -10.28607
 Alpha  occ. eigenvalues --  -10.28553 -10.28374 -10.28329 -10.28126 -10.28078
 Alpha  occ. eigenvalues --  -10.27921 -10.27801 -10.27736 -10.27592 -10.27588
 Alpha  occ. eigenvalues --  -10.27511 -10.27473 -10.27456 -10.27414 -10.27411
 Alpha  occ. eigenvalues --  -10.27406 -10.27390 -10.27387 -10.27256 -10.27172
 Alpha  occ. eigenvalues --  -10.26979 -10.26721 -10.26638 -10.26377 -10.26370
 Alpha  occ. eigenvalues --  -10.26241 -10.26203 -10.26030 -10.25995 -10.25968
 Alpha  occ. eigenvalues --  -10.25856 -10.25838 -10.25739 -10.25436 -10.25265
 Alpha  occ. eigenvalues --  -10.24842 -10.24796 -10.24792 -10.24722 -10.24612
 Alpha  occ. eigenvalues --  -10.24605  -3.16552  -3.16329  -1.91434  -1.91211
 Alpha  occ. eigenvalues --   -1.91020  -1.90862  -1.90800  -1.90637  -1.16654
 Alpha  occ. eigenvalues --   -1.16584  -1.08640  -1.08583  -1.07201  -1.06904
 Alpha  occ. eigenvalues --   -1.06883  -1.06666  -1.04591  -1.04418  -1.03770
 Alpha  occ. eigenvalues --   -1.03581  -1.03244  -1.02952  -1.02422  -1.02028
 Alpha  occ. eigenvalues --   -0.91984  -0.91909  -0.89532  -0.89394  -0.89199
 Alpha  occ. eigenvalues --   -0.89085  -0.88298  -0.88112  -0.87881  -0.87704
 Alpha  occ. eigenvalues --   -0.87683  -0.87604  -0.87271  -0.87053  -0.84991
 Alpha  occ. eigenvalues --   -0.84931  -0.83950  -0.83768  -0.82959  -0.82860
 Alpha  occ. eigenvalues --   -0.82654  -0.82584  -0.81599  -0.81523  -0.80605
 Alpha  occ. eigenvalues --   -0.80369  -0.78799  -0.78560  -0.77228  -0.77067
 Alpha  occ. eigenvalues --   -0.76947  -0.76818  -0.75934  -0.75769  -0.74907
 Alpha  occ. eigenvalues --   -0.74702  -0.72784  -0.72613  -0.71681  -0.71497
 Alpha  occ. eigenvalues --   -0.69923  -0.69642  -0.68881  -0.68757  -0.67648
 Alpha  occ. eigenvalues --   -0.67523  -0.67225  -0.67138  -0.65298  -0.65202
 Alpha  occ. eigenvalues --   -0.64866  -0.64687  -0.64632  -0.64577  -0.64281
 Alpha  occ. eigenvalues --   -0.64101  -0.62313  -0.62203  -0.60443  -0.60261
 Alpha  occ. eigenvalues --   -0.59814  -0.59726  -0.58998  -0.58908  -0.58514
 Alpha  occ. eigenvalues --   -0.58343  -0.57599  -0.57481  -0.57317  -0.57148
 Alpha  occ. eigenvalues --   -0.56317  -0.56125  -0.55993  -0.55819  -0.55521
 Alpha  occ. eigenvalues --   -0.55384  -0.55353  -0.55152  -0.54539  -0.54396
 Alpha  occ. eigenvalues --   -0.53906  -0.53848  -0.53304  -0.53225  -0.53147
 Alpha  occ. eigenvalues --   -0.53071  -0.52927  -0.52829  -0.52752  -0.52609
 Alpha  occ. eigenvalues --   -0.52456  -0.52284  -0.51927  -0.51787  -0.51622
 Alpha  occ. eigenvalues --   -0.51596  -0.51208  -0.51118  -0.50560  -0.50412
 Alpha  occ. eigenvalues --   -0.50041  -0.49917  -0.49909  -0.49768  -0.49517
 Alpha  occ. eigenvalues --   -0.49421  -0.49221  -0.49132  -0.49105  -0.49031
 Alpha  occ. eigenvalues --   -0.48604  -0.48486  -0.48468  -0.48443  -0.48275
 Alpha  occ. eigenvalues --   -0.48272  -0.47701  -0.47519  -0.47301  -0.47039
 Alpha  occ. eigenvalues --   -0.46809  -0.46622  -0.46565  -0.46486  -0.46369
 Alpha  occ. eigenvalues --   -0.46184  -0.46174  -0.45993  -0.45835  -0.45739
 Alpha  occ. eigenvalues --   -0.45210  -0.45109  -0.44589  -0.44509  -0.44442
 Alpha  occ. eigenvalues --   -0.44398  -0.44154  -0.44096  -0.44055  -0.44023
 Alpha  occ. eigenvalues --   -0.43990  -0.43873  -0.43508  -0.43476  -0.43395
 Alpha  occ. eigenvalues --   -0.43308  -0.43037  -0.42860  -0.42818  -0.42714
 Alpha  occ. eigenvalues --   -0.42672  -0.42455  -0.42025  -0.41872  -0.41714
 Alpha  occ. eigenvalues --   -0.41589  -0.41544  -0.41383  -0.41149  -0.40910
 Alpha  occ. eigenvalues --   -0.40880  -0.40815  -0.40658  -0.40624  -0.40583
 Alpha  occ. eigenvalues --   -0.40390  -0.40244  -0.40169  -0.39460  -0.39310
 Alpha  occ. eigenvalues --   -0.38480  -0.38248  -0.37760  -0.37589  -0.37331
 Alpha  occ. eigenvalues --   -0.37275  -0.37170  -0.37127  -0.36732  -0.36699
 Alpha  occ. eigenvalues --   -0.36207  -0.36128  -0.34297  -0.34171  -0.33796
 Alpha  occ. eigenvalues --   -0.33793  -0.33198  -0.33093  -0.31332  -0.31209
 Alpha  occ. eigenvalues --   -0.31044  -0.30893  -0.30041  -0.29880  -0.29454
 Alpha  occ. eigenvalues --   -0.29332  -0.29252  -0.29130  -0.24092  -0.23954
 Alpha  occ. eigenvalues --   -0.21137  -0.21035
 Alpha virt. eigenvalues --   -0.08782  -0.08713  -0.01758  -0.01600  -0.00058
 Alpha virt. eigenvalues --    0.00040   0.02190   0.02289   0.03087   0.03304
 Alpha virt. eigenvalues --    0.04707   0.04804   0.05077   0.05230   0.06164

 Mulliken charges:
               1
     1  Mg   0.838287
     2  C   -0.003084
     3  C   -0.094065
     4  C   -0.045861
     5  C   -0.064054
     6  N   -0.256798
     7  C   -0.052572
     8  C   -0.013952
     9  C   -0.087035
    10  C    0.046328
    11  C    0.104789
    12  C    0.053451
    13  C   -0.071813
    14  H    0.036025
    15  N   -0.433225
    16  C    0.168454
    17  C   -0.177022
    18  C   -0.003839
    19  C    0.148713
    20  C    0.110150
    21  C    0.012473
    22  O   -0.249415
    23  C    0.062366
    24  N   -0.341099
    25  C    0.041225
    26  C   -0.028231
    27  C   -0.023957
    28  C    0.074690
    29  C    0.076129
    30  C    0.035166
    31  C   -0.004541
    32  N   -0.310393
    33  C    0.080152
    34  C   -0.169942
    35  C    0.008329
    36  C    0.082723
    37  C    0.127364
    38  C    0.045944
    39  O   -0.188479
    40  C   -0.005280
    41  C    0.212975
    42  O   -0.257507
    43  O   -0.304705
    44  C    0.157696
    45  H   -0.017495
    46  H   -0.016654
    47  H   -0.041535
    48  H    0.000968
    49  H   -0.003973
    50  H    0.025505
    51  H    0.016496
    52  H    0.016727
    53  H    0.011206
    54  H    0.043874
    55  H    0.017953
    56  H    0.018040
    57  H    0.005855
    58  H    0.026932
    59  H    0.039898
    60  H    0.037244
    61  H    0.036058
    62  H    0.031858
    63  H    0.016658
    64  H    0.009555
    65  H    0.023378
    66  H    0.012596
    67  H    0.004803
    68  H    0.006580
    69  H    0.004712
    70  H    0.009045
    71  H    0.017667
    72  H    0.028655
    73  H    0.047398
    74  H    0.009049
    75  H    0.046111
    76  H    0.035240
    77  H    0.043072
    78  H    0.046448
    79  H    0.053515
    80  Mg   0.837725
    81  C   -0.016975
    82  C   -0.087986
    83  C   -0.045551
    84  C   -0.064569
    85  N   -0.254584
    86  C   -0.049826
    87  C   -0.015093
    88  C   -0.090480
    89  C    0.045732
    90  C    0.114435
    91  C    0.062567
    92  C   -0.077797
    93  H    0.034751
    94  N   -0.423425
    95  C    0.162852
    96  C   -0.174870
    97  C   -0.007951
    98  C    0.152079
    99  C    0.099476
   100  C    0.015395
   101  O   -0.253263
   102  C    0.061241
   103  N   -0.350063
   104  C    0.037517
   105  C   -0.019952
   106  C   -0.035110
   107  C    0.088836
   108  C    0.073424
   109  C    0.034667
   110  C   -0.007712
   111  N   -0.324156
   112  C    0.078445
   113  C   -0.162891
   114  C    0.002221
   115  C    0.096282
   116  C    0.131480
   117  C    0.042443
   118  O   -0.187851
   119  C    0.000900
   120  C    0.211240
   121  O   -0.251060
   122  O   -0.305637
   123  C    0.152067
   124  H   -0.019977
   125  H   -0.015634
   126  H   -0.039629
   127  H   -0.000736
   128  H   -0.004511
   129  H    0.022452
   130  H    0.014408
   131  H    0.016024
   132  H    0.013885
   133  H    0.037679
   134  H    0.020720
   135  H    0.019480
   136  H    0.008599
   137  H    0.025781
   138  H    0.039582
   139  H    0.037993
   140  H    0.036167
   141  H    0.033879
   142  H    0.014370
   143  H    0.013755
   144  H    0.025013
   145  H    0.011068
   146  H    0.007066
   147  H    0.006861
   148  H    0.004289
   149  H    0.010807
   150  H    0.017792
   151  H    0.029721
   152  H    0.045943
   153  H    0.009145
   154  H    0.047297
   155  H    0.034957
   156  H    0.043848
   157  H    0.049392
   158  H    0.053542
 Sum of Mulliken charges =  -0.00000

 Dipole moment (field-independent basis, Debye):
    X=              1.2515    Y=              5.7280    Z=             -6.1072  Tot=              8.4660
 Quadrupole moment (field-independent basis, Debye-Ang):
   XX=           -442.0241   YY=           -554.2604   ZZ=           -469.9351
   XY=            -25.5313   XZ=             20.7248   YZ=            -10.7800

 Normal termination of Gaussian 16 at Sun Sep 12 08:15:20 2021.
