 Gaussian 16, Revision A.03,
 Gaussian 16:  ES64L-G16RevA.03 25-Dec-2016

 -----------------------------------
 #p cam-b3lyp/Def2SVP td=(nstates=5)
 -----------------------------------

 --------------------------------
 TDDFT excited states in gaussian
 --------------------------------
 Symbolic Z-matrix:
 Charge =  0 Multiplicity = 1

                         Standard orientation:
 ---------------------------------------------------------------------
 Center     Atomic      Atomic             Coordinates (Angstroms)
 Number     Number       Type             X           Y           Z
 ---------------------------------------------------------------------
      1         12           0        6.486053    0.757187    0.489865
      2          6           0        7.071606   -2.234763   -1.385655
      3          6           0        7.170619    2.501364   -2.361851
      4          6           0        6.420741    3.409975    2.226262
      5          6           0        6.964569   -1.134979    3.377145
      6          7           0        7.036450    0.103255   -1.552213
      7          6           0        7.169226   -1.073715   -2.155773
      8          6           0        7.347064   -0.959873   -3.699401
      9          6           0        7.922795    0.524852   -3.777645
     10          6           0        7.312471    1.089319   -2.506895
     11          6           0        9.442358    0.595740   -3.666258
     12          6           0        5.987567   -1.088276   -4.465567
     13          6           0        6.107321   -1.314660   -5.975455
     14          1           0        5.133549   -2.171891   -6.634448
     15          7           0        6.276599    2.643218   -0.059558
     16          6           0        6.590719    3.175167   -1.265230
     17          6           0        6.251867    4.611892   -1.177587
     18          6           0        5.893315    4.909360    0.236997
     19          6           0        6.211944    3.655723    0.871228
     20          6           0        6.241379    5.528564   -2.362219
     21          6           0        5.359661    6.133117    0.912100
     22          8           0        5.337372    6.252796    2.184796
     23          6           0        4.939942    7.238697    0.032004
     24          7           0        6.881685    1.147394    2.502040
     25          6           0        6.721540    2.373638    3.011611
     26          6           0        6.786396    2.354982    4.510072
     27          6           0        6.782369    0.815381    4.933588
     28          6           0        6.799108    0.181883    3.520552
     29          6           0        8.001484    3.053305    5.136105
     30          6           0        5.686825    0.363460    5.931571
     31          6           0        4.327056    0.451775    5.275579
     32          7           0        6.762654   -1.344151    0.957746
     33          6           0        6.965643   -1.905792    2.226615
     34          6           0        7.209533   -3.346250    2.027450
     35          6           0        7.147507   -3.520684    0.646301
     36          6           0        6.907784   -2.264029    0.020487
     37          6           0        7.506375   -4.290371    3.049680
     38          6           0        7.252464   -4.472209   -0.447975
     39          8           0        7.354549   -5.697421   -0.524953
     40          6           0        7.328755   -3.658002   -1.814385
     41          6           0        6.357854   -4.289463   -2.774550
     42          8           0        5.128111   -4.234879   -2.569321
     43          8           0        7.007425   -4.646583   -3.893060
     44          6           0        6.095835   -5.253019   -4.899734
     45          1           0        7.593198    3.155640   -3.126894
     46          1           0        6.296761    4.281928    2.871834
     47          1           0        7.037843   -1.802920    4.237342
     48          1           0        8.064516   -1.660394   -4.127136
     49          1           0        7.547706    1.061384   -4.648945
     50          1           0        9.869678   -0.376589   -3.421526
     51          1           0        9.642657    1.311287   -2.868533
     52          1           0        9.877381    1.024394   -4.569468
     53          1           0        5.480615   -0.123366   -4.462272
     54          1           0        5.372481   -1.876740   -4.030459
     55          1           0        7.120999   -1.601922   -6.256252
     56          1           0        5.947218   -0.360519   -6.477631
     57          1           0        6.707938    5.065708   -3.230914
     58          1           0        6.891580    6.369031   -2.120221
     59          1           0        5.239555    5.892646   -2.590527
     60          1           0        5.787590    7.556926   -0.575262
     61          1           0        4.503117    7.993531    0.684889
     62          1           0        4.185890    6.869415   -0.663687
     63          1           0        5.917756    2.847434    4.945249
     64          1           0        7.716345    0.520484    5.412543
     65          1           0        7.738027    3.842602    5.840594
     66          1           0        8.620691    3.441259    4.327795
     67          1           0        8.699566    2.388200    5.643781
     68          1           0        5.668187    1.023091    6.798454
     69          1           0        5.827639   -0.655272    6.292968
     70          1           0        4.058974    1.498966    5.411057
     71          1           0        3.616761   -0.201862    5.782977
     72          1           0        4.389836    0.267634    4.202902
     73          1           0        6.913569   -5.177493    2.827049
     74          1           0        7.269623   -3.893126    4.036467
     75          1           0        8.577703   -4.421631    2.898410
     76          1           0        8.357608   -3.730636   -2.165536
     77          1           0        6.500871   -6.233595   -5.150033
     78          1           0        5.996584   -4.525797   -5.705775
     79          1           0        5.100641   -5.525465   -4.546603
     80         12           0       -6.651321   -0.858998    0.410451
     81          6           0       -6.772900    1.923429   -1.852808
     82          6           0       -6.061120    1.389260    2.906767
     83          6           0       -6.091987   -3.308030    2.348704
     84          6           0       -6.111358   -2.907737   -2.356643
     85          7           0       -6.464216    1.344908    0.403087
     86          6           0       -6.590394    2.300034   -0.505850
     87          6           0       -6.597163    3.740802    0.071812
     88          6           0       -5.805064    3.455326    1.439273
     89          6           0       -6.155640    1.980000    1.621388
     90          6           0       -4.296734    3.573809    1.297062
     91          6           0       -8.049261    4.267126    0.348249
     92          6           0       -8.147797    5.769924    0.619621
     93          1           0       -9.323347    6.488883    0.136262
     94          7           0       -6.636375   -0.950493    2.392871
     95          6           0       -6.401465    0.062998    3.252486
     96          6           0       -6.483255   -0.524247    4.598819
     97          6           0       -6.622392   -1.999356    4.459506
     98          6           0       -6.430551   -2.148457    3.030847
     99          6           0       -6.507433    0.306567    5.848856
    100          6           0       -6.872365   -3.095865    5.450152
    101          8           0       -6.718830   -4.330296    5.141238
    102          6           0       -7.211542   -2.678426    6.818437
    103          7           0       -5.961757   -2.791843    0.077369
    104          6           0       -5.859596   -3.673125    1.087740
    105          6           0       -5.608892   -5.069490    0.570352
    106          6           0       -5.805480   -4.982229   -1.014355
    107          6           0       -6.059364   -3.465246   -1.154707
    108          6           0       -4.232160   -5.656660    0.880567
    109          6           0       -6.825782   -5.964537   -1.652111
    110          6           0       -8.226952   -5.616117   -1.204102
    111          7           0       -6.653225   -0.607078   -1.735380
    112          6           0       -6.376717   -1.590863   -2.709947
    113          6           0       -6.386953   -0.916569   -4.024355
    114          6           0       -6.648009    0.427684   -3.718854
    115          6           0       -6.770395    0.583966   -2.311699
    116          6           0       -6.126000   -1.535936   -5.279104
    117          6           0       -6.837336    1.751875   -4.265992
    118          8           0       -6.929947    2.217784   -5.400933
    119          6           0       -6.801146    2.801524   -3.072960
    120          6           0       -7.970183    3.733437   -3.238587
    121          8           0       -9.135098    3.311054   -3.132881
    122          8           0       -7.521039    5.001160   -3.277563
    123          6           0       -8.644727    5.963425   -3.429810
    124          1           0       -5.647491    1.983775    3.721842
    125          1           0       -5.997039   -4.206077    2.963508
    126          1           0       -6.048708   -3.494554   -3.275543
    127          1           0       -6.061434    4.471090   -0.522702
    128          1           0       -6.205802    4.046427    2.258654
    129          1           0       -3.998879    3.715036    0.268726
    130          1           0       -3.891122    2.648506    1.684778
    131          1           0       -3.917658    4.365753    1.949340
    132          1           0       -8.392838    3.878602    1.315582
    133          1           0       -8.710181    4.000605   -0.453486
    134          1           0       -7.230121    6.300635    0.338230
    135          1           0       -8.225949    5.923304    1.698690
    136          1           0       -6.223406    1.346594    5.646175
    137          1           0       -5.710751   -0.070788    6.499056
    138          1           0       -7.458969    0.239813    6.380637
    139          1           0       -6.408457   -2.063708    7.217996
    140          1           0       -7.441507   -3.600041    7.356598
    141          1           0       -8.104012   -2.043915    6.779534
    142          1           0       -6.330742   -5.767637    0.976099
    143          1           0       -4.870653   -5.195575   -1.553258
    144          1           0       -4.280426   -6.615918    1.429729
    145          1           0       -3.667667   -4.924652    1.442739
    146          1           0       -3.595217   -5.823472    0.013569
    147          1           0       -6.634857   -6.984372   -1.309122
    148          1           0       -6.792692   -5.977937   -2.736411
    149          1           0       -8.304667   -6.109558   -0.230675
    150          1           0       -8.961650   -6.007590   -1.904827
    151          1           0       -8.329738   -4.537738   -1.036174
    152          1           0       -6.864825   -1.157317   -5.972849
    153          1           0       -6.169226   -2.620475   -5.203770
    154          1           0       -5.110154   -1.177608   -5.465967
    155          1           0       -5.847286    3.327512   -3.128209
    156          1           0       -8.428107    6.570201   -4.314449
    157          1           0       -8.717850    6.492997   -2.461327
    158          1           0       -9.618565    5.560806   -3.682792
 ---------------------------------------------------------------------

 SCF Done:  E(RCAM-B3LYP) =  -4069.81190280     A.U. after   19 cycles

 Excitation energies and oscillator strengths:

 Excited State   1:      Singlet-A      1.6725 eV  741.31 nm  f=0.2573  <S**2>=0.000
     310 -> 316        0.15185
     311 -> 313        0.32940
     312 -> 314        0.60196
 This state for optimization and/or second-order correction.
 Total Energy, E(TD-HF/TD-DFT) =  -4069.75043947
 Copying the excited state density for this state as the 1-particle RhoCI density.

 Excited State   2:      Singlet-A      1.6813 eV  737.44 nm  f=0.4759  <S**2>=0.000
     309 -> 315        0.15415
     311 -> 313        0.60137
     312 -> 314       -0.32909

 Excited State   3:      Singlet-A      2.1853 eV  567.36 nm  f=0.0897  <S**2>=0.000
     309 -> 313        0.10845
     310 -> 314        0.63357
     312 -> 316       -0.26857

 Excited State   4:      Singlet-A      2.1925 eV  565.49 nm  f=0.1077  <S**2>=0.000
     309 -> 313        0.63147
     310 -> 314       -0.10774
     311 -> 315       -0.27418

 Excited State   5:      Singlet-A      2.6504 eV  467.79 nm  f=0.0000  <S**2>=0.000
     312 -> 313        0.70710

 The electronic state is 1-A.
 Alpha  occ. eigenvalues --  -46.87855 -46.87556 -19.26323 -19.26318 -19.19118
 Alpha  occ. eigenvalues --  -19.19064 -19.18895 -19.18619 -19.18220 -19.17984
 Alpha  occ. eigenvalues --  -14.42503 -14.42397 -14.41511 -14.41246 -14.39462
 Alpha  occ. eigenvalues --  -14.39250 -14.38644 -14.38501 -10.39123 -10.39045
 Alpha  occ. eigenvalues --  -10.35529 -10.35296 -10.34439 -10.34162 -10.31739
 Alpha  occ. eigenvalues --  -10.31713 -10.31452 -10.31216 -10.30960 -10.30930
 Alpha  occ. eigenvalues --  -10.30623 -10.30569 -10.30297 -10.30272 -10.30267
 Alpha  occ. eigenvalues --  -10.30019 -10.29985 -10.29777 -10.29690 -10.29331
 Alpha  occ. eigenvalues --  -10.29314 -10.29307 -10.28781 -10.28645 -10.28608
 Alpha  occ. eigenvalues --  -10.28543 -10.28420 -10.28311 -10.28149 -10.28056
 Alpha  occ. eigenvalues --  -10.27908 -10.27848 -10.27778 -10.27644 -10.27580
 Alpha  occ. eigenvalues --  -10.27569 -10.27531 -10.27526 -10.27458 -10.27389
 Alpha  occ. eigenvalues --  -10.27380 -10.27372 -10.27363 -10.27213 -10.27205
 Alpha  occ. eigenvalues --  -10.26988 -10.26726 -10.26631 -10.26494 -10.26331
 Alpha  occ. eigenvalues --  -10.26279 -10.26264 -10.26080 -10.26001 -10.25933
 Alpha  occ. eigenvalues --  -10.25892 -10.25822 -10.25770 -10.25513 -10.25172
 Alpha  occ. eigenvalues --  -10.24887 -10.24851 -10.24799 -10.24782 -10.24612
 Alpha  occ. eigenvalues --  -10.24579  -3.16598  -3.16306  -1.91480  -1.91188
 Alpha  occ. eigenvalues --   -1.91066  -1.90908  -1.90777  -1.90614  -1.16672
 Alpha  occ. eigenvalues --   -1.16609  -1.08676  -1.08595  -1.07298  -1.06903
 Alpha  occ. eigenvalues --   -1.06871  -1.06686  -1.04633  -1.04398  -1.03820
 Alpha  occ. eigenvalues --   -1.03560  -1.03293  -1.02930  -1.02470  -1.02007
 Alpha  occ. eigenvalues --   -0.92025  -0.91899  -0.89591  -0.89378  -0.89223
 Alpha  occ. eigenvalues --   -0.89068  -0.88359  -0.88086  -0.87923  -0.87724
 Alpha  occ. eigenvalues --   -0.87704  -0.87584  -0.87335  -0.87028  -0.85024
 Alpha  occ. eigenvalues --   -0.84914  -0.84013  -0.83745  -0.83040  -0.82830
 Alpha  occ. eigenvalues --   -0.82698  -0.82566  -0.81633  -0.81527  -0.80650
 Alpha  occ. eigenvalues --   -0.80360  -0.78854  -0.78543  -0.77275  -0.77052
 Alpha  occ. eigenvalues --   -0.76980  -0.76806  -0.75967  -0.75759  -0.74964
 Alpha  occ. eigenvalues --   -0.74667  -0.72831  -0.72600  -0.71727  -0.71471
 Alpha  occ. eigenvalues --   -0.69989  -0.69625  -0.68919  -0.68742  -0.67699
 Alpha  occ. eigenvalues --   -0.67507  -0.67261  -0.67122  -0.65329  -0.65191
 Alpha  occ. eigenvalues --   -0.64909  -0.64676  -0.64675  -0.64567  -0.64338
 Alpha  occ. eigenvalues --   -0.64083  -0.62347  -0.62208  -0.60506  -0.60236
 Alpha  occ. eigenvalues --   -0.59847  -0.59710  -0.59045  -0.58891  -0.58560
 Alpha  occ. eigenvalues --   -0.58331  -0.57634  -0.57488  -0.57372  -0.57131
 Alpha  occ. eigenvalues --   -0.56364  -0.56117  -0.56021  -0.55823  -0.55579
 Alpha  occ. eigenvalues --   -0.55405  -0.55374  -0.55139  -0.54584  -0.54387
 Alpha  occ. eigenvalues --   -0.53932  -0.53831  -0.53360  -0.53272  -0.53131
 Alpha  occ. eigenvalues --   -0.53059  -0.52969  -0.52822  -0.52812  -0.52582
 Alpha  occ. eigenvalues --   -0.52523  -0.52279  -0.51967  -0.51801  -0.51660
 Alpha  occ. eigenvalues --   -0.51581  -0.51251  -0.51114  -0.50637  -0.50380
 Alpha  occ. eigenvalues --   -0.50104  -0.49978  -0.49886  -0.49735  -0.49566
 Alpha  occ. eigenvalues --   -0.49401  -0.49267  -0.49137  -0.49122  -0.49022
 Alpha  occ. eigenvalues --   -0.48642  -0.48531  -0.48506  -0.48479  -0.48261
 Alpha  occ. eigenvalues --   -0.48236  -0.47750  -0.47502  -0.47354  -0.47013
 Alpha  occ. eigenvalues --   -0.46855  -0.46607  -0.46595  -0.46467  -0.46418
 Alpha  occ. eigenvalues --   -0.46221  -0.46169  -0.45977  -0.45869  -0.45743
 Alpha  occ. eigenvalues --   -0.45271  -0.45068  -0.44629  -0.44567  -0.44432
 Alpha  occ. eigenvalues --   -0.44387  -0.44211  -0.44132  -0.44073  -0.44042
 Alpha  occ. eigenvalues --   -0.43974  -0.43858  -0.43545  -0.43481  -0.43438
 Alpha  occ. eigenvalues --   -0.43290  -0.43082  -0.42870  -0.42806  -0.42762
 Alpha  occ. eigenvalues --   -0.42716  -0.42433  -0.42074  -0.41861  -0.41759
 Alpha  occ. eigenvalues --   -0.41579  -0.41576  -0.41368  -0.41194  -0.40922
 Alpha  occ. eigenvalues --   -0.40891  -0.40885  -0.40637  -0.40634  -0.40607
 Alpha  occ. eigenvalues --   -0.40368  -0.40264  -0.40156  -0.39528  -0.39295
 Alpha  occ. eigenvalues --   -0.38536  -0.38219  -0.37783  -0.37577  -0.37386
 Alpha  occ. eigenvalues --   -0.37305  -0.37152  -0.37110  -0.36764  -0.36709
 Alpha  occ. eigenvalues --   -0.36248  -0.36111  -0.34343  -0.34154  -0.33818
 Alpha  occ. eigenvalues --   -0.33807  -0.33243  -0.33074  -0.31424  -0.31176
 Alpha  occ. eigenvalues --   -0.31093  -0.30872  -0.30078  -0.29890  -0.29510
 Alpha  occ. eigenvalues --   -0.29378  -0.29232  -0.29120  -0.24137  -0.23934
 Alpha  occ. eigenvalues --   -0.21185  -0.21014
 Alpha virt. eigenvalues --   -0.08832  -0.08694  -0.01811  -0.01576  -0.00120
 Alpha virt. eigenvalues --    0.00063   0.02143   0.02294   0.03054   0.03322
 Alpha virt. eigenvalues --    0.04672   0.04826   0.05054   0.05214   0.06150

 Mulliken charges:
               1
     1  Mg   0.838615
     2  C   -0.002930
     3  C   -0.093796
     4  C   -0.046159
     5  C   -0.064019
     6  N   -0.256798
     7  C   -0.052339
     8  C   -0.014029
     9  C   -0.087052
    10  C    0.046300
    11  C    0.104768
    12  C    0.053371
    13  C   -0.072003
    14  H    0.036422
    15  N   -0.433120
    16  C    0.168326
    17  C   -0.177006
    18  C   -0.004195
    19  C    0.148649
    20  C    0.110080
    21  C    0.011924
    22  O   -0.250139
    23  C    0.062581
    24  N   -0.341120
    25  C    0.041264
    26  C   -0.028116
    27  C   -0.023959
    28  C    0.074765
    29  C    0.076188
    30  C    0.035194
    31  C   -0.004452
    32  N   -0.310501
    33  C    0.080401
    34  C   -0.169658
    35  C    0.008410
    36  C    0.082975
    37  C    0.127311
    38  C    0.046137
    39  O   -0.188298
    40  C   -0.005332
    41  C    0.212950
    42  O   -0.257256
    43  O   -0.304717
    44  C    0.157719
    45  H   -0.017346
    46  H   -0.017156
    47  H   -0.041486
    48  H    0.001041
    49  H   -0.003703
    50  H    0.025491
    51  H    0.016379
    52  H    0.016895
    53  H    0.011416
    54  H    0.043990
    55  H    0.017885
    56  H    0.018335
    57  H    0.006226
    58  H    0.026865
    59  H    0.039723
    60  H    0.037703
    61  H    0.035156
    62  H    0.031443
    63  H    0.016008
    64  H    0.009595
    65  H    0.022960
    66  H    0.012729
    67  H    0.004863
    68  H    0.006095
    69  H    0.004988
    70  H    0.008029
    71  H    0.018003
    72  H    0.029201
    73  H    0.047680
    74  H    0.009110
    75  H    0.046112
    76  H    0.035307
    77  H    0.043015
    78  H    0.046632
    79  H    0.053462
    80  Mg   0.838118
    81  C   -0.017018
    82  C   -0.087885
    83  C   -0.045294
    84  C   -0.064252
    85  N   -0.254599
    86  C   -0.049893
    87  C   -0.015076
    88  C   -0.090490
    89  C    0.045791
    90  C    0.114339
    91  C    0.062568
    92  C   -0.077739
    93  H    0.034504
    94  N   -0.423552
    95  C    0.163071
    96  C   -0.174596
    97  C   -0.007695
    98  C    0.152208
    99  C    0.099370
   100  C    0.015553
   101  O   -0.252913
   102  C    0.061217
   103  N   -0.350008
   104  C    0.037942
   105  C   -0.020152
   106  C   -0.034817
   107  C    0.088950
   108  C    0.073067
   109  C    0.034683
   110  C   -0.007635
   111  N   -0.324061
   112  C    0.078390
   113  C   -0.163117
   114  C    0.001968
   115  C    0.096267
   116  C    0.131541
   117  C    0.042124
   118  O   -0.188674
   119  C    0.000985
   120  C    0.211180
   121  O   -0.251013
   122  O   -0.305777
   123  C    0.152114
   124  H   -0.019625
   125  H   -0.015229
   126  H   -0.040334
   127  H   -0.001099
   128  H   -0.004450
   129  H    0.021992
   130  H    0.014987
   131  H    0.016496
   132  H    0.013949
   133  H    0.037546
   134  H    0.020586
   135  H    0.019638
   136  H    0.008740
   137  H    0.026126
   138  H    0.039595
   139  H    0.038174
   140  H    0.036321
   141  H    0.033731
   142  H    0.014153
   143  H    0.013480
   144  H    0.025214
   145  H    0.012396
   146  H    0.007531
   147  H    0.006573
   148  H    0.003487
   149  H    0.010910
   150  H    0.017587
   151  H    0.029829
   152  H    0.045555
   153  H    0.008639
   154  H    0.046827
   155  H    0.034480
   156  H    0.043462
   157  H    0.049501
   158  H    0.053538
 Sum of Mulliken charges =  -0.00000

 Dipole moment (field-independent basis, Debye):
    X=              3.4961    Y=              4.9077    Z=              1.3200  Tot=              6.1685
 Quadrupole moment (field-independent basis, Debye-Ang):
   XX=           -520.3232   YY=           -515.8226   ZZ=           -482.5831
   XY=             13.1818   XZ=            -48.1626   YZ=             14.4958

 Normal termination of Gaussian 16 at Sat Sep 11 10:12:08 2021.
