 Gaussian 16, Revision A.03,
 Gaussian 16:  ES64L-G16RevA.03 25-Dec-2016

 -----------------------------------
 #p cam-b3lyp/Def2SVP td=(nstates=5)
 -----------------------------------

 --------------------------------
 TDDFT excited states in gaussian
 --------------------------------
 Symbolic Z-matrix:
 Charge =  0 Multiplicity = 1

                         Standard orientation:
 ---------------------------------------------------------------------
 Center     Atomic      Atomic             Coordinates (Angstroms)
 Number     Number       Type             X           Y           Z
 ---------------------------------------------------------------------
      1         12           0        3.997678   -1.562898    0.561126
      2          6           0        5.009115    1.694528   -0.524411
      3          6           0        4.698540   -0.556442    3.745290
      4          6           0        3.546301   -4.560632    1.491967
      5          6           0        4.463644   -2.639616   -2.720522
      6          7           0        4.750631    0.351319    1.379344
      7          6           0        5.042407    1.541212    0.863404
      8          6           0        5.313988    2.632425    1.941769
      9          6           0        5.741534    1.688216    3.153244
     10          6           0        4.991321    0.429040    2.756282
     11          6           0        7.234941    1.379920    3.187743
     12          6           0        4.030416    3.460427    2.286137
     13          6           0        4.276228    4.747225    3.079284
     14          1           0        3.441390    5.907631    2.807532
     15          7           0        3.638062   -2.306872    2.355569
     16          6           0        3.979547   -1.754617    3.544555
     17          6           0        3.492716   -2.688549    4.582557
     18          6           0        3.009319   -3.919105    3.896879
     19          6           0        3.407856   -3.651955    2.538506
     20          6           0        3.471881   -2.357101    6.043193
     21          6           0        2.310016   -5.146390    4.389707
     22          8           0        2.188038   -6.195377    3.669069
     23          6           0        1.842994   -5.119712    5.787642
     24          7           0        4.212274   -3.398702   -0.409136
     25          6           0        3.894865   -4.544388    0.203757
     26          6           0        3.857713   -5.689466   -0.764415
     27          6           0        3.979296   -5.042465   -2.219186
     28          6           0        4.157113   -3.561021   -1.804488
     29          6           0        4.950318   -6.752630   -0.585781
     30          6           0        2.868504   -5.394314   -3.240344
     31          6           0        1.555270   -4.787507   -2.799551
     32          7           0        4.451215   -0.628418   -1.344680
     33          6           0        4.621605   -1.271032   -2.579463
     34          6           0        5.022253   -0.238079   -3.552375
     35          6           0        5.073534    0.938516   -2.807500
     36          6           0        4.752429    0.653756   -1.449525
     37          6           0        5.341271   -0.461226   -4.920903
     38          6           0        5.348892    2.365791   -2.837866
     39          8           0        5.578720    3.185856   -3.727902
     40          6           0        5.437034    2.891126   -1.337172
     41          6           0        4.603128    4.139741   -1.242997
     42          8           0        3.362913    4.092072   -1.373233
     43          8           0        5.360940    5.146740   -0.782328
     44          6           0        4.586595    6.408284   -0.637237
     45          1           0        5.104970   -0.432019    4.750912
     46          1           0        3.291025   -5.591341    1.746746
     47          1           0        4.544173   -2.886526   -3.780713
     48          1           0        6.126036    3.318331    1.699829
     49          1           0        5.375420    2.061932    4.109287
     50          1           0        7.739951    1.755574    2.297929
     51          1           0        7.306752    0.293178    3.236014
     52          1           0        7.685942    1.751196    4.108356
     53          1           0        3.430001    2.908564    3.009331
     54          1           0        3.469176    3.696278    1.381311
     55          1           0        5.330600    5.024978    3.071474
     56          1           0        4.056034    4.549164    4.128325
     57          1           0        4.041441   -1.453533    6.256993
     58          1           0        4.016022   -3.149183    6.557221
     59          1           0        2.456680   -2.294254    6.435302
     60          1           0        2.694223   -4.954115    6.448352
     61          1           0        1.288481   -6.045462    5.937147
     62          1           0        1.179707   -4.264768    5.922067
     63          1           0        2.916011   -6.232083   -0.692370
     64          1           0        4.902903   -5.333242   -2.720258
     65          1           0        4.560852   -7.760025   -0.436863
     66          1           0        5.581672   -6.450051    0.249162
     67          1           0        5.675032   -6.804212   -1.397905
     68          1           0        2.723862   -6.473150   -3.286564
     69          1           0        3.085761   -5.045270   -4.249908
     70          1           0        1.174547   -5.520663   -2.089365
     71          1           0        0.880986   -4.681001   -3.649968
     72          1           0        1.710116   -3.856001   -2.254752
     73          1           0        4.857452    0.338709   -5.481251
     74          1           0        4.998252   -1.440912   -5.252802
     75          1           0        6.428240   -0.387994   -4.889399
     76          1           0        6.489743    3.085651   -1.134472
     77          1           0        5.104475    7.171419   -1.218321
     78          1           0        4.470584    6.579303    0.433136
     79          1           0        3.601855    6.426009   -1.105546
     80         12           0       -4.754788    0.231844   -0.551431
     81          6           0       -2.219263    2.771473   -0.572684
     82          6           0       -5.959582    1.668828    2.297810
     83          6           0       -6.718502   -2.242384   -0.252372
     84          6           0       -2.715858   -1.626095   -2.681344
     85          7           0       -4.089835    1.989944    0.614406
     86          6           0       -3.151465    2.914434    0.476116
     87          6           0       -3.264422    4.099586    1.472216
     88          6           0       -4.082920    3.357168    2.637451
     89          6           0       -4.786482    2.290697    1.800607
     90          6           0       -3.189761    2.658261    3.648942
     91          6           0       -4.075600    5.304283    0.878351
     92          6           0       -3.963441    6.608293    1.671280
     93          1           0       -3.957345    7.870799    0.937441
     94          7           0       -6.417964    0.033604    0.513048
     95          6           0       -6.755700    0.713200    1.629002
     96          6           0       -8.065584    0.185109    2.040705
     97          6           0       -8.397668   -0.975949    1.171001
     98          6           0       -7.154330   -1.122741    0.441171
     99          6           0       -8.902533    0.827052    3.108812
    100          6           0       -9.625940   -1.823042    1.029781
    101          8           0       -9.610791   -2.928111    0.380619
    102          6           0      -10.822879   -1.367795    1.751993
    103          7           0       -4.634465   -1.747331   -1.176519
    104          6           0       -5.649988   -2.602500   -0.963642
    105          6           0       -5.455289   -3.884160   -1.738133
    106          6           0       -4.213271   -3.615008   -2.708988
    107          6           0       -3.832083   -2.192446   -2.243797
    108          6           0       -5.184352   -5.133316   -0.899927
    109          6           0       -4.439553   -3.860826   -4.225903
    110          6           0       -5.413865   -2.843118   -4.773962
    111          7           0       -2.908165    0.567666   -1.621603
    112          6           0       -2.214841   -0.353924   -2.436508
    113          6           0       -0.954541    0.294952   -2.852485
    114          6           0       -0.991709    1.550310   -2.227030
    115          6           0       -2.181048    1.667217   -1.458078
    116          6           0        0.057559   -0.295146   -3.660914
    117          6           0       -0.290231    2.799041   -2.033890
    118          8           0        0.726747    3.306081   -2.505495
    119          6           0       -0.993780    3.596403   -0.852522
    120          6           0       -1.193708    5.016788   -1.305347
    121          8           0       -1.965131    5.277900   -2.245202
    122          8           0       -0.613776    5.847362   -0.419787
    123          6           0       -0.794649    7.268312   -0.819771
    124          1           0       -6.279774    1.902185    3.313640
    125          1           0       -7.413247   -3.085270   -0.271346
    126          1           0       -2.072315   -2.101837   -3.424445
    127          1           0       -2.318331    4.462509    1.855590
    128          1           0       -4.809559    4.023056    3.095647
    129          1           0       -2.152065    2.676651    3.350638
    130          1           0       -3.549483    1.639162    3.704373
    131          1           0       -3.341015    3.085813    4.644265
    132          1           0       -5.148746    5.105386    0.994655
    133          1           0       -3.804263    5.478945   -0.144632
    134          1           0       -3.140263    6.580795    2.395553
    135          1           0       -4.859113    6.717817    2.287553
    136          1           0       -8.326621    1.563355    3.682905
    137          1           0       -9.146466    0.045657    3.836679
    138          1           0       -9.831219    1.249465    2.719218
    139          1           0      -10.600423   -1.302044    2.814370
    140          1           0      -11.620391   -2.052353    1.456657
    141          1           0      -11.068022   -0.353283    1.418408
    142          1           0       -6.328153   -4.109660   -2.338431
    143          1           0       -3.358922   -4.264198   -2.467168
    144          1           0       -5.910982   -5.947437   -1.082376
    145          1           0       -5.184616   -4.850330    0.144320
    146          1           0       -4.192487   -5.565196   -1.021998
    147          1           0       -4.892396   -4.842204   -4.387113
    148          1           0       -3.525795   -3.827951   -4.809816
    149          1           0       -6.387802   -3.273035   -4.521574
    150          1           0       -5.294967   -2.740092   -5.850665
    151          1           0       -5.326938   -1.888708   -4.241806
    152          1           0        0.366548    0.458845   -4.372620
    153          1           0       -0.305123   -1.190528   -4.161433
    154          1           0        0.806360   -0.525870   -2.898467
    155          1           0       -0.341836    3.532645    0.019531
    156          1           0        0.203224    7.714394   -0.874201
    157          1           0       -1.499258    7.698565   -0.083462
    158          1           0       -1.168652    7.464335   -1.817840
 ---------------------------------------------------------------------

 SCF Done:  E(RCAM-B3LYP) =  -4069.80709748     A.U. after   19 cycles

 Excitation energies and oscillator strengths:

 Excited State   1:      Singlet-A      1.6436 eV  754.36 nm  f=0.1540  <S**2>=0.000
     309 -> 315       -0.11502
     310 -> 316        0.11929
     311 -> 313       -0.47602
     312 -> 314        0.49360
 This state for optimization and/or second-order correction.
 Total Energy, E(TD-HF/TD-DFT) =  -4069.74669769
 Copying the excited state density for this state as the 1-particle RhoCI density.

 Excited State   2:      Singlet-A      1.7088 eV  725.56 nm  f=0.5837  <S**2>=0.000
     309 -> 315        0.13134
     310 -> 316        0.12559
     311 -> 313        0.49200
     312 -> 314        0.47499

 Excited State   3:      Singlet-A      2.1812 eV  568.43 nm  f=0.0008  <S**2>=0.000
     309 -> 313       -0.43941
     310 -> 314        0.47149
     311 -> 315        0.18308
     312 -> 316       -0.19777

 Excited State   4:      Singlet-A      2.1991 eV  563.79 nm  f=0.1669  <S**2>=0.000
     309 -> 313        0.46588
     310 -> 314        0.43363
     311 -> 315       -0.20892
     312 -> 316       -0.19314

 Excited State   5:      Singlet-A      2.3503 eV  527.54 nm  f=0.0000  <S**2>=0.000
     312 -> 313        0.70532

 The electronic state is 1-A.
 Alpha  occ. eigenvalues --  -46.87641 -46.87309 -19.25904 -19.25616 -19.18684
 Alpha  occ. eigenvalues --  -19.18666 -19.18392 -19.18095 -19.17754 -19.17126
 Alpha  occ. eigenvalues --  -14.42295 -14.42179 -14.41307 -14.41005 -14.39241
 Alpha  occ. eigenvalues --  -14.38991 -14.38422 -14.38209 -10.38598 -10.38210
 Alpha  occ. eigenvalues --  -10.35322 -10.35077 -10.33970 -10.33287 -10.31499
 Alpha  occ. eigenvalues --  -10.31208 -10.31206 -10.30933 -10.30723 -10.30705
 Alpha  occ. eigenvalues --  -10.30368 -10.30328 -10.30117 -10.30000 -10.29942
 Alpha  occ. eigenvalues --  -10.29858 -10.29765 -10.29512 -10.29444 -10.29132
 Alpha  occ. eigenvalues --  -10.29121 -10.28996 -10.28572 -10.28497 -10.28470
 Alpha  occ. eigenvalues --  -10.28426 -10.28149 -10.28003 -10.27957 -10.27901
 Alpha  occ. eigenvalues --  -10.27578 -10.27574 -10.27554 -10.27482 -10.27408
 Alpha  occ. eigenvalues --  -10.27397 -10.27375 -10.27344 -10.27252 -10.27183
 Alpha  occ. eigenvalues --  -10.27182 -10.27111 -10.27081 -10.27077 -10.26708
 Alpha  occ. eigenvalues --  -10.26543 -10.26466 -10.26418 -10.26322 -10.26275
 Alpha  occ. eigenvalues --  -10.26162 -10.26088 -10.25931 -10.25904 -10.25873
 Alpha  occ. eigenvalues --  -10.25625 -10.25606 -10.25382 -10.25378 -10.25108
 Alpha  occ. eigenvalues --  -10.24906 -10.24625 -10.24586 -10.24521 -10.24420
 Alpha  occ. eigenvalues --  -10.24317  -3.16387  -3.16060  -1.91269  -1.90943
 Alpha  occ. eigenvalues --   -1.90855  -1.90697  -1.90532  -1.90367  -1.16179
 Alpha  occ. eigenvalues --   -1.15934  -1.08169  -1.07703  -1.07089  -1.06651
 Alpha  occ. eigenvalues --   -1.06422  -1.05762  -1.04407  -1.04154  -1.03611
 Alpha  occ. eigenvalues --   -1.03307  -1.03064  -1.02673  -1.02244  -1.01737
 Alpha  occ. eigenvalues --   -0.91700  -0.91535  -0.89436  -0.89161  -0.89021
 Alpha  occ. eigenvalues --   -0.88896  -0.88199  -0.87907  -0.87662  -0.87519
 Alpha  occ. eigenvalues --   -0.87381  -0.87337  -0.87127  -0.86782  -0.84818
 Alpha  occ. eigenvalues --   -0.84713  -0.83873  -0.83570  -0.82859  -0.82630
 Alpha  occ. eigenvalues --   -0.82461  -0.82351  -0.81261  -0.81211  -0.80353
 Alpha  occ. eigenvalues --   -0.80085  -0.78631  -0.78267  -0.77096  -0.76849
 Alpha  occ. eigenvalues --   -0.76751  -0.76593  -0.75681  -0.75504  -0.74767
 Alpha  occ. eigenvalues --   -0.74476  -0.72607  -0.72328  -0.71494  -0.71242
 Alpha  occ. eigenvalues --   -0.69906  -0.69489  -0.68704  -0.68523  -0.67441
 Alpha  occ. eigenvalues --   -0.67207  -0.67065  -0.66913  -0.65102  -0.64952
 Alpha  occ. eigenvalues --   -0.64666  -0.64426  -0.64399  -0.64315  -0.64153
 Alpha  occ. eigenvalues --   -0.63872  -0.61898  -0.61882  -0.60306  -0.59993
 Alpha  occ. eigenvalues --   -0.59629  -0.59492  -0.58798  -0.58619  -0.58283
 Alpha  occ. eigenvalues --   -0.58023  -0.57278  -0.57028  -0.56967  -0.56839
 Alpha  occ. eigenvalues --   -0.56119  -0.55833  -0.55585  -0.55520  -0.55347
 Alpha  occ. eigenvalues --   -0.55149  -0.55110  -0.54891  -0.54205  -0.54116
 Alpha  occ. eigenvalues --   -0.53711  -0.53638  -0.53141  -0.53033  -0.52887
 Alpha  occ. eigenvalues --   -0.52813  -0.52655  -0.52628  -0.52549  -0.52384
 Alpha  occ. eigenvalues --   -0.52288  -0.52091  -0.51677  -0.51435  -0.51428
 Alpha  occ. eigenvalues --   -0.51363  -0.50968  -0.50738  -0.50472  -0.50189
 Alpha  occ. eigenvalues --   -0.49986  -0.49775  -0.49697  -0.49557  -0.49336
 Alpha  occ. eigenvalues --   -0.49180  -0.48975  -0.48909  -0.48859  -0.48664
 Alpha  occ. eigenvalues --   -0.48396  -0.48266  -0.48194  -0.48177  -0.48042
 Alpha  occ. eigenvalues --   -0.47711  -0.47511  -0.47203  -0.47110  -0.46795
 Alpha  occ. eigenvalues --   -0.46654  -0.46388  -0.46371  -0.46274  -0.46198
 Alpha  occ. eigenvalues --   -0.45927  -0.45889  -0.45709  -0.45518  -0.45386
 Alpha  occ. eigenvalues --   -0.45091  -0.44878  -0.44410  -0.44287  -0.44231
 Alpha  occ. eigenvalues --   -0.44048  -0.44031  -0.43933  -0.43775  -0.43742
 Alpha  occ. eigenvalues --   -0.43715  -0.43444  -0.43258  -0.43206  -0.43174
 Alpha  occ. eigenvalues --   -0.43022  -0.42830  -0.42653  -0.42554  -0.42442
 Alpha  occ. eigenvalues --   -0.42250  -0.42083  -0.41877  -0.41665  -0.41459
 Alpha  occ. eigenvalues --   -0.41366  -0.41180  -0.41078  -0.40952  -0.40760
 Alpha  occ. eigenvalues --   -0.40701  -0.40617  -0.40443  -0.40437  -0.40428
 Alpha  occ. eigenvalues --   -0.40161  -0.40095  -0.39987  -0.39476  -0.39163
 Alpha  occ. eigenvalues --   -0.38395  -0.38066  -0.37593  -0.37400  -0.37214
 Alpha  occ. eigenvalues --   -0.37083  -0.36954  -0.36873  -0.36360  -0.36352
 Alpha  occ. eigenvalues --   -0.35860  -0.35625  -0.34111  -0.33882  -0.33389
 Alpha  occ. eigenvalues --   -0.33166  -0.32818  -0.32708  -0.31212  -0.30955
 Alpha  occ. eigenvalues --   -0.30821  -0.30615  -0.29610  -0.29275  -0.29090
 Alpha  occ. eigenvalues --   -0.29011  -0.28930  -0.28702  -0.23896  -0.23674
 Alpha  occ. eigenvalues --   -0.20965  -0.20755
 Alpha virt. eigenvalues --   -0.08587  -0.08391  -0.01602  -0.01352   0.00124
 Alpha virt. eigenvalues --    0.00345   0.02475   0.02568   0.03133   0.03604
 Alpha virt. eigenvalues --    0.04856   0.05015   0.05663   0.05789   0.06277

 Mulliken charges:
               1
     1  Mg   0.835831
     2  C    0.000142
     3  C   -0.094484
     4  C   -0.046336
     5  C   -0.066706
     6  N   -0.256133
     7  C   -0.053732
     8  C   -0.013142
     9  C   -0.086751
    10  C    0.045453
    11  C    0.104965
    12  C    0.052305
    13  C   -0.070691
    14  H    0.035144
    15  N   -0.433202
    16  C    0.167587
    17  C   -0.177808
    18  C   -0.004626
    19  C    0.148643
    20  C    0.110375
    21  C    0.011936
    22  O   -0.250459
    23  C    0.062698
    24  N   -0.341164
    25  C    0.040764
    26  C   -0.028078
    27  C   -0.023719
    28  C    0.075288
    29  C    0.076277
    30  C    0.035464
    31  C   -0.005154
    32  N   -0.312553
    33  C    0.079371
    34  C   -0.169614
    35  C    0.010879
    36  C    0.086369
    37  C    0.126377
    38  C    0.056339
    39  O   -0.185619
    40  C   -0.007980
    41  C    0.206978
    42  O   -0.234120
    43  O   -0.307898
    44  C    0.157816
    45  H   -0.018281
    46  H   -0.017692
    47  H   -0.042450
    48  H    0.001441
    49  H   -0.005127
    50  H    0.025673
    51  H    0.016212
    52  H    0.015921
    53  H    0.008535
    54  H    0.048277
    55  H    0.018034
    56  H    0.016128
    57  H    0.005223
    58  H    0.026332
    59  H    0.038242
    60  H    0.037102
    61  H    0.035158
    62  H    0.030911
    63  H    0.015509
    64  H    0.009696
    65  H    0.022745
    66  H    0.012923
    67  H    0.004504
    68  H    0.006346
    69  H    0.004704
    70  H    0.009201
    71  H    0.014206
    72  H    0.028509
    73  H    0.050213
    74  H    0.007503
    75  H    0.045700
    76  H    0.033209
    77  H    0.040410
    78  H    0.042845
    79  H    0.056164
    80  Mg   0.835845
    81  C   -0.016980
    82  C   -0.088105
    83  C   -0.046016
    84  C   -0.066619
    85  N   -0.253790
    86  C   -0.050674
    87  C   -0.014216
    88  C   -0.090299
    89  C    0.044557
    90  C    0.114747
    91  C    0.062805
    92  C   -0.076989
    93  H    0.034104
    94  N   -0.423179
    95  C    0.161719
    96  C   -0.175711
    97  C   -0.008710
    98  C    0.151438
    99  C    0.099821
   100  C    0.014845
   101  O   -0.254263
   102  C    0.061499
   103  N   -0.350232
   104  C    0.037064
   105  C   -0.019567
   106  C   -0.034915
   107  C    0.089951
   108  C    0.073741
   109  C    0.034947
   110  C   -0.007455
   111  N   -0.324457
   112  C    0.078770
   113  C   -0.169070
   114  C    0.005325
   115  C    0.094891
   116  C    0.132332
   117  C    0.040330
   118  O   -0.158949
   119  C    0.001219
   120  C    0.214808
   121  O   -0.252674
   122  O   -0.304991
   123  C    0.153693
   124  H   -0.021359
   125  H   -0.016522
   126  H   -0.041246
   127  H   -0.001668
   128  H   -0.005322
   129  H    0.021228
   130  H    0.014030
   131  H    0.014190
   132  H    0.013787
   133  H    0.038275
   134  H    0.019325
   135  H    0.018946
   136  H    0.007579
   137  H    0.024781
   138  H    0.038681
   139  H    0.037639
   140  H    0.035416
   141  H    0.033451
   142  H    0.013622
   143  H    0.012565
   144  H    0.024220
   145  H    0.011881
   146  H    0.005776
   147  H    0.005512
   148  H    0.002245
   149  H    0.010804
   150  H    0.017161
   151  H    0.030785
   152  H    0.047401
   153  H    0.004787
   154  H    0.052633
   155  H    0.037444
   156  H    0.039019
   157  H    0.047481
   158  H    0.053804
 Sum of Mulliken charges =  -0.00000

 Dipole moment (field-independent basis, Debye):
    X=              0.5245    Y=              0.5002    Z=              7.4768  Tot=              7.5119
 Quadrupole moment (field-independent basis, Debye-Ang):
   XX=           -507.5743   YY=           -505.0892   ZZ=           -484.0266
   XY=            -26.2923   XZ=              3.8764   YZ=             56.3692

 Normal termination of Gaussian 16 at Fri Sep 10 01:47:36 2021.
