 Gaussian 16, Revision A.03,
 Gaussian 16:  ES64L-G16RevA.03 25-Dec-2016

 -----------------------------------
 #p cam-b3lyp/Def2SVP td=(nstates=5)
 -----------------------------------

 --------------------------------
 TDDFT excited states in gaussian
 --------------------------------
 Symbolic Z-matrix:
 Charge =  0 Multiplicity = 1

                         Standard orientation:
 ---------------------------------------------------------------------
 Center     Atomic      Atomic             Coordinates (Angstroms)
 Number     Number       Type             X           Y           Z
 ---------------------------------------------------------------------
      1         12           0      -15.696536   -0.874096   -0.036525
      2          6           0      -15.927242    2.669206    0.415139
      3          6           0      -16.556122   -0.364380   -3.299095
      4          6           0      -15.943382   -4.020138   -0.349749
      5          6           0      -15.975971   -1.184788    3.423395
      6          7           0      -16.156217    0.965615   -1.178804
      7          6           0      -16.150892    2.266079   -0.903236
      8          6           0      -16.330618    3.165260   -2.162818
      9          6           0      -17.070392    2.121197   -3.113957
     10          6           0      -16.536103    0.830080   -2.519418
     11          6           0      -18.588879    2.136392   -2.970886
     12          6           0      -14.960460    3.620966   -2.768399
     13          6           0      -15.044136    4.756256   -3.792835
     14          1           0      -13.975296    5.742794   -3.833721
     15          7           0      -15.698668   -2.004020   -1.657055
     16          6           0      -16.063339   -1.627608   -2.906300
     17          6           0      -15.890061   -2.823172   -3.759109
     18          6           0      -15.576578   -3.975408   -2.869067
     19          6           0      -15.755126   -3.377005   -1.570832
     20          6           0      -15.975957   -2.786922   -5.254120
     21          6           0      -15.189375   -5.393909   -3.144859
     22          8           0      -15.188926   -6.288682   -2.231648
     23          6           0      -14.892039   -5.732705   -4.548372
     24          7           0      -16.146691   -2.404251    1.310182
     25          6           0      -16.129807   -3.686175    0.928907
     26          6           0      -16.201706   -4.608088    2.109943
     27          6           0      -16.025928   -3.686118    3.401774
     28          6           0      -15.961735   -2.306905    2.700403
     29          6           0      -17.492081   -5.428986    2.240585
     30          6           0      -14.892626   -4.065690    4.387660
     31          6           0      -13.547462   -3.846611    3.732195
     32          7           0      -15.736195    0.479520    1.659705
     33          6           0      -15.882330    0.133923    3.010957
     34          6           0      -15.960124    1.393752    3.773092
     35          6           0      -15.869905    2.391232    2.804206
     36          6           0      -15.770148    1.792473    1.515863
     37          6           0      -16.154583    1.507194    5.177994
     38          6           0      -15.859355    3.823658    2.555407
     39          8           0      -15.821435    4.827406    3.268531
     40          6           0      -16.018695    4.061320    0.988897
     41          6           0      -14.976370    5.063205    0.572849
     42          8           0      -13.762073    4.778734    0.616710
     43          8           0      -15.574123    6.102118   -0.030386
     44          6           0      -14.593265    7.119392   -0.494309
     45          1           0      -17.045229   -0.349507   -4.275053
     46          1           0      -15.923146   -5.110720   -0.401322
     47          1           0      -15.978570   -1.203273    4.514773
     48          1           0      -16.961310    4.041167   -2.009715
     49          1           0      -16.752964    2.220321   -4.151808
     50          1           0      -18.904808    2.772552   -2.144200
     51          1           0      -18.874074    1.100756   -2.784838
     52          1           0      -19.063898    2.413489   -3.912348
     53          1           0      -14.566159    2.827229   -3.402884
     54          1           0      -14.262773    3.899438   -1.977822
     55          1           0      -16.016913    5.247985   -3.764274
     56          1           0      -14.989991    4.320642   -4.790587
     57          1           0      -16.381494   -1.840324   -5.609137
     58          1           0      -16.718752   -3.528100   -5.548433
     59          1           0      -15.020410   -3.016725   -5.725769
     60          1           0      -15.766394   -5.518446   -5.163309
     61          1           0      -14.547755   -6.766279   -4.541769
     62          1           0      -14.096565   -5.079576   -4.908361
     63          1           0      -15.397269   -5.341959    2.082717
     64          1           0      -16.923508   -3.673596    4.020537
     65          1           0      -17.324280   -6.505649    2.277258
     66          1           0      -18.146088   -5.163178    1.410577
     67          1           0      -18.113519   -5.170431    3.097545
     68          1           0      -14.954404   -5.121812    4.647924
     69          1           0      -14.919386   -3.493457    5.315068
     70          1           0      -13.400656   -4.764993    3.164872
     71          1           0      -12.770924   -3.726462    4.488346
     72          1           0      -13.582113   -3.024119    3.017497
     73          1           0      -15.463649    2.277501    5.520348
     74          1           0      -15.970687    0.558159    5.681103
     75          1           0      -17.203145    1.802340    5.213530
     76          1           0      -17.030423    4.432985    0.829542
     77          1           0      -14.882955    8.071162   -0.048835
     78          1           0      -14.571921    7.055660   -1.582375
     79          1           0      -13.575883    7.016006   -0.115382
     80         12           0       16.060743   -0.640021    0.147365
     81          6           0       14.785385    2.709599    0.327869
     82          6           0       16.280136   -0.215066   -3.229896
     83          6           0       16.757325   -3.725976   -0.095764
     84          6           0       14.689055   -1.184176    3.304589
     85          7           0       15.567185    1.071616   -1.163725
     86          6           0       15.147726    2.313942   -0.976587
     87          6           0       15.190895    3.205550   -2.246523
     88          6           0       15.116525    2.047177   -3.356258
     89          6           0       15.723870    0.899275   -2.552456
     90          6           0       13.694776    1.665968   -3.733937
     91          6           0       16.525653    4.022880   -2.357907
     92          6           0       16.509503    5.141542   -3.401989
     93          1           0       17.242458    6.371653   -3.115504
     94          7           0       16.914755   -1.651197   -1.331402
     95          6           0       16.926944   -1.323489   -2.640507
     96          6           0       17.665951   -2.400137   -3.317893
     97          6           0       17.946550   -3.472933   -2.325369
     98          6           0       17.182260   -2.990480   -1.192582
     99          6           0       18.103844   -2.309805   -4.750900
    100          6           0       18.756916   -4.732036   -2.389769
    101          8           0       18.668496   -5.636646   -1.486063
    102          6           0       19.586968   -4.916824   -3.589084
    103          7           0       15.587215   -2.289120    1.321501
    104          6           0       16.060903   -3.510984    1.020520
    105          6           0       15.819961   -4.483060    2.150742
    106          6           0       15.299604   -3.596836    3.376061
    107          6           0       15.242364   -2.217183    2.684192
    108          6           0       14.813928   -5.598087    1.866086
    109          6           0       16.077751   -3.720720    4.714656
    110          6           0       17.467193   -3.145736    4.559045
    111          7           0       15.101163    0.572532    1.656331
    112          6           0       14.579711    0.138515    2.894791
    113          6           0       13.923617    1.303445    3.523206
    114          6           0       14.090164    2.336887    2.589005
    115          6           0       14.782288    1.845301    1.449346
    116          6           0       13.241786    1.300354    4.772698
    117          6           0       13.828550    3.729216    2.303180
    118          8           0       13.353716    4.671556    2.935830
    119          6           0       14.155989    4.000900    0.771725
    120          6           0       14.988700    5.250834    0.689438
    121          8           0       16.133577    5.280625    1.174178
    122          8           0       14.385733    6.128662   -0.132889
    123          6           0       15.179374    7.380424   -0.255496
    124          1           0       16.175557   -0.268370   -4.313916
    125          1           0       17.069517   -4.772762   -0.080394
    126          1           0       14.323682   -1.247489    4.331805
    127          1           0       14.350504    3.880381   -2.356555
    128          1           0       15.739449    2.282565   -4.215282
    129          1           0       12.965870    2.155912   -3.105616
    130          1           0       13.636528    0.592027   -3.614334
    131          1           0       13.521830    1.860722   -4.796245
    132          1           0       17.305328    3.378860   -2.784622
    133          1           0       16.807998    4.423266   -1.403664
    134          1           0       15.493205    5.370734   -3.744848
    135          1           0       17.021343    4.785934   -4.299531
    136          1           0       17.610843   -1.478950   -5.270556
    137          1           0       17.729942   -3.206614   -5.256657
    138          1           0       19.189993   -2.270722   -4.857774
    139          1           0       18.953655   -4.898829   -4.472865
    140          1           0       20.158935   -5.829494   -3.410844
    141          1           0       20.271693   -4.065731   -3.675195
    142          1           0       16.740049   -4.976181    2.439471
    143          1           0       14.266415   -3.852206    3.653805
    144          1           0       15.234377   -6.611724    2.006959
    145          1           0       14.445880   -5.476073    0.856042
    146          1           0       13.897841   -5.554362    2.452651
    147          1           0       16.205293   -4.772422    4.982628
    148          1           0       15.583211   -3.233632    5.548426
    149          1           0       18.028165   -3.972945    4.113949
    150          1           0       17.877093   -2.866919    5.527694
    151          1           0       17.472624   -2.318857    3.839398
    152          1           0       13.545231    2.197817    5.295186
    153          1           0       13.472052    0.406746    5.349067
    154          1           0       12.204090    1.310845    4.428658
    155          1           0       13.205553    4.106912    0.247306
    156          1           0       14.516313    8.207150    0.017540
    157          1           0       15.583841    7.378082   -1.285139
    158          1           0       15.996705    7.525928    0.441104
 ---------------------------------------------------------------------

 SCF Done:  E(RCAM-B3LYP) =  -4069.81175485     A.U. after   19 cycles

 Excitation energies and oscillator strengths:

 Excited State   1:      Singlet-A      1.6753 eV  740.06 nm  f=0.2339  <S**2>=0.000
     310 -> 316        0.16885
     311 -> 313        0.66750
     312 -> 314       -0.15847
     310 <- 316        0.10179
 This state for optimization and/or second-order correction.
 Total Energy, E(TD-HF/TD-DFT) =  -4069.75018763
 Copying the excited state density for this state as the 1-particle RhoCI density.

 Excited State   2:      Singlet-A      1.6801 eV  737.96 nm  f=0.5441  <S**2>=0.000
     309 -> 315        0.17085
     311 -> 313        0.15843
     312 -> 314        0.66713
     309 <- 315        0.10229

 Excited State   3:      Singlet-A      2.1861 eV  567.15 nm  f=0.0948  <S**2>=0.000
     310 -> 313        0.64206
     311 -> 316       -0.27296

 Excited State   4:      Singlet-A      2.1925 eV  565.49 nm  f=0.1053  <S**2>=0.000
     309 -> 314        0.64029
     312 -> 315       -0.27811

 Excited State   5:      Singlet-A      3.0604 eV  405.12 nm  f=0.0000  <S**2>=0.000
     312 -> 313        0.70710

 The electronic state is 1-A.
 Alpha  occ. eigenvalues --  -46.87778 -46.87660 -19.26345 -19.26262 -19.19157
 Alpha  occ. eigenvalues --  -19.18997 -19.18798 -19.18715 -19.18149 -19.18048
 Alpha  occ. eigenvalues --  -14.42497 -14.42431 -14.41431 -14.41358 -14.39384
 Alpha  occ. eigenvalues --  -14.39351 -14.38599 -14.38567 -10.39087 -10.39057
 Alpha  occ. eigenvalues --  -10.35432 -10.35392 -10.34369 -10.34225 -10.31752
 Alpha  occ. eigenvalues --  -10.31656 -10.31386 -10.31308 -10.31023 -10.30890
 Alpha  occ. eigenvalues --  -10.30551 -10.30488 -10.30397 -10.30359 -10.30189
 Alpha  occ. eigenvalues --  -10.30141 -10.29902 -10.29893 -10.29612 -10.29436
 Alpha  occ. eigenvalues --  -10.29400 -10.29236 -10.28730 -10.28718 -10.28654
 Alpha  occ. eigenvalues --  -10.28519 -10.28404 -10.28346 -10.28140 -10.28098
 Alpha  occ. eigenvalues --  -10.27999 -10.27774 -10.27708 -10.27669 -10.27566
 Alpha  occ. eigenvalues --  -10.27517 -10.27483 -10.27482 -10.27468 -10.27465
 Alpha  occ. eigenvalues --  -10.27465 -10.27431 -10.27384 -10.27375 -10.27138
 Alpha  occ. eigenvalues --  -10.27047 -10.26692 -10.26685 -10.26417 -10.26395
 Alpha  occ. eigenvalues --  -10.26217 -10.26164 -10.26136 -10.26025 -10.26000
 Alpha  occ. eigenvalues --  -10.25933 -10.25846 -10.25822 -10.25418 -10.25397
 Alpha  occ. eigenvalues --  -10.24871 -10.24813 -10.24769 -10.24730 -10.24689
 Alpha  occ. eigenvalues --  -10.24667  -3.16521  -3.16410  -1.91402  -1.91292
 Alpha  occ. eigenvalues --   -1.90989  -1.90880  -1.90831  -1.90717  -1.16639
 Alpha  occ. eigenvalues --   -1.16610  -1.08655  -1.08606  -1.07200  -1.06967
 Alpha  occ. eigenvalues --   -1.06942  -1.06620  -1.04562  -1.04495  -1.03742
 Alpha  occ. eigenvalues --   -1.03662  -1.03215  -1.03038  -1.02392  -1.02111
 Alpha  occ. eigenvalues --   -0.91986  -0.91953  -0.89501  -0.89493  -0.89169
 Alpha  occ. eigenvalues --   -0.89151  -0.88268  -0.88219  -0.87851  -0.87791
 Alpha  occ. eigenvalues --   -0.87683  -0.87654  -0.87256  -0.87120  -0.84999
 Alpha  occ. eigenvalues --   -0.84963  -0.83917  -0.83875  -0.82950  -0.82932
 Alpha  occ. eigenvalues --   -0.82652  -0.82630  -0.81594  -0.81565  -0.80577
 Alpha  occ. eigenvalues --   -0.80441  -0.78779  -0.78635  -0.77200  -0.77144
 Alpha  occ. eigenvalues --   -0.76915  -0.76897  -0.75904  -0.75837  -0.74879
 Alpha  occ. eigenvalues --   -0.74802  -0.72755  -0.72698  -0.71653  -0.71580
 Alpha  occ. eigenvalues --   -0.69888  -0.69757  -0.68854  -0.68827  -0.67622
 Alpha  occ. eigenvalues --   -0.67601  -0.67201  -0.67200  -0.65271  -0.65267
 Alpha  occ. eigenvalues --   -0.64834  -0.64769  -0.64652  -0.64601  -0.64250
 Alpha  occ. eigenvalues --   -0.64203  -0.62277  -0.62276  -0.60424  -0.60339
 Alpha  occ. eigenvalues --   -0.59796  -0.59785  -0.58992  -0.58968  -0.58484
 Alpha  occ. eigenvalues --   -0.58424  -0.57564  -0.57552  -0.57290  -0.57235
 Alpha  occ. eigenvalues --   -0.56291  -0.56203  -0.55957  -0.55884  -0.55502
 Alpha  occ. eigenvalues --   -0.55451  -0.55320  -0.55246  -0.54503  -0.54486
 Alpha  occ. eigenvalues --   -0.53912  -0.53876  -0.53280  -0.53227  -0.53203
 Alpha  occ. eigenvalues --   -0.53141  -0.52901  -0.52895  -0.52738  -0.52668
 Alpha  occ. eigenvalues --   -0.52419  -0.52400  -0.51895  -0.51881  -0.51658
 Alpha  occ. eigenvalues --   -0.51598  -0.51199  -0.51176  -0.50556  -0.50476
 Alpha  occ. eigenvalues --   -0.50013  -0.49980  -0.49901  -0.49867  -0.49496
 Alpha  occ. eigenvalues --   -0.49487  -0.49201  -0.49195  -0.49103  -0.49077
 Alpha  occ. eigenvalues --   -0.48573  -0.48557  -0.48443  -0.48427  -0.48375
 Alpha  occ. eigenvalues --   -0.48338  -0.47676  -0.47594  -0.47278  -0.47118
 Alpha  occ. eigenvalues --   -0.46778  -0.46708  -0.46553  -0.46536  -0.46340
 Alpha  occ. eigenvalues --   -0.46269  -0.46143  -0.46084  -0.45820  -0.45801
 Alpha  occ. eigenvalues --   -0.45208  -0.45183  -0.44558  -0.44512  -0.44489
 Alpha  occ. eigenvalues --   -0.44475  -0.44126  -0.44126  -0.44077  -0.44070
 Alpha  occ. eigenvalues --   -0.44000  -0.43938  -0.43551  -0.43474  -0.43385
 Alpha  occ. eigenvalues --   -0.43367  -0.43008  -0.42928  -0.42899  -0.42678
 Alpha  occ. eigenvalues --   -0.42634  -0.42553  -0.41990  -0.41963  -0.41685
 Alpha  occ. eigenvalues --   -0.41668  -0.41515  -0.41458  -0.41122  -0.40989
 Alpha  occ. eigenvalues --   -0.40850  -0.40806  -0.40722  -0.40698  -0.40552
 Alpha  occ. eigenvalues --   -0.40492  -0.40227  -0.40215  -0.39425  -0.39422
 Alpha  occ. eigenvalues --   -0.38450  -0.38350  -0.37729  -0.37653  -0.37301
 Alpha  occ. eigenvalues --   -0.37265  -0.37244  -0.37199  -0.36768  -0.36692
 Alpha  occ. eigenvalues --   -0.36216  -0.36172  -0.34267  -0.34252  -0.33859
 Alpha  occ. eigenvalues --   -0.33748  -0.33175  -0.33167  -0.31328  -0.31274
 Alpha  occ. eigenvalues --   -0.31017  -0.30972  -0.30008  -0.29952  -0.29431
 Alpha  occ. eigenvalues --   -0.29327  -0.29302  -0.29210  -0.24061  -0.24035
 Alpha  occ. eigenvalues --   -0.21116  -0.21109
 Alpha virt. eigenvalues --   -0.08791  -0.08755  -0.01731  -0.01683  -0.00040
 Alpha virt. eigenvalues --   -0.00028   0.02209   0.02220   0.03143   0.03225
 Alpha virt. eigenvalues --    0.04730   0.04737   0.05120   0.05168   0.06183

 Mulliken charges:
               1
     1  Mg   0.838821
     2  C   -0.002937
     3  C   -0.094125
     4  C   -0.045891
     5  C   -0.063954
     6  N   -0.256804
     7  C   -0.052457
     8  C   -0.014010
     9  C   -0.087002
    10  C    0.046327
    11  C    0.104817
    12  C    0.053469
    13  C   -0.071806
    14  H    0.036167
    15  N   -0.433144
    16  C    0.168415
    17  C   -0.177173
    18  C   -0.004030
    19  C    0.148719
    20  C    0.110189
    21  C    0.012287
    22  O   -0.249646
    23  C    0.062476
    24  N   -0.341148
    25  C    0.041246
    26  C   -0.028186
    27  C   -0.023948
    28  C    0.074825
    29  C    0.076185
    30  C    0.035130
    31  C   -0.004503
    32  N   -0.310486
    33  C    0.080424
    34  C   -0.169689
    35  C    0.008369
    36  C    0.083006
    37  C    0.127305
    38  C    0.046148
    39  O   -0.188391
    40  C   -0.005367
    41  C    0.212888
    42  O   -0.257071
    43  O   -0.304811
    44  C    0.157677
    45  H   -0.017631
    46  H   -0.016857
    47  H   -0.041477
    48  H    0.000940
    49  H   -0.004048
    50  H    0.025474
    51  H    0.016433
    52  H    0.016633
    53  H    0.011199
    54  H    0.044158
    55  H    0.017857
    56  H    0.017923
    57  H    0.005860
    58  H    0.026791
    59  H    0.039528
    60  H    0.037328
    61  H    0.035618
    62  H    0.031500
    63  H    0.016548
    64  H    0.009451
    65  H    0.023191
    66  H    0.012530
    67  H    0.004742
    68  H    0.006347
    69  H    0.004747
    70  H    0.008762
    71  H    0.018181
    72  H    0.028992
    73  H    0.047621
    74  H    0.009123
    75  H    0.045999
    76  H    0.035141
    77  H    0.042962
    78  H    0.046382
    79  H    0.053738
    80  Mg   0.837807
    81  C   -0.016821
    82  C   -0.087792
    83  C   -0.045519
    84  C   -0.064871
    85  N   -0.254561
    86  C   -0.049839
    87  C   -0.015093
    88  C   -0.090502
    89  C    0.045751
    90  C    0.114378
    91  C    0.062538
    92  C   -0.077906
    93  H    0.034916
    94  N   -0.423483
    95  C    0.162906
    96  C   -0.174640
    97  C   -0.007809
    98  C    0.152126
    99  C    0.099369
   100  C    0.015556
   101  O   -0.253189
   102  C    0.061192
   103  N   -0.350045
   104  C    0.037519
   105  C   -0.019825
   106  C   -0.034865
   107  C    0.088949
   108  C    0.073660
   109  C    0.034738
   110  C   -0.007681
   111  N   -0.324120
   112  C    0.078462
   113  C   -0.163115
   114  C    0.002280
   115  C    0.096182
   116  C    0.131480
   117  C    0.042418
   118  O   -0.187765
   119  C    0.000920
   120  C    0.211265
   121  O   -0.251022
   122  O   -0.305623
   123  C    0.152022
   124  H   -0.019683
   125  H   -0.015582
   126  H   -0.040409
   127  H   -0.000627
   128  H   -0.004338
   129  H    0.022495
   130  H    0.014422
   131  H    0.016259
   132  H    0.013910
   133  H    0.037687
   134  H    0.020795
   135  H    0.019574
   136  H    0.008750
   137  H    0.026121
   138  H    0.039785
   139  H    0.038240
   140  H    0.036390
   141  H    0.033899
   142  H    0.014398
   143  H    0.012464
   144  H    0.025134
   145  H    0.011630
   146  H    0.005704
   147  H    0.006270
   148  H    0.003688
   149  H    0.010921
   150  H    0.017950
   151  H    0.030100
   152  H    0.046049
   153  H    0.008532
   154  H    0.047032
   155  H    0.035075
   156  H    0.043959
   157  H    0.049470
   158  H    0.053585
 Sum of Mulliken charges =  -0.00000

 Dipole moment (field-independent basis, Debye):
    X=             -2.1668    Y=             -2.2194    Z=             -8.3092  Tot=              8.8693
 Quadrupole moment (field-independent basis, Debye-Ang):
   XX=           -460.9306   YY=           -542.7189   ZZ=           -455.8473
   XY=              5.9226   XZ=             -8.7403   YZ=            -54.4402

 Normal termination of Gaussian 16 at Sun Sep 12 19:04:31 2021.
