 Gaussian 16, Revision A.03,
 Gaussian 16:  ES64L-G16RevA.03 25-Dec-2016

 -----------------------------------
 #p cam-b3lyp/Def2SVP td=(nstates=5)
 -----------------------------------

 --------------------------------
 TDDFT excited states in gaussian
 --------------------------------
 Symbolic Z-matrix:
 Charge =  0 Multiplicity = 1

                         Standard orientation:
 ---------------------------------------------------------------------
 Center     Atomic      Atomic             Coordinates (Angstroms)
 Number     Number       Type             X           Y           Z
 ---------------------------------------------------------------------
      1         12           0       -5.287874   -0.429846    0.244306
      2          6           0       -5.239204    3.134684    0.566761
      3          6           0       -6.253028    0.025435   -2.996721
      4          6           0       -5.777192   -3.557928    0.064610
      5          6           0       -5.434232   -0.594828    3.722384
      6          7           0       -5.662816    1.396949   -0.948541
      7          6           0       -5.550375    2.702425   -0.724351
      8          6           0       -5.720205    3.566847   -2.009383
      9          6           0       -6.575917    2.547457   -2.887220
     10          6           0       -6.111135    1.242216   -2.265733
     11          6           0       -8.081335    2.680895   -2.681275
     12          6           0       -4.348920    3.897201   -2.689217
     13          6           0       -4.395324    4.998179   -3.752724
     14          1           0       -3.260302    5.900215   -3.876845
     15          7           0       -5.444838   -1.613736   -1.329421
     16          6           0       -5.836587   -1.256139   -2.575993
     17          6           0       -5.789242   -2.491044   -3.388059
     18          6           0       -5.521118   -3.630847   -2.467705
     19          6           0       -5.597335   -2.974726   -1.187441
     20          6           0       -5.939027   -2.502017   -4.878426
     21          6           0       -5.251085   -5.083220   -2.703983
     22          8           0       -5.275042   -5.942283   -1.757404
     23          6           0       -5.042296   -5.493245   -4.104458
     24          7           0       -5.787724   -1.873017    1.667345
     25          6           0       -5.881412   -3.165455    1.335968
     26          6           0       -5.967454   -4.036587    2.554025
     27          6           0       -5.667339   -3.084645    3.800416
     28          6           0       -5.534187   -1.740038    3.043730
     29          6           0       -7.307110   -4.753827    2.770590
     30          6           0       -4.521782   -3.512103    4.751939
     31          6           0       -3.194882   -3.417488    4.032577
     32          7           0       -5.152854    0.982794    1.886641
     33          6           0       -5.263231    0.697629    3.255280
     34          6           0       -5.214811    1.986217    3.970309
     35          6           0       -5.095520    2.938884    2.960339
     36          6           0       -5.097390    2.288636    1.693269
     37          6           0       -5.337468    2.164041    5.376640
     38          6           0       -4.991699    4.356716    2.655658
     39          8           0       -4.848850    5.379722    3.326887
     40          6           0       -5.203171    4.549381    1.089138
     41          6           0       -4.110223    5.455260    0.590985
     42          8           0       -2.919154    5.082829    0.594923
     43          8           0       -4.657013    6.513580   -0.026689
     44          6           0       -3.626325    7.437664   -0.570660
     45          1           0       -6.782897    0.041785   -3.951139
     46          1           0       -5.838849   -4.648130    0.054792
     47          1           0       -5.389370   -0.574000    4.812799
     48          1           0       -6.277879    4.492240   -1.864223
     49          1           0       -6.298831    2.585442   -3.940549
     50          1           0       -8.312761    3.368009   -1.867495
     51          1           0       -8.432673    1.676719   -2.443190
     52          1           0       -8.576508    2.958756   -3.612068
     53          1           0       -4.042304    3.054088   -3.308255
     54          1           0       -3.598138    4.151012   -1.940064
     55          1           0       -5.327408    5.561750   -3.702573
     56          1           0       -4.417750    4.524315   -4.734126
     57          1           0       -6.289938   -1.541140   -5.252753
     58          1           0       -6.746298   -3.195828   -5.112197
     59          1           0       -5.024825   -2.819131   -5.380427
     60          1           0       -5.925321   -5.236559   -4.690058
     61          1           0       -4.774334   -6.548703   -4.072011
     62          1           0       -4.218214   -4.914522   -4.522691
     63          1           0       -5.220688   -4.828876    2.521709
     64          1           0       -6.533051   -2.983124    4.455329
     65          1           0       -7.216781   -5.837997    2.842141
     66          1           0       -7.976453   -4.469887    1.959018
     67          1           0       -7.869103   -4.419172    3.642134
     68          1           0       -4.648696   -4.550690    5.055543
     69          1           0       -4.465256   -2.906646    5.656637
     70          1           0       -3.140938   -4.363970    3.495833
     71          1           0       -2.378620   -3.328567    4.750226
     72          1           0       -3.201397   -2.620806    3.288438
     73          1           0       -4.577597    2.892466    5.659414
     74          1           0       -5.200943    1.222554    5.908210
     75          1           0       -6.359081    2.537599    5.444599
     76          1           0       -6.191220    4.989476    0.957997
     77          1           0       -3.825644    8.423709   -0.150872
     78          1           0       -3.658357    7.333622   -1.655351
     79          1           0       -2.603266    7.272365   -0.231005
     80         12           0        5.271035   -1.138600   -0.148417
     81          6           0        5.787115    2.400126    0.151806
     82          6           0        3.897719   -0.527650   -3.210332
     83          6           0        4.395240   -4.186444   -0.253544
     84          6           0        5.612898   -1.341860    3.313889
     85          7           0        4.941543    0.736183   -1.274849
     86          6           0        5.234431    2.014207   -1.087165
     87          6           0        4.991519    2.918298   -2.325367
     88          6           0        3.891884    2.015596   -3.070226
     89          6           0        4.283258    0.647083   -2.516441
     90          6           0        2.468313    2.318419   -2.633112
     91          6           0        6.281700    3.091388   -3.201436
     92          6           0        6.202730    4.203295   -4.249858
     93          1           0        7.411432    4.967042   -4.546824
     94          7           0        4.746184   -2.271537   -1.690995
     95          6           0        4.226366   -1.857064   -2.865420
     96          6           0        3.994499   -3.076242   -3.655362
     97          6           0        4.266024   -4.255306   -2.788889
     98          6           0        4.463896   -3.602752   -1.510178
     99          6           0        3.634943   -3.045594   -5.112491
    100          6           0        4.323772   -5.727652   -3.062918
    101          8           0        4.341146   -6.589006   -2.113917
    102          6           0        4.265098   -6.134575   -4.474466
    103          7           0        4.826440   -2.529716    1.331281
    104          6           0        4.525176   -3.801697    1.016262
    105          6           0        4.514429   -4.679988    2.244629
    106          6           0        5.110815   -3.778018    3.422917
    107          6           0        5.287795   -2.447715    2.658479
    108          6           0        3.148092   -5.223503    2.661858
    109          6           0        6.327001   -4.350828    4.201028
    110          6           0        7.535634   -4.414677    3.295211
    111          7           0        5.814904    0.217612    1.443114
    112          6           0        5.870170   -0.067406    2.825057
    113          6           0        6.176363    1.200243    3.519134
    114          6           0        6.255879    2.146786    2.486557
    115          6           0        5.996236    1.517595    1.239071
    116          6           0        6.294622    1.370062    4.927431
    117          6           0        6.489953    3.537198    2.169256
    118          8           0        6.842992    4.526786    2.809412
    119          6           0        6.072112    3.787539    0.656270
    120          6           0        7.177101    4.561635   -0.008773
    121          8           0        8.300334    4.051464   -0.165857
    122          8           0        6.667743    5.687381   -0.541344
    123          6           0        7.723509    6.483729   -1.221798
    124          1           0        3.246148   -0.427001   -4.078781
    125          1           0        4.205172   -5.262196   -0.243078
    126          1           0        5.832360   -1.340495    4.383704
    127          1           0        4.580466    3.895237   -2.100881
    128          1           0        4.023658    2.042362   -4.148784
    129          1           0        2.439825    3.010813   -1.804909
    130          1           0        2.040147    1.367030   -2.345758
    131          1           0        1.878900    2.669146   -3.485122
    132          1           0        6.387083    2.219510   -3.859809
    133          1           0        7.145426    3.238839   -2.582677
    134          1           0        5.355950    4.877488   -4.072702
    135          1           0        5.986195    3.750352   -5.220413
    136          1           0        3.342893   -2.038128   -5.433636
    137          1           0        2.724157   -3.642740   -5.229725
    138          1           0        4.417226   -3.465643   -5.748291
    139          1           0        3.345406   -5.762484   -4.919636
    140          1           0        4.409517   -7.216715   -4.472873
    141          1           0        5.091129   -5.655048   -5.011432
    142          1           0        5.151707   -5.544901    2.107197
    143          1           0        4.365693   -3.591340    4.210182
    144          1           0        3.117249   -6.327856    2.721266
    145          1           0        2.407720   -4.859519    1.961931
    146          1           0        2.772150   -4.847814    3.611988
    147          1           0        6.123718   -5.376049    4.520036
    148          1           0        6.578681   -3.781072    5.089305
    149          1           0        7.390595   -5.355685    2.756169
    150          1           0        8.452648   -4.432493    3.880713
    151          1           0        7.516839   -3.605219    2.556245
    152          1           0        7.160960    1.996376    5.093839
    153          1           0        6.391028    0.413363    5.436540
    154          1           0        5.340493    1.857035    5.145962
    155          1           0        5.131854    4.340202    0.663231
    156          1           0        7.703850    7.484501   -0.779363
    157          1           0        7.505138    6.406835   -2.303529
    158          1           0        8.754866    6.197587   -1.051884
 ---------------------------------------------------------------------

 SCF Done:  E(RCAM-B3LYP) =  -4069.81146708     A.U. after   19 cycles

 Excitation energies and oscillator strengths:

 Excited State   1:      Singlet-A      1.6567 eV  748.38 nm  f=0.0103  <S**2>=0.000
     309 -> 315       -0.11317
     310 -> 316        0.12559
     311 -> 313       -0.45800
     312 -> 314        0.51229
 This state for optimization and/or second-order correction.
 Total Energy, E(TD-HF/TD-DFT) =  -4069.75058447
 Copying the excited state density for this state as the 1-particle RhoCI density.

 Excited State   2:      Singlet-A      1.6964 eV  730.85 nm  f=0.7124  <S**2>=0.000
     309 -> 315        0.13436
     310 -> 316        0.11910
     311 -> 313        0.51034
     312 -> 314        0.45633

 Excited State   3:      Singlet-A      2.1825 eV  568.09 nm  f=0.0233  <S**2>=0.000
     309 -> 313       -0.26855
     310 -> 314        0.58556
     311 -> 315        0.11187
     312 -> 316       -0.24541

 Excited State   4:      Singlet-A      2.1946 eV  564.95 nm  f=0.1580  <S**2>=0.000
     309 -> 313        0.58173
     310 -> 314        0.26532
     311 -> 315       -0.25516
     312 -> 316       -0.11730

 Excited State   5:      Singlet-A      2.4778 eV  500.37 nm  f=0.0000  <S**2>=0.000
     312 -> 313        0.70708

 The electronic state is 1-A.
 Alpha  occ. eigenvalues --  -46.87905 -46.87495 -19.26401 -19.26184 -19.19140
 Alpha  occ. eigenvalues --  -19.18997 -19.18904 -19.18587 -19.18259 -19.17865
 Alpha  occ. eigenvalues --  -14.42565 -14.42328 -14.41553 -14.41197 -14.39511
 Alpha  occ. eigenvalues --  -14.39193 -14.38691 -14.38430 -10.39197 -10.38922
 Alpha  occ. eigenvalues --  -10.35539 -10.35268 -10.34481 -10.34039 -10.31797
 Alpha  occ. eigenvalues --  -10.31614 -10.31521 -10.31132 -10.31032 -10.30861
 Alpha  occ. eigenvalues --  -10.30678 -10.30606 -10.30309 -10.30232 -10.30194
 Alpha  occ. eigenvalues --  -10.30013 -10.29996 -10.29733 -10.29728 -10.29360
 Alpha  occ. eigenvalues --  -10.29285 -10.29245 -10.28901 -10.28758 -10.28548
 Alpha  occ. eigenvalues --  -10.28540 -10.28474 -10.28256 -10.28238 -10.27947
 Alpha  occ. eigenvalues --  -10.27894 -10.27842 -10.27838 -10.27690 -10.27623
 Alpha  occ. eigenvalues --  -10.27585 -10.27526 -10.27514 -10.27511 -10.27394
 Alpha  occ. eigenvalues --  -10.27387 -10.27317 -10.27313 -10.27263 -10.27236
 Alpha  occ. eigenvalues --  -10.26908 -10.26847 -10.26556 -10.26517 -10.26355
 Alpha  occ. eigenvalues --  -10.26333 -10.26265 -10.26121 -10.26026 -10.25916
 Alpha  occ. eigenvalues --  -10.25779 -10.25750 -10.25668 -10.25502 -10.25258
 Alpha  occ. eigenvalues --  -10.24932 -10.24886 -10.24772 -10.24702 -10.24624
 Alpha  occ. eigenvalues --  -10.24527  -3.16648  -3.16245  -1.91530  -1.91127
 Alpha  occ. eigenvalues --   -1.91116  -1.90958  -1.90716  -1.90553  -1.16750
 Alpha  occ. eigenvalues --   -1.16478  -1.08716  -1.08469  -1.07303  -1.06840
 Alpha  occ. eigenvalues --   -1.06781  -1.06760  -1.04697  -1.04326  -1.03866
 Alpha  occ. eigenvalues --   -1.03500  -1.03338  -1.02877  -1.02516  -1.01947
 Alpha  occ. eigenvalues --   -0.92079  -0.91811  -0.89615  -0.89346  -0.89332
 Alpha  occ. eigenvalues --   -0.88971  -0.88379  -0.88077  -0.87966  -0.87793
 Alpha  occ. eigenvalues --   -0.87623  -0.87526  -0.87386  -0.86996  -0.85120
 Alpha  occ. eigenvalues --   -0.84836  -0.84025  -0.83736  -0.83071  -0.82817
 Alpha  occ. eigenvalues --   -0.82773  -0.82497  -0.81697  -0.81435  -0.80708
 Alpha  occ. eigenvalues --   -0.80286  -0.78906  -0.78494  -0.77334  -0.77058
 Alpha  occ. eigenvalues --   -0.76991  -0.76740  -0.76042  -0.75664  -0.74991
 Alpha  occ. eigenvalues --   -0.74653  -0.72878  -0.72537  -0.71778  -0.71411
 Alpha  occ. eigenvalues --   -0.69996  -0.69625  -0.69002  -0.68668  -0.67748
 Alpha  occ. eigenvalues --   -0.67447  -0.67368  -0.67064  -0.65420  -0.65105
 Alpha  occ. eigenvalues --   -0.64961  -0.64734  -0.64610  -0.64494  -0.64366
 Alpha  occ. eigenvalues --   -0.64057  -0.62406  -0.62119  -0.60547  -0.60204
 Alpha  occ. eigenvalues --   -0.59934  -0.59622  -0.59092  -0.58832  -0.58608
 Alpha  occ. eigenvalues --   -0.58265  -0.57690  -0.57408  -0.57374  -0.57086
 Alpha  occ. eigenvalues --   -0.56416  -0.56099  -0.56051  -0.55732  -0.55627
 Alpha  occ. eigenvalues --   -0.55434  -0.55307  -0.55097  -0.54624  -0.54339
 Alpha  occ. eigenvalues --   -0.54038  -0.53740  -0.53404  -0.53346  -0.53081
 Alpha  occ. eigenvalues --   -0.53028  -0.52989  -0.52879  -0.52749  -0.52540
 Alpha  occ. eigenvalues --   -0.52527  -0.52274  -0.52002  -0.51754  -0.51707
 Alpha  occ. eigenvalues --   -0.51508  -0.51301  -0.51040  -0.50692  -0.50370
 Alpha  occ. eigenvalues --   -0.50131  -0.50030  -0.49827  -0.49728  -0.49635
 Alpha  occ. eigenvalues --   -0.49338  -0.49324  -0.49219  -0.49038  -0.48919
 Alpha  occ. eigenvalues --   -0.48702  -0.48554  -0.48544  -0.48391  -0.48231
 Alpha  occ. eigenvalues --   -0.48200  -0.47810  -0.47448  -0.47404  -0.46983
 Alpha  occ. eigenvalues --   -0.46906  -0.46694  -0.46556  -0.46463  -0.46395
 Alpha  occ. eigenvalues --   -0.46260  -0.46124  -0.45927  -0.45925  -0.45652
 Alpha  occ. eigenvalues --   -0.45293  -0.45059  -0.44682  -0.44626  -0.44351
 Alpha  occ. eigenvalues --   -0.44320  -0.44247  -0.44216  -0.44126  -0.43954
 Alpha  occ. eigenvalues --   -0.43941  -0.43792  -0.43601  -0.43504  -0.43396
 Alpha  occ. eigenvalues --   -0.43223  -0.43132  -0.42806  -0.42772  -0.42752
 Alpha  occ. eigenvalues --   -0.42734  -0.42416  -0.42118  -0.41820  -0.41810
 Alpha  occ. eigenvalues --   -0.41670  -0.41497  -0.41306  -0.41251  -0.40998
 Alpha  occ. eigenvalues --   -0.40935  -0.40817  -0.40668  -0.40591  -0.40549
 Alpha  occ. eigenvalues --   -0.40405  -0.40343  -0.40087  -0.39531  -0.39297
 Alpha  occ. eigenvalues --   -0.38571  -0.38205  -0.37909  -0.37511  -0.37421
 Alpha  occ. eigenvalues --   -0.37398  -0.37116  -0.37038  -0.36823  -0.36614
 Alpha  occ. eigenvalues --   -0.36302  -0.36063  -0.34393  -0.34088  -0.33888
 Alpha  occ. eigenvalues --   -0.33698  -0.33293  -0.33013  -0.31434  -0.31144
 Alpha  occ. eigenvalues --   -0.31142  -0.30808  -0.30119  -0.29767  -0.29553
 Alpha  occ. eigenvalues --   -0.29421  -0.29177  -0.29039  -0.24188  -0.23868
 Alpha  occ. eigenvalues --   -0.21235  -0.20955
 Alpha virt. eigenvalues --   -0.08879  -0.08631  -0.01854  -0.01525  -0.00164
 Alpha virt. eigenvalues --    0.00120   0.02106   0.02382   0.02988   0.03377
 Alpha virt. eigenvalues --    0.04587   0.04895   0.04982   0.05335   0.06006

 Mulliken charges:
               1
     1  Mg   0.838508
     2  C   -0.003245
     3  C   -0.094939
     4  C   -0.045446
     5  C   -0.063751
     6  N   -0.256711
     7  C   -0.052761
     8  C   -0.013847
     9  C   -0.086880
    10  C    0.046024
    11  C    0.104788
    12  C    0.053778
    13  C   -0.071402
    14  H    0.034862
    15  N   -0.433145
    16  C    0.168189
    17  C   -0.177689
    18  C   -0.003935
    19  C    0.148748
    20  C    0.110302
    21  C    0.012605
    22  O   -0.248807
    23  C    0.062602
    24  N   -0.341089
    25  C    0.041155
    26  C   -0.028294
    27  C   -0.024042
    28  C    0.074875
    29  C    0.076063
    30  C    0.035074
    31  C   -0.004553
    32  N   -0.310546
    33  C    0.080500
    34  C   -0.169386
    35  C    0.008595
    36  C    0.083043
    37  C    0.127227
    38  C    0.046359
    39  O   -0.187734
    40  C   -0.005447
    41  C    0.213127
    42  O   -0.257536
    43  O   -0.304692
    44  C    0.157546
    45  H   -0.017743
    46  H   -0.016392
    47  H   -0.041199
    48  H    0.001248
    49  H   -0.004642
    50  H    0.025711
    51  H    0.016710
    52  H    0.016664
    53  H    0.009922
    54  H    0.043693
    55  H    0.018693
    56  H    0.017381
    57  H    0.005536
    58  H    0.027157
    59  H    0.038297
    60  H    0.037268
    61  H    0.036332
    62  H    0.030333
    63  H    0.016989
    64  H    0.009672
    65  H    0.023550
    66  H    0.012547
    67  H    0.004880
    68  H    0.006599
    69  H    0.004755
    70  H    0.009340
    71  H    0.017459
    72  H    0.029071
    73  H    0.048091
    74  H    0.009221
    75  H    0.046238
    76  H    0.035344
    77  H    0.043648
    78  H    0.045819
    79  H    0.053714
    80  Mg   0.838308
    81  C   -0.016429
    82  C   -0.087896
    83  C   -0.045451
    84  C   -0.064758
    85  N   -0.254615
    86  C   -0.048782
    87  C   -0.015156
    88  C   -0.090890
    89  C    0.046249
    90  C    0.114510
    91  C    0.062612
    92  C   -0.077441
    93  H    0.034229
    94  N   -0.423443
    95  C    0.162936
    96  C   -0.175213
    97  C   -0.007950
    98  C    0.151960
    99  C    0.099809
   100  C    0.015450
   101  O   -0.253151
   102  C    0.061389
   103  N   -0.349939
   104  C    0.037439
   105  C   -0.019761
   106  C   -0.034788
   107  C    0.089108
   108  C    0.073739
   109  C    0.034776
   110  C   -0.007589
   111  N   -0.324318
   112  C    0.078952
   113  C   -0.162697
   114  C    0.002951
   115  C    0.096300
   116  C    0.131217
   117  C    0.043127
   118  O   -0.187423
   119  C    0.000516
   120  C    0.210997
   121  O   -0.251516
   122  O   -0.305159
   123  C    0.152233
   124  H   -0.020774
   125  H   -0.015679
   126  H   -0.040635
   127  H    0.000199
   128  H   -0.005667
   129  H    0.026608
   130  H    0.014627
   131  H    0.014589
   132  H    0.013475
   133  H    0.037548
   134  H    0.020825
   135  H    0.018893
   136  H    0.007918
   137  H    0.024706
   138  H    0.039220
   139  H    0.037483
   140  H    0.036139
   141  H    0.033573
   142  H    0.014078
   143  H    0.012226
   144  H    0.024856
   145  H    0.012459
   146  H    0.004987
   147  H    0.005889
   148  H    0.003505
   149  H    0.010795
   150  H    0.017640
   151  H    0.030265
   152  H    0.045755
   153  H    0.007997
   154  H    0.048448
   155  H    0.037444
   156  H    0.043875
   157  H    0.049065
   158  H    0.053227
 Sum of Mulliken charges =  -0.00000

 Dipole moment (field-independent basis, Debye):
    X=             -5.1263    Y=             -1.4605    Z=             -6.9797  Tot=              8.7823
 Quadrupole moment (field-independent basis, Debye-Ang):
   XX=           -526.8502   YY=           -545.9194   ZZ=           -451.4187
   XY=            -11.6092   XZ=              3.3836   YZ=            -50.5417

 Normal termination of Gaussian 16 at Fri Sep 10 09:36:02 2021.
