 Gaussian 16, Revision A.03,
 Gaussian 16:  ES64L-G16RevA.03 25-Dec-2016

 -----------------------------------
 #p cam-b3lyp/Def2SVP td=(nstates=5)
 -----------------------------------

 --------------------------------
 TDDFT excited states in gaussian
 --------------------------------
 Symbolic Z-matrix:
 Charge =  0 Multiplicity = 1

                         Standard orientation:
 ---------------------------------------------------------------------
 Center     Atomic      Atomic             Coordinates (Angstroms)
 Number     Number       Type             X           Y           Z
 ---------------------------------------------------------------------
      1         12           0        6.784697    0.281883    0.034676
      2          6           0        6.747405   -3.252784   -0.528308
      3          6           0        7.602757    0.647486   -3.257766
      4          6           0        7.268223    3.362920    0.609166
      5          6           0        7.087425   -0.412039    3.436513
      6          7           0        7.104007   -1.191544   -1.586341
      7          6           0        7.000598   -2.513139   -1.685661
      8          6           0        7.111714   -3.033224   -3.150085
      9          6           0        7.928001   -1.820585   -3.786624
     10          6           0        7.492790   -0.713074   -2.843259
     11          6           0        9.441036   -1.985201   -3.685990
     12          6           0        5.710958   -3.200224   -3.829588
     13          6           0        5.708522   -4.005324   -5.132340
     14          1           0        4.568266   -4.860669   -5.424828
     15          7           0        6.871802    1.817963   -1.204566
     16          6           0        7.206793    1.781921   -2.516728
     17          6           0        7.124084    3.178054   -2.996989
     18          6           0        6.898623    4.053726   -1.813579
     19          6           0        7.031738    3.103726   -0.738795
     20          6           0        7.206722    3.556727   -4.443892
     21          6           0        6.619532    5.516768   -1.673059
     22          8           0        6.686785    6.116867   -0.546146
     23          6           0        6.348354    6.256451   -2.919002
     24          7           0        7.349304    1.335808    1.745845
     25          6           0        7.429148    2.670934    1.738992
     26          6           0        7.570640    3.216603    3.129015
     27          6           0        7.326018    1.984372    4.114672
     28          6           0        7.157786    0.865854    3.056899
     29          6           0        8.919315    3.872191    3.456566
     30          6           0        6.224779    2.152993    5.191361
     31          6           0        4.866796    2.224653    4.529664
     32          7           0        6.722396   -1.492557    1.283085
     33          6           0        6.894448   -1.551612    2.673619
     34          6           0        6.877077   -2.976891    3.050907
     35          6           0        6.711653   -3.653099    1.843752
     36          6           0        6.657133   -2.711239    0.776878
     37          6           0        7.062680   -3.493836    4.363444
     38          6           0        6.592978   -4.953447    1.204324
     39          8           0        6.479542   -6.111506    1.608704
     40          6           0        6.733636   -4.752790   -0.369137
     41          6           0        5.618592   -5.519450   -1.026570
     42          8           0        4.429236   -5.171599   -0.878929
     43          8           0        6.136118   -6.387736   -1.909060
     44          6           0        5.081194   -7.160138   -2.618063
     45          1           0        8.089167    0.871754   -4.209108
     46          1           0        7.330345    4.422627    0.865289
     47          1           0        7.091614   -0.700837    4.489143
     48          1           0        7.674528   -3.960155   -3.261724
     49          1           0        7.603804   -1.601195   -4.803721
     50          1           0        9.708204   -2.848938   -3.077302
     51          1           0        9.803615   -1.066880   -3.223695
     52          1           0        9.893613   -2.020562   -4.677302
     53          1           0        5.377570   -2.233944   -4.208028
     54          1           0        4.994390   -3.638120   -3.133812
     55          1           0        6.641417   -4.554379   -5.263312
     56          1           0        5.687223   -3.304463   -5.966930
     57          1           0        7.539594    2.721044   -5.058201
     58          1           0        8.003283    4.294921   -4.534828
     59          1           0        6.271157    3.978207   -4.811866
     60          1           0        7.203930    6.160683   -3.587857
     61          1           0        6.083060    7.268727   -2.616072
     62          1           0        5.505788    5.789973   -3.430305
     63          1           0        6.823880    3.984846    3.325434
     64          1           0        8.220208    1.733754    4.685890
     65          1           0        8.833258    4.904492    3.796646
     66          1           0        9.551241    3.803397    2.571565
     67          1           0        9.519625    3.339239    4.193456
     68          1           0        6.366138    3.086264    5.735393
     69          1           0        6.208447    1.343104    5.920787
     70          1           0        4.789617    3.273462    4.245281
     71          1           0        4.083545    1.953654    5.238387
     72          1           0        4.839140    1.635543    3.612783
     73          1           0        6.315642   -4.277146    4.491231
     74          1           0        6.951028   -2.713428    5.115840
     75          1           0        8.085982   -3.862189    4.292560
     76          1           0        7.714398   -5.137014   -0.647705
     77          1           0        5.298308   -8.217048   -2.463028
     78          1           0        5.064519   -6.792224   -3.644107
     79          1           0        4.074588   -7.093891   -2.203704
     80         12           0       -6.423409    1.129484    0.363400
     81          6           0       -8.128872   -2.024643    0.215350
     82          6           0       -7.323972    1.599948   -2.892711
     83          6           0       -4.556955    3.695026    0.321509
     84          6           0       -4.725762   -0.077046    3.157672
     85          7           0       -7.577799   -0.122331   -1.048205
     86          6           0       -8.228898   -1.273388   -0.974202
     87          6           0       -9.097942   -1.601858   -2.217766
     88          6           0       -8.315166   -0.710707   -3.300344
     89          6           0       -7.727066    0.346164   -2.367694
     90          6           0       -7.167735   -1.448106   -3.970425
     91          6           0      -10.584335   -1.127932   -2.050326
     92          6           0      -11.558567   -1.687150   -3.089506
     93          1           0      -12.922727   -1.995627   -2.669559
     94          7           0       -6.392517    2.674977   -0.881209
     95          6           0       -6.818840    2.697420   -2.161453
     96          6           0       -6.560929    4.061736   -2.647534
     97          6           0       -5.796910    4.795504   -1.602272
     98          6           0       -5.528595    3.720377   -0.668357
     99          6           0       -7.094736    4.574795   -3.953382
    100          6           0       -5.366545    6.225179   -1.471795
    101          8           0       -4.506269    6.592096   -0.595360
    102          6           0       -5.911388    7.166695   -2.460818
    103          7           0       -4.717271    1.649467    1.431600
    104          6           0       -4.131055    2.847001    1.257875
    105          6           0       -3.092884    3.105861    2.323510
    106          6           0       -3.274684    1.932206    3.394530
    107          6           0       -4.375121    1.111754    2.686520
    108          6           0       -1.641632    3.137262    1.844717
    109          6           0       -3.503469    2.356207    4.871195
    110          6           0       -4.846534    3.035954    5.010815
    111          7           0       -6.535891   -0.630350    1.611749
    112          6           0       -5.713136   -0.947800    2.714651
    113          6           0       -6.097295   -2.299809    3.169526
    114          6           0       -7.109165   -2.687539    2.278297
    115          6           0       -7.325390   -1.658619    1.322227
    116          6           0       -5.497901   -3.018179    4.242267
    117          6           0       -8.036160   -3.737638    1.922415
    118          8           0       -8.366468   -4.811535    2.423804
    119          6           0       -8.649928   -3.407213    0.493952
    120          6           0      -10.140624   -3.590994    0.575105
    121          8           0      -10.830767   -2.848063    1.295081
    122          8           0      -10.528905   -4.465617   -0.370739
    123          6           0      -12.001288   -4.672482   -0.337408
    124          1           0       -7.357391    1.745063   -3.972854
    125          1           0       -3.959571    4.604458    0.419209
    126          1           0       -4.311377   -0.483799    4.082608
    127          1           0       -9.088288   -2.643235   -2.516474
    128          1           0       -9.002660   -0.254689   -4.007992
    129          1           0       -6.993111   -2.414597   -3.521492
    130          1           0       -6.299894   -0.812872   -3.850524
    131          1           0       -7.343018   -1.518721   -5.047743
    132          1           0      -10.648244   -0.058535   -2.289207
    133          1           0      -10.944616   -1.345084   -1.063578
    134          1           0      -11.128617   -2.528160   -3.646987
    135          1           0      -11.731597   -0.921911   -3.850099
    136          1           0       -7.478266    3.759607   -4.579294
    137          1           0       -6.241056    4.969707   -4.514769
    138          1           0       -7.831199    5.370722   -3.823824
    139          1           0       -5.635632    6.839913   -3.460641
    140          1           0       -5.560415    8.152635   -2.149990
    141          1           0       -7.005413    7.133801   -2.409514
    142          1           0       -3.268138    4.056927    2.811233
    143          1           0       -2.385663    1.286618    3.446382
    144          1           0       -1.122191    4.083391    2.087827
    145          1           0       -1.630437    2.960708    0.777370
    146          1           0       -1.014289    2.330068    2.218991
    147          1           0       -2.751795    3.088596    5.175727
    148          1           0       -3.449545    1.529230    5.571340
    149          1           0       -4.634262    4.066106    4.709446
    150          1           0       -5.194051    2.989711    6.040928
    151          1           0       -5.570983    2.626403    4.297302
    152          1           0       -6.304946   -3.468491    4.804770
    153          1           0       -4.891751   -2.366170    4.867753
    154          1           0       -4.888454   -3.732453    3.682207
    155          1           0       -8.192052   -4.087931   -0.224763
    156          1           0      -12.170384   -5.747978   -0.226057
    157          1           0      -12.391089   -4.193674   -1.255317
    158          1           0      -12.542824   -4.283674    0.517003
 ---------------------------------------------------------------------

 SCF Done:  E(RCAM-B3LYP) =  -4069.81169601     A.U. after   19 cycles

 Excitation energies and oscillator strengths:

 Excited State   1:      Singlet-A      1.6653 eV  744.53 nm  f=0.0084  <S**2>=0.000
     309 -> 315       -0.10864
     310 -> 316        0.13252
     311 -> 313       -0.43393
     312 -> 314        0.53213
 This state for optimization and/or second-order correction.
 Total Energy, E(TD-HF/TD-DFT) =  -4069.75049862
 Copying the excited state density for this state as the 1-particle RhoCI density.

 Excited State   2:      Singlet-A      1.6895 eV  733.83 nm  f=0.7346  <S**2>=0.000
     309 -> 315        0.13805
     310 -> 316        0.11196
     311 -> 313        0.53093
     312 -> 314        0.43302

 Excited State   3:      Singlet-A      2.1848 eV  567.48 nm  f=0.0648  <S**2>=0.000
     309 -> 313       -0.16275
     310 -> 314        0.62206
     312 -> 316       -0.26341

 Excited State   4:      Singlet-A      2.1936 eV  565.20 nm  f=0.1289  <S**2>=0.000
     309 -> 313        0.61973
     310 -> 314        0.16113
     311 -> 315       -0.26997

 Excited State   5:      Singlet-A      2.6542 eV  467.13 nm  f=0.0000  <S**2>=0.000
     312 -> 313        0.70699

 The electronic state is 1-A.
 Alpha  occ. eigenvalues --  -46.87828 -46.87548 -19.26300 -19.26261 -19.19068
 Alpha  occ. eigenvalues --  -19.19039 -19.18819 -19.18625 -19.18189 -19.17936
 Alpha  occ. eigenvalues --  -14.42479 -14.42388 -14.41482 -14.41243 -14.39430
 Alpha  occ. eigenvalues --  -14.39243 -14.38618 -14.38484 -10.39099 -10.38996
 Alpha  occ. eigenvalues --  -10.35451 -10.35305 -10.34409 -10.34114 -10.31691
 Alpha  occ. eigenvalues --  -10.31677 -10.31436 -10.31198 -10.30934 -10.30924
 Alpha  occ. eigenvalues --  -10.30600 -10.30535 -10.30282 -10.30246 -10.30238
 Alpha  occ. eigenvalues --  -10.30027 -10.29953 -10.29770 -10.29656 -10.29327
 Alpha  occ. eigenvalues --  -10.29290 -10.29280 -10.28777 -10.28630 -10.28589
 Alpha  occ. eigenvalues --  -10.28572 -10.28390 -10.28297 -10.28145 -10.28049
 Alpha  occ. eigenvalues --  -10.27888 -10.27817 -10.27756 -10.27607 -10.27563
 Alpha  occ. eigenvalues --  -10.27545 -10.27500 -10.27486 -10.27431 -10.27396
 Alpha  occ. eigenvalues --  -10.27387 -10.27374 -10.27361 -10.27243 -10.27179
 Alpha  occ. eigenvalues --  -10.26941 -10.26736 -10.26615 -10.26397 -10.26353
 Alpha  occ. eigenvalues --  -10.26259 -10.26253 -10.26053 -10.26027 -10.25935
 Alpha  occ. eigenvalues --  -10.25871 -10.25814 -10.25691 -10.25462 -10.25241
 Alpha  occ. eigenvalues --  -10.24858 -10.24816 -10.24787 -10.24757 -10.24631
 Alpha  occ. eigenvalues --  -10.24575  -3.16571  -3.16298  -1.91452  -1.91180
 Alpha  occ. eigenvalues --   -1.91039  -1.90881  -1.90769  -1.90606  -1.16649
 Alpha  occ. eigenvalues --   -1.16554  -1.08646  -1.08543  -1.07219  -1.06879
 Alpha  occ. eigenvalues --   -1.06852  -1.06661  -1.04610  -1.04388  -1.03791
 Alpha  occ. eigenvalues --   -1.03551  -1.03263  -1.02923  -1.02441  -1.01997
 Alpha  occ. eigenvalues --   -0.91998  -0.91876  -0.89561  -0.89379  -0.89217
 Alpha  occ. eigenvalues --   -0.89058  -0.88326  -0.88100  -0.87897  -0.87703
 Alpha  occ. eigenvalues --   -0.87666  -0.87575  -0.87291  -0.87028  -0.85010
 Alpha  occ. eigenvalues --   -0.84904  -0.83981  -0.83757  -0.82983  -0.82842
 Alpha  occ. eigenvalues --   -0.82672  -0.82559  -0.81609  -0.81494  -0.80620
 Alpha  occ. eigenvalues --   -0.80341  -0.78819  -0.78532  -0.77252  -0.77042
 Alpha  occ. eigenvalues --   -0.76965  -0.76796  -0.75949  -0.75740  -0.74932
 Alpha  occ. eigenvalues --   -0.74681  -0.72804  -0.72583  -0.71700  -0.71468
 Alpha  occ. eigenvalues --   -0.69962  -0.69642  -0.68899  -0.68731  -0.67665
 Alpha  occ. eigenvalues --   -0.67494  -0.67243  -0.67113  -0.65316  -0.65175
 Alpha  occ. eigenvalues --   -0.64883  -0.64661  -0.64651  -0.64552  -0.64308
 Alpha  occ. eigenvalues --   -0.64088  -0.62322  -0.62177  -0.60465  -0.60237
 Alpha  occ. eigenvalues --   -0.59832  -0.59697  -0.59017  -0.58880  -0.58531
 Alpha  occ. eigenvalues --   -0.58316  -0.57607  -0.57446  -0.57337  -0.57126
 Alpha  occ. eigenvalues --   -0.56334  -0.56096  -0.55999  -0.55792  -0.55539
 Alpha  occ. eigenvalues --   -0.55375  -0.55356  -0.55132  -0.54557  -0.54378
 Alpha  occ. eigenvalues --   -0.53923  -0.53820  -0.53324  -0.53242  -0.53122
 Alpha  occ. eigenvalues --   -0.53044  -0.52942  -0.52804  -0.52773  -0.52587
 Alpha  occ. eigenvalues --   -0.52495  -0.52292  -0.51942  -0.51744  -0.51639
 Alpha  occ. eigenvalues --   -0.51569  -0.51227  -0.51092  -0.50585  -0.50393
 Alpha  occ. eigenvalues --   -0.50073  -0.49936  -0.49885  -0.49752  -0.49535
 Alpha  occ. eigenvalues --   -0.49395  -0.49237  -0.49121  -0.49103  -0.49000
 Alpha  occ. eigenvalues --   -0.48618  -0.48490  -0.48459  -0.48454  -0.48252
 Alpha  occ. eigenvalues --   -0.48246  -0.47721  -0.47497  -0.47320  -0.47014
 Alpha  occ. eigenvalues --   -0.46832  -0.46600  -0.46582  -0.46461  -0.46389
 Alpha  occ. eigenvalues --   -0.46192  -0.46160  -0.45964  -0.45847  -0.45707
 Alpha  occ. eigenvalues --   -0.45237  -0.45087  -0.44602  -0.44533  -0.44413
 Alpha  occ. eigenvalues --   -0.44372  -0.44180  -0.44114  -0.44038  -0.44028
 Alpha  occ. eigenvalues --   -0.43973  -0.43844  -0.43520  -0.43451  -0.43416
 Alpha  occ. eigenvalues --   -0.43280  -0.43056  -0.42832  -0.42789  -0.42731
 Alpha  occ. eigenvalues --   -0.42691  -0.42443  -0.42052  -0.41860  -0.41731
 Alpha  occ. eigenvalues --   -0.41564  -0.41559  -0.41362  -0.41168  -0.40905
 Alpha  occ. eigenvalues --   -0.40881  -0.40834  -0.40635  -0.40610  -0.40605
 Alpha  occ. eigenvalues --   -0.40378  -0.40262  -0.40146  -0.39502  -0.39311
 Alpha  occ. eigenvalues --   -0.38508  -0.38233  -0.37779  -0.37565  -0.37357
 Alpha  occ. eigenvalues --   -0.37292  -0.37152  -0.37099  -0.36738  -0.36673
 Alpha  occ. eigenvalues --   -0.36222  -0.36107  -0.34316  -0.34141  -0.33791
 Alpha  occ. eigenvalues --   -0.33766  -0.33215  -0.33063  -0.31350  -0.31183
 Alpha  occ. eigenvalues --   -0.31062  -0.30863  -0.30049  -0.29840  -0.29471
 Alpha  occ. eigenvalues --   -0.29348  -0.29223  -0.29094  -0.24110  -0.23922
 Alpha  occ. eigenvalues --   -0.21157  -0.21005
 Alpha virt. eigenvalues --   -0.08800  -0.08681  -0.01778  -0.01572  -0.00075
 Alpha virt. eigenvalues --    0.00069   0.02176   0.02324   0.03072   0.03327
 Alpha virt. eigenvalues --    0.04687   0.04834   0.05079   0.05261   0.06146

 Mulliken charges:
               1
     1  Mg   0.838357
     2  C   -0.002946
     3  C   -0.094108
     4  C   -0.045841
     5  C   -0.064126
     6  N   -0.256750
     7  C   -0.052535
     8  C   -0.013973
     9  C   -0.087011
    10  C    0.046320
    11  C    0.104794
    12  C    0.053496
    13  C   -0.071754
    14  H    0.036022
    15  N   -0.433190
    16  C    0.168476
    17  C   -0.177064
    18  C   -0.003829
    19  C    0.148706
    20  C    0.110184
    21  C    0.012592
    22  O   -0.249362
    23  C    0.062356
    24  N   -0.341058
    25  C    0.041143
    26  C   -0.028265
    27  C   -0.023937
    28  C    0.074592
    29  C    0.076113
    30  C    0.035239
    31  C   -0.004553
    32  N   -0.310414
    33  C    0.080147
    34  C   -0.169937
    35  C    0.008437
    36  C    0.082777
    37  C    0.127347
    38  C    0.046073
    39  O   -0.188243
    40  C   -0.005333
    41  C    0.212964
    42  O   -0.257199
    43  O   -0.304790
    44  C    0.157619
    45  H   -0.017552
    46  H   -0.016667
    47  H   -0.041622
    48  H    0.001017
    49  H   -0.004086
    50  H    0.025550
    51  H    0.016492
    52  H    0.016686
    53  H    0.011092
    54  H    0.044110
    55  H    0.017973
    56  H    0.017826
    57  H    0.005773
    58  H    0.026932
    59  H    0.039678
    60  H    0.037165
    61  H    0.036167
    62  H    0.031747
    63  H    0.016566
    64  H    0.009614
    65  H    0.023383
    66  H    0.012673
    67  H    0.004810
    68  H    0.006538
    69  H    0.004697
    70  H    0.009003
    71  H    0.016961
    72  H    0.028839
    73  H    0.047553
    74  H    0.008909
    75  H    0.046154
    76  H    0.035237
    77  H    0.043141
    78  H    0.046285
    79  H    0.053817
    80  Mg   0.838007
    81  C   -0.016854
    82  C   -0.088000
    83  C   -0.045626
    84  C   -0.064049
    85  N   -0.254553
    86  C   -0.049702
    87  C   -0.015099
    88  C   -0.090532
    89  C    0.045786
    90  C    0.114442
    91  C    0.062568
    92  C   -0.077725
    93  H    0.034662
    94  N   -0.423405
    95  C    0.162834
    96  C   -0.175037
    97  C   -0.008022
    98  C    0.152030
    99  C    0.099572
   100  C    0.015290
   101  O   -0.253187
   102  C    0.061285
   103  N   -0.349963
   104  C    0.037602
   105  C   -0.019942
   106  C   -0.034949
   107  C    0.089026
   108  C    0.073403
   109  C    0.034683
   110  C   -0.007614
   111  N   -0.324253
   112  C    0.078545
   113  C   -0.162565
   114  C    0.002403
   115  C    0.096301
   116  C    0.131471
   117  C    0.042668
   118  O   -0.187694
   119  C    0.000805
   120  C    0.211212
   121  O   -0.251166
   122  O   -0.305573
   123  C    0.152089
   124  H   -0.020188
   125  H   -0.015575
   126  H   -0.039956
   127  H   -0.000667
   128  H   -0.004683
   129  H    0.022769
   130  H    0.014518
   131  H    0.015734
   132  H    0.013825
   133  H    0.037672
   134  H    0.020715
   135  H    0.019380
   136  H    0.008468
   137  H    0.025501
   138  H    0.039474
   139  H    0.037818
   140  H    0.036169
   141  H    0.033800
   142  H    0.014163
   143  H    0.013423
   144  H    0.025386
   145  H    0.011552
   146  H    0.006508
   147  H    0.006016
   148  H    0.003710
   149  H    0.010821
   150  H    0.017649
   151  H    0.030067
   152  H    0.045761
   153  H    0.008582
   154  H    0.048465
   155  H    0.035287
   156  H    0.043864
   157  H    0.049314
   158  H    0.053480
 Sum of Mulliken charges =  -0.00000

 Dipole moment (field-independent basis, Debye):
    X=              2.6187    Y=              3.3019    Z=             -7.7537  Tot=              8.8249
 Quadrupole moment (field-independent basis, Debye-Ang):
   XX=           -486.9451   YY=           -562.0535   ZZ=           -447.5506
   XY=             -9.8787   XZ=             28.7184   YZ=             17.8243

 Normal termination of Gaussian 16 at Sat Sep 11 15:50:06 2021.
