 Gaussian 16, Revision A.03,
 Gaussian 16:  ES64L-G16RevA.03 25-Dec-2016

 -----------------------------------
 #p cam-b3lyp/Def2SVP td=(nstates=5)
 -----------------------------------

 --------------------------------
 TDDFT excited states in gaussian
 --------------------------------
 Symbolic Z-matrix:
 Charge =  0 Multiplicity = 1

                         Standard orientation:
 ---------------------------------------------------------------------
 Center     Atomic      Atomic             Coordinates (Angstroms)
 Number     Number       Type             X           Y           Z
 ---------------------------------------------------------------------
      1         12           0        7.973281   -0.619332    0.601309
      2          6           0        8.344445    2.108546   -1.686295
      3          6           0        8.649248    1.589417    3.112795
      4          6           0        8.099678   -3.086389    2.589845
      5          6           0        8.452003   -2.761553   -2.105603
      6          7           0        8.421560    1.548509    0.588725
      7          6           0        8.474660    2.489377   -0.348888
      8          6           0        8.606374    3.930381    0.228634
      9          6           0        9.253227    3.576836    1.642347
     10          6           0        8.714873    2.166875    1.810003
     11          6           0       10.777302    3.521035    1.618164
     12          6           0        7.217316    4.633865    0.394035
     13          6           0        7.275042    6.144345    0.639948
     14          1           0        6.237870    6.987595    0.065011
     15          7           0        7.840867   -0.685068    2.571334
     16          6           0        8.140957    0.312919    3.436928
     17          6           0        7.878019   -0.226846    4.788297
     18          6           0        7.582331   -1.679798    4.648331
     19          6           0        7.858404   -1.883387    3.249148
     20          6           0        7.874175    0.617859    6.025313
     21          6           0        7.133831   -2.721972    5.623449
     22          8           0        7.160099   -3.969640    5.345584
     23          6           0        6.741186   -2.244035    6.961525
     24          7           0        8.455019   -2.633185    0.336817
     25          6           0        8.373944   -3.501099    1.351282
     26          6           0        8.487768   -4.916871    0.869025
     27          6           0        8.420336   -4.847726   -0.724846
     28          6           0        8.357962   -3.309391   -0.891891
     29          6           0        9.756709   -5.668669    1.293995
     30          6           0        7.337348   -5.709734   -1.420905
     31          6           0        5.962612   -5.177438   -1.083473
     32          7           0        8.159150   -0.406899   -1.550752
     33          6           0        8.375839   -1.431423   -2.483528
     34          6           0        8.540077   -0.788980   -3.800480
     35          6           0        8.423270    0.574591   -3.538042
     36          6           0        8.226391    0.772982   -2.141557
     37          6           0        8.822947   -1.457344   -5.024289
     38          6           0        8.443575    1.911549   -4.108996
     39          8           0        8.481189    2.365144   -5.253693
     40          6           0        8.515122    2.964579   -2.916588
     41          6           0        7.482135    4.025074   -3.184162
     42          8           0        6.264240    3.755110   -3.149262
     43          8           0        8.075190    5.228596   -3.203154
     44          6           0        7.101112    6.328438   -3.434833
     45          1           0        9.078470    2.136134    3.954704
     46          1           0        8.041397   -3.973279    3.224248
     47          1           0        8.520214   -3.371105   -3.008513
     48          1           0        9.272949    4.585676   -0.332339
     49          1           0        8.876761    4.222962    2.435137
     50          1           0       11.163035    3.606637    0.602387
     51          1           0       11.039909    2.552769    2.044770
     52          1           0       11.202969    4.268856    2.287752
     53          1           0        6.760004    4.310979    1.329274
     54          1           0        6.578164    4.432848   -0.466432
     55          1           0        8.263024    6.547264    0.415322
     56          1           0        7.146527    6.321695    1.707764
     57          1           0        8.287567    1.607651    5.835672
     58          1           0        8.573602    0.160884    6.725089
     59          1           0        6.884899    0.675946    6.479505
     60          1           0        7.583041   -1.724208    7.419355
     61          1           0        6.364977   -3.116761    7.494128
     62          1           0        5.946686   -1.505092    6.853437
     63          1           0        7.660047   -5.522604    1.235622
     64          1           0        9.353741   -5.168515   -1.188013
     65          1           0        9.557010   -6.592824    1.836915
     66          1           0       10.367341   -4.989885    1.888698
     67          1           0       10.436962   -5.914424    0.478962
     68          1           0        7.380910   -6.736953   -1.060531
     69          1           0        7.438655   -5.734359   -2.505977
     70          1           0        5.752290   -5.639921   -0.119779
     71          1           0        5.237631   -5.493011   -1.834490
     72          1           0        5.980192   -4.098249   -0.930084
     73          1           0        8.179108   -1.001765   -5.776544
     74          1           0        8.639581   -2.528429   -4.942081
     75          1           0        9.880656   -1.222661   -5.142745
     76          1           0        9.526714    3.369307   -2.916082
     77          1           0        7.447660    6.886132   -4.304957
     78          1           0        7.011764    6.867104   -2.491296
     79          1           0        6.105803    6.029204   -3.765222
     80         12           0       -7.846517   -0.665212   -0.624800
     81          6           0       -8.937882    1.776719    1.767890
     82          6           0       -7.864807    1.827056   -2.953502
     83          6           0       -7.323330   -2.871015   -2.844739
     84          6           0       -8.998418   -3.120854    1.563503
     85          7           0       -8.353793    1.483361   -0.488615
     86          6           0       -8.696058    2.312644    0.485810
     87          6           0       -8.706054    3.811223    0.081207
     88          6           0       -8.921848    3.631960   -1.499981
     89          6           0       -8.312202    2.242450   -1.673894
     90          6           0      -10.385321    3.565427   -1.903936
     91          6           0       -7.345067    4.524948    0.397923
     92          6           0       -7.385730    6.052516    0.316283
     93          1           0       -6.573365    6.821570    1.254947
     94          7           0       -7.158677   -0.484723   -2.477598
     95          6           0       -7.230285    0.605653   -3.269569
     96          6           0       -6.599039    0.221204   -4.541527
     97          6           0       -6.296703   -1.235170   -4.493811
     98          6           0       -6.947627   -1.598948   -3.251214
     99          6           0       -6.267855    1.213451   -5.618186
    100          6           0       -5.556595   -2.151615   -5.420404
    101          8           0       -5.620238   -3.426069   -5.299856
    102          6           0       -4.830599   -1.515942   -6.529617
    103          7           0       -8.309710   -2.688787   -0.738502
    104          6           0       -7.921114   -3.428824   -1.791723
    105          6           0       -8.122696   -4.901884   -1.527453
    106          6           0       -8.503745   -5.012225    0.021811
    107          6           0       -8.545612   -3.510375    0.379699
    108          6           0       -9.201190   -5.586796   -2.366579
    109          6           0       -7.632778   -5.956218    0.895281
    110          6           0       -6.232638   -5.399621    1.018468
    111          7           0       -8.627273   -0.711599    1.389233
    112          6           0       -9.073451   -1.844023    2.105219
    113          6           0       -9.621507   -1.359491    3.388688
    114          6           0       -9.476038    0.034292    3.320082
    115          6           0       -8.897949    0.394645    2.072912
    116          6           0      -10.205330   -2.169903    4.402851
    117          6           0       -9.689822    1.283468    4.014737
    118          8           0      -10.068006    1.596407    5.142909
    119          6           0       -9.467210    2.476800    2.988677
    120          6           0       -8.582661    3.498441    3.649243
    121          8           0       -7.404058    3.223499    3.935450
    122          8           0       -9.202660    4.692511    3.636065
    123          6           0       -8.360008    5.740951    4.270519
    124          1           0       -8.054299    2.479428   -3.806377
    125          1           0       -7.062807   -3.681097   -3.529853
    126          1           0       -9.287017   -3.831583    2.340830
    127          1           0       -9.518141    4.390489    0.503995
    128          1           0       -8.355454    4.369929   -2.062101
    129          1           0      -11.039142    3.530961   -1.045172
    130          1           0      -10.487078    2.663607   -2.493362
    131          1           0      -10.629008    4.393568   -2.575591
    132          1           0       -6.632890    4.312516   -0.409797
    133          1           0       -6.971353    4.224177    1.357351
    134          1           0       -8.412705    6.436817    0.292340
    135          1           0       -6.962007    6.360158   -0.642794
    136          1           0       -6.757557    2.178777   -5.440021
    137          1           0       -6.722967    0.844745   -6.543807
    138          1           0       -5.192421    1.323997   -5.772764
    139          1           0       -5.527840   -0.942994   -7.136280
    140          1           0       -4.292332   -2.324488   -7.028014
    141          1           0       -4.113359   -0.799723   -6.113417
    142          1           0       -7.208655   -5.455228   -1.704797
    143          1           0       -9.524048   -5.397711    0.164003
    144          1           0       -8.821656   -6.450610   -2.944383
    145          1           0       -9.638784   -4.850144   -3.027176
    146          1           0      -10.066586   -5.939182   -1.807905
    147          1           0       -7.537109   -6.933940    0.416678
    148          1           0       -8.037666   -6.121880    1.888067
    149          1           0       -5.748683   -5.743360    0.099375
    150          1           0       -5.736788   -5.801544    1.899740
    151          1           0       -6.241427   -4.303683    0.996363
    152          1           0       -9.819069   -1.812201    5.348025
    153          1           0       -9.976043   -3.222666    4.251601
    154          1           0      -11.264467   -1.952988    4.240210
    155          1           0      -10.448510    2.883577    2.741385
    156          1           0       -8.958779    6.193401    5.067033
    157          1           0       -8.035899    6.403257    3.445862
    158          1           0       -7.485739    5.415483    4.822038
 ---------------------------------------------------------------------

 SCF Done:  E(RCAM-B3LYP) =  -4069.81189279     A.U. after   19 cycles

 Excitation energies and oscillator strengths:

 Excited State   1:      Singlet-A      1.6701 eV  742.36 nm  f=0.0335  <S**2>=0.000
     309 -> 315        0.10456
     310 -> 316        0.13745
     311 -> 314        0.41432
     312 -> 313        0.54719
 This state for optimization and/or second-order correction.
 Total Energy, E(TD-HF/TD-DFT) =  -4069.75051683
 Copying the excited state density for this state as the 1-particle RhoCI density.

 Excited State   2:      Singlet-A      1.6854 eV  735.62 nm  f=0.7253  <S**2>=0.000
     309 -> 315        0.14115
     310 -> 316       -0.10638
     311 -> 314        0.54639
     312 -> 313       -0.41381

 Excited State   3:      Singlet-A      2.1864 eV  567.06 nm  f=0.0592  <S**2>=0.000
     309 -> 314        0.13658
     310 -> 313        0.62791
     312 -> 316       -0.26700

 Excited State   4:      Singlet-A      2.1932 eV  565.31 nm  f=0.1344  <S**2>=0.000
     309 -> 314        0.62609
     310 -> 313       -0.13567
     311 -> 315       -0.27227

 Excited State   5:      Singlet-A      2.8104 eV  441.16 nm  f=0.0000  <S**2>=0.000
     312 -> 314        0.70710

 The electronic state is 1-A.
 Alpha  occ. eigenvalues --  -46.87738 -46.87590 -19.26321 -19.26277 -19.19127
 Alpha  occ. eigenvalues --  -19.19007 -19.18738 -19.18617 -19.18132 -19.17997
 Alpha  occ. eigenvalues --  -14.42429 -14.42393 -14.41390 -14.41292 -14.39342
 Alpha  occ. eigenvalues --  -14.39279 -14.38533 -14.38531 -10.39065 -10.39055
 Alpha  occ. eigenvalues --  -10.35370 -10.35291 -10.34353 -10.34176 -10.31741
 Alpha  occ. eigenvalues --  -10.31687 -10.31354 -10.31247 -10.30951 -10.30853
 Alpha  occ. eigenvalues --  -10.30516 -10.30450 -10.30329 -10.30295 -10.30142
 Alpha  occ. eigenvalues --  -10.30067 -10.29865 -10.29833 -10.29572 -10.29361
 Alpha  occ. eigenvalues --  -10.29328 -10.29192 -10.28704 -10.28659 -10.28605
 Alpha  occ. eigenvalues --  -10.28506 -10.28334 -10.28309 -10.28080 -10.28069
 Alpha  occ. eigenvalues --  -10.27932 -10.27738 -10.27670 -10.27599 -10.27522
 Alpha  occ. eigenvalues --  -10.27456 -10.27436 -10.27417 -10.27404 -10.27388
 Alpha  occ. eigenvalues --  -10.27386 -10.27357 -10.27351 -10.27315 -10.27124
 Alpha  occ. eigenvalues --  -10.27000 -10.26663 -10.26633 -10.26314 -10.26280
 Alpha  occ. eigenvalues --  -10.26190 -10.26111 -10.26077 -10.25971 -10.25960
 Alpha  occ. eigenvalues --  -10.25867 -10.25802 -10.25802 -10.25376 -10.25343
 Alpha  occ. eigenvalues --  -10.24806 -10.24780 -10.24729 -10.24664 -10.24622
 Alpha  occ. eigenvalues --  -10.24604  -3.16480  -3.16340  -1.91362  -1.91222
 Alpha  occ. eigenvalues --   -1.90949  -1.90811  -1.90791  -1.90648  -1.16624
 Alpha  occ. eigenvalues --   -1.16613  -1.08608  -1.08593  -1.07138  -1.06911
 Alpha  occ. eigenvalues --   -1.06868  -1.06630  -1.04526  -1.04427  -1.03702
 Alpha  occ. eigenvalues --   -1.03594  -1.03176  -1.02970  -1.02354  -1.02043
 Alpha  occ. eigenvalues --   -0.91925  -0.91923  -0.89458  -0.89430  -0.89140
 Alpha  occ. eigenvalues --   -0.89090  -0.88225  -0.88157  -0.87820  -0.87732
 Alpha  occ. eigenvalues --   -0.87618  -0.87617  -0.87204  -0.87028  -0.84936
 Alpha  occ. eigenvalues --   -0.84932  -0.83876  -0.83815  -0.82892  -0.82838
 Alpha  occ. eigenvalues --   -0.82596  -0.82580  -0.81552  -0.81547  -0.80547
 Alpha  occ. eigenvalues --   -0.80380  -0.78734  -0.78556  -0.77163  -0.77078
 Alpha  occ. eigenvalues --   -0.76891  -0.76843  -0.75880  -0.75781  -0.74842
 Alpha  occ. eigenvalues --   -0.74743  -0.72719  -0.72633  -0.71620  -0.71519
 Alpha  occ. eigenvalues --   -0.69840  -0.69694  -0.68821  -0.68762  -0.67586
 Alpha  occ. eigenvalues --   -0.67534  -0.67166  -0.67127  -0.65239  -0.65211
 Alpha  occ. eigenvalues --   -0.64805  -0.64708  -0.64595  -0.64572  -0.64210
 Alpha  occ. eigenvalues --   -0.64141  -0.62267  -0.62232  -0.60375  -0.60257
 Alpha  occ. eigenvalues --   -0.59754  -0.59733  -0.58934  -0.58929  -0.58452
 Alpha  occ. eigenvalues --   -0.58363  -0.57549  -0.57505  -0.57253  -0.57168
 Alpha  occ. eigenvalues --   -0.56256  -0.56137  -0.55952  -0.55837  -0.55460
 Alpha  occ. eigenvalues --   -0.55379  -0.55290  -0.55192  -0.54481  -0.54436
 Alpha  occ. eigenvalues --   -0.53851  -0.53848  -0.53240  -0.53167  -0.53158
 Alpha  occ. eigenvalues --   -0.53073  -0.52871  -0.52843  -0.52690  -0.52574
 Alpha  occ. eigenvalues --   -0.52371  -0.52338  -0.51869  -0.51831  -0.51588
 Alpha  occ. eigenvalues --   -0.51565  -0.51148  -0.51143  -0.50492  -0.50373
 Alpha  occ. eigenvalues --   -0.49967  -0.49905  -0.49854  -0.49798  -0.49459
 Alpha  occ. eigenvalues --   -0.49409  -0.49164  -0.49134  -0.49051  -0.49046
 Alpha  occ. eigenvalues --   -0.48551  -0.48502  -0.48406  -0.48383  -0.48318
 Alpha  occ. eigenvalues --   -0.48252  -0.47639  -0.47525  -0.47239  -0.47045
 Alpha  occ. eigenvalues --   -0.46742  -0.46646  -0.46507  -0.46489  -0.46304
 Alpha  occ. eigenvalues --   -0.46203  -0.46114  -0.46028  -0.45785  -0.45773
 Alpha  occ. eigenvalues --   -0.45147  -0.45142  -0.44535  -0.44457  -0.44443
 Alpha  occ. eigenvalues --   -0.44410  -0.44086  -0.44064  -0.44038  -0.44010
 Alpha  occ. eigenvalues --   -0.43966  -0.43858  -0.43506  -0.43459  -0.43331
 Alpha  occ. eigenvalues --   -0.43325  -0.42976  -0.42884  -0.42844  -0.42673
 Alpha  occ. eigenvalues --   -0.42598  -0.42484  -0.41954  -0.41902  -0.41654
 Alpha  occ. eigenvalues --   -0.41609  -0.41484  -0.41396  -0.41089  -0.40927
 Alpha  occ. eigenvalues --   -0.40815  -0.40752  -0.40651  -0.40617  -0.40513
 Alpha  occ. eigenvalues --   -0.40432  -0.40186  -0.40158  -0.39371  -0.39361
 Alpha  occ. eigenvalues --   -0.38409  -0.38288  -0.37703  -0.37595  -0.37261
 Alpha  occ. eigenvalues --   -0.37214  -0.37202  -0.37134  -0.36732  -0.36686
 Alpha  occ. eigenvalues --   -0.36160  -0.36149  -0.34231  -0.34188  -0.33821
 Alpha  occ. eigenvalues --   -0.33750  -0.33132  -0.33109  -0.31269  -0.31178
 Alpha  occ. eigenvalues --   -0.30980  -0.30905  -0.29993  -0.29904  -0.29388
 Alpha  occ. eigenvalues --   -0.29268  -0.29250  -0.29144  -0.24024  -0.23969
 Alpha  occ. eigenvalues --   -0.21070  -0.21047
 Alpha virt. eigenvalues --   -0.08721  -0.08716  -0.01690  -0.01613   0.00006
 Alpha virt. eigenvalues --    0.00053   0.02249   0.02269   0.03192   0.03309
 Alpha virt. eigenvalues --    0.04769   0.04792   0.05117   0.05204   0.06215

 Mulliken charges:
               1
     1  Mg   0.838960
     2  C   -0.003028
     3  C   -0.094043
     4  C   -0.045781
     5  C   -0.063914
     6  N   -0.256791
     7  C   -0.052556
     8  C   -0.014028
     9  C   -0.087030
    10  C    0.046401
    11  C    0.104813
    12  C    0.053433
    13  C   -0.071697
    14  H    0.035694
    15  N   -0.433184
    16  C    0.168589
    17  C   -0.176982
    18  C   -0.003809
    19  C    0.148830
    20  C    0.110146
    21  C    0.012520
    22  O   -0.249537
    23  C    0.062341
    24  N   -0.341150
    25  C    0.041296
    26  C   -0.028191
    27  C   -0.023944
    28  C    0.074825
    29  C    0.076190
    30  C    0.035118
    31  C   -0.004545
    32  N   -0.310394
    33  C    0.080311
    34  C   -0.169846
    35  C    0.008163
    36  C    0.082939
    37  C    0.127360
    38  C    0.045903
    39  O   -0.188974
    40  C   -0.005292
    41  C    0.212787
    42  O   -0.257311
    43  O   -0.304712
    44  C    0.157881
    45  H   -0.017573
    46  H   -0.016731
    47  H   -0.041562
    48  H    0.000743
    49  H   -0.003949
    50  H    0.025370
    51  H    0.016488
    52  H    0.016626
    53  H    0.011533
    54  H    0.043949
    55  H    0.017758
    56  H    0.018164
    57  H    0.005854
    58  H    0.026834
    59  H    0.040116
    60  H    0.037239
    61  H    0.035879
    62  H    0.032029
    63  H    0.016726
    64  H    0.009329
    65  H    0.023251
    66  H    0.012486
    67  H    0.004670
    68  H    0.006357
    69  H    0.004639
    70  H    0.008922
    71  H    0.018410
    72  H    0.028971
    73  H    0.047239
    74  H    0.009152
    75  H    0.045864
    76  H    0.035045
    77  H    0.042685
    78  H    0.046483
    79  H    0.053240
    80  Mg   0.838098
    81  C   -0.016844
    82  C   -0.087595
    83  C   -0.045456
    84  C   -0.064911
    85  N   -0.254593
    86  C   -0.049959
    87  C   -0.015145
    88  C   -0.090550
    89  C    0.045845
    90  C    0.114387
    91  C    0.062449
    92  C   -0.077781
    93  H    0.034478
    94  N   -0.423566
    95  C    0.163156
    96  C   -0.174335
    97  C   -0.007524
    98  C    0.152229
    99  C    0.099286
   100  C    0.015854
   101  O   -0.253250
   102  C    0.060974
   103  N   -0.350066
   104  C    0.037580
   105  C   -0.019844
   106  C   -0.034733
   107  C    0.088818
   108  C    0.073688
   109  C    0.034762
   110  C   -0.007676
   111  N   -0.324038
   112  C    0.078310
   113  C   -0.163337
   114  C    0.002058
   115  C    0.096115
   116  C    0.131536
   117  C    0.042200
   118  O   -0.188363
   119  C    0.000953
   120  C    0.211205
   121  O   -0.251103
   122  O   -0.305614
   123  C    0.152164
   124  H   -0.019570
   125  H   -0.015526
   126  H   -0.040663
   127  H   -0.000868
   128  H   -0.004161
   129  H    0.022320
   130  H    0.014433
   131  H    0.016244
   132  H    0.014359
   133  H    0.037560
   134  H    0.020608
   135  H    0.019834
   136  H    0.008747
   137  H    0.026144
   138  H    0.040927
   139  H    0.038134
   140  H    0.036663
   141  H    0.034972
   142  H    0.014487
   143  H    0.012223
   144  H    0.025111
   145  H    0.011618
   146  H    0.005531
   147  H    0.006139
   148  H    0.003483
   149  H    0.011039
   150  H    0.017905
   151  H    0.030227
   152  H    0.045732
   153  H    0.008413
   154  H    0.046728
   155  H    0.034856
   156  H    0.043653
   157  H    0.049520
   158  H    0.053317
 Sum of Mulliken charges =  -0.00000

 Dipole moment (field-independent basis, Debye):
    X=              1.2220    Y=              3.1093    Z=              0.0262  Tot=              3.3409
 Quadrupole moment (field-independent basis, Debye-Ang):
   XX=           -482.7884   YY=           -460.7030   ZZ=           -535.2078
   XY=              3.7076   XZ=             68.8796   YZ=              6.1217

 Normal termination of Gaussian 16 at Sat Sep 11 21:27:47 2021.
