 Gaussian 16, Revision A.03,
 Gaussian 16:  ES64L-G16RevA.03 25-Dec-2016

 -----------------------------------
 #p cam-b3lyp/Def2SVP td=(nstates=5)
 -----------------------------------

 --------------------------------
 TDDFT excited states in gaussian
 --------------------------------
 Symbolic Z-matrix:
 Charge =  0 Multiplicity = 1

                         Standard orientation:
 ---------------------------------------------------------------------
 Center     Atomic      Atomic             Coordinates (Angstroms)
 Number     Number       Type             X           Y           Z
 ---------------------------------------------------------------------
      1         12           0        7.636167   -0.953728    0.286022
      2          6           0        8.006698    2.157810   -1.444079
      3          6           0        8.480456    0.706128    3.145239
      4          6           0        7.759429   -3.763341    1.751458
      5          6           0        7.939667   -2.538346   -2.803077
      6          7           0        8.153796    1.163446    0.673681
      7          6           0        8.201007    2.267423   -0.065358
      8          6           0        8.401765    3.564613    0.773908
      9          6           0        9.091160    2.926718    2.062250
     10          6           0        8.514205    1.524634    1.977360
     11          6           0       10.610531    2.839655    1.960111
     12          6           0        7.043753    4.255942    1.133907
     13          6           0        7.160008    5.687678    1.664915
     14          1           0        6.129246    6.651772    1.310795
     15          7           0        7.578226   -1.398885    2.209906
     16          6           0        7.943932   -0.596318    3.238221
     17          6           0        7.716233   -1.382533    4.469765
     18          6           0        7.368301   -2.772723    4.064293
     19          6           0        7.583119   -2.706386    2.641327
     20          6           0        7.787827   -0.795256    5.845894
     21          6           0        6.924360   -3.973726    4.838012
     22          8           0        6.899289   -5.143584    4.322864
     23          6           0        6.599660   -3.756314    6.259399
     24          7           0        8.041616   -2.888533   -0.384631
     25          6           0        7.971817   -3.935272    0.445098
     26          6           0        8.020798   -5.232259   -0.306811
     27          6           0        7.893855   -4.852205   -1.852514
     28          6           0        7.875046   -3.309758   -1.715503
     29          6           0        9.280184   -6.083091   -0.092238
     30          6           0        6.757249   -5.535442   -2.653596
     31          6           0        5.414656   -5.045841   -2.158790
     32          7           0        7.745198   -0.330557   -1.790228
     33          6           0        7.892140   -1.158617   -2.912456
     34          6           0        8.025936   -0.276032   -4.086002
     35          6           0        7.963750    1.012681   -3.559507
     36          6           0        7.827752    0.939848   -2.143706
     37          6           0        8.239251   -0.699761   -5.427413
     38          6           0        8.005301    2.434377   -3.861024
     39          8           0        8.013185    3.101303   -4.896708
     40          6           0        8.157225    3.232782   -2.491610
     41          6           0        7.149624    4.349889   -2.502605
     42          8           0        5.925875    4.107997   -2.466646
     43          8           0        7.780273    5.519253   -2.314427
     44          6           0        6.834177    6.666513   -2.285236
     45          1           0        8.959553    1.067689    4.057205
     46          1           0        7.697031   -4.755175    2.204017
     47          1           0        7.952960   -2.961726   -3.809072
     48          1           0        9.067005    4.300260    0.321465
     49          1           0        8.766922    3.414916    2.981083
     50          1           0       10.959138    3.112165    0.964052
     51          1           0       10.857905    1.800723    2.179016
     52          1           0       11.085922    3.432072    2.742301
     53          1           0        6.612827    3.768204    2.008249
     54          1           0        6.365505    4.242071    0.280026
     55          1           0        8.151096    6.102501    1.478968
     56          1           0        7.078850    5.656603    2.751491
     57          1           0        8.225480    0.202166    5.833400
     58          1           0        8.498666   -1.396712    6.412168
     59          1           0        6.819328   -0.802756    6.346178
     60          1           0        7.475085   -3.356304    6.771427
     61          1           0        6.216251   -4.706690    6.629039
     62          1           0        5.825985   -2.991377    6.331846
     63          1           0        7.188688   -5.877510   -0.028117
     64          1           0        8.797674   -5.099182   -2.409997
     65          1           0        9.071790   -7.090197    0.269720
     66          1           0        9.935156   -5.548271    0.594982
     67          1           0        9.919960   -6.181768   -0.968804
     68          1           0        6.781374   -6.613946   -2.501301
     69          1           0        6.815525   -5.350591   -3.726296
     70          1           0        5.226974   -5.682009   -1.294558
     71          1           0        4.651214   -5.191280   -2.923784
     72          1           0        5.473217   -4.017989   -1.800215
     73          1           0        7.581846   -0.090797   -6.047857
     74          1           0        8.024520   -1.761548   -5.546163
     75          1           0        9.298631   -0.472284   -5.544987
     76          1           0        9.180686    3.604930   -2.457612
     77          1           0        7.164634    7.374489   -3.045369
     78          1           0        6.799049    7.012984   -1.252217
     79          1           0        5.817604    6.461695   -2.622829
     80         12           0       -8.224588   -0.373279   -0.228101
     81          6           0       -5.672197    2.059787    0.438604
     82          6           0      -10.406627    1.693153    1.385327
     83          6           0      -10.389001   -2.686899   -0.401231
     84          6           0       -5.679476   -2.696285   -0.749382
     85          7           0       -7.954961    1.595659    0.742889
     86          6           0       -6.953273    2.451304    0.880167
     87          6           0       -7.362743    3.834216    1.454148
     88          6           0       -8.700580    3.388971    2.222804
     89          6           0       -9.071089    2.169003    1.381912
     90          6           0       -8.450119    2.927847    3.648970
     91          6           0       -7.669447    4.882063    0.327228
     92          6           0       -7.774025    6.331176    0.807724
     93          1           0       -7.287919    7.392280   -0.069911
     94          7           0      -10.199565   -0.300461   -0.047174
     95          6           0      -10.921759    0.620767    0.624439
     96          6           0      -12.328559    0.218500    0.471904
     97          6           0      -12.366884   -1.106050   -0.205448
     98          6           0      -10.955129   -1.432573   -0.225985
     99          6           0      -13.475083    1.098860    0.876706
    100          6           0      -13.489592   -1.946356   -0.734230
    101          8           0      -13.313801   -3.170673   -1.070343
    102          6           0      -14.820381   -1.321955   -0.759101
    103          7           0       -8.070072   -2.444388   -0.322970
    104          6           0       -9.165471   -3.214462   -0.445505
    105          6           0       -8.795197   -4.641753   -0.771283
    106          6           0       -7.226567   -4.618464   -1.081883
    107          6           0       -6.931209   -3.132496   -0.781781
    108          6           0       -9.081852   -5.669729    0.323007
    109          6           0       -6.770811   -5.201504   -2.447539
    110          6           0       -7.264588   -4.323002   -3.574396
    111          7           0       -6.068538   -0.315963   -0.355322
    112          6           0       -5.196439   -1.408707   -0.553920
    113          6           0       -3.817274   -0.889182   -0.451899
    114          6           0       -3.984043    0.476302   -0.175972
    115          6           0       -5.369253    0.781954   -0.090649
    116          6           0       -2.626970   -1.662070   -0.561181
    117          6           0       -3.303158    1.726538    0.073024
    118          8           0       -2.130846    2.098564    0.041368
    119          6           0       -4.364459    2.782288    0.607277
    120          6           0       -4.168771    4.064096   -0.155083
    121          8           0       -4.395711    4.113794   -1.376812
    122          8           0       -3.957497    5.067226    0.716394
    123          6           0       -3.768733    6.361407    0.008378
    124          1           0      -11.120886    2.156874    2.066278
    125          1           0      -11.094556   -3.502340   -0.576461
    126          1           0       -4.831091   -3.337953   -0.996719
    127          1           0       -6.656222    4.262382    2.155065
    128          1           0       -9.471324    4.151718    2.148358
    129          1           0       -7.395537    2.863550    3.872262
    130          1           0       -8.913841    1.953349    3.728776
    131          1           0       -8.982729    3.573626    4.352983
    132          1           0       -8.694556    4.729504   -0.034173
    133          1           0       -6.946901    4.814534   -0.462697
    134          1           0       -7.376330    6.458897    1.821855
    135          1           0       -8.831448    6.590772    0.899849
    136          1           0      -13.137882    1.939078    1.496164
    137          1           0      -14.111916    0.507935    1.543881
    138          1           0      -14.070487    1.433505    0.024548
    139          1           0      -15.095576   -1.018053    0.248063
    140          1           0      -15.473316   -2.045077   -1.251686
    141          1           0      -14.766531   -0.407363   -1.360134
    142          1           0       -9.322744   -4.986729   -1.652075
    143          1           0       -6.656997   -5.206636   -0.347387
    144          1           0       -9.738395   -6.494116   -0.013739
    145          1           0       -9.520131   -5.155515    1.168013
    146          1           0       -8.200647   -6.131409    0.765203
    147          1           0       -7.214600   -6.187546   -2.605419
    148          1           0       -5.695151   -5.315327   -2.531238
    149          1           0       -8.290746   -4.670657   -3.726836
    150          1           0       -6.661079   -4.470480   -4.467739
    151          1           0       -7.315095   -3.273468   -3.262032
    152          1           0       -1.943142   -1.095006   -1.178690
    153          1           0       -2.827648   -2.643200   -0.986502
    154          1           0       -2.336326   -1.722452    0.491026
    155          1           0       -4.189211    2.910810    1.676088
    156          1           0       -2.808899    6.769735    0.339561
    157          1           0       -4.673450    6.958068    0.230278
    158          1           0       -3.625640    6.329072   -1.065367
 ---------------------------------------------------------------------

 SCF Done:  E(RCAM-B3LYP) =  -4069.81129138     A.U. after   19 cycles

 Excitation energies and oscillator strengths:

 Excited State   1:      Singlet-A      1.6751 eV  740.18 nm  f=0.3769  <S**2>=0.000
     309 -> 315        0.16375
     311 -> 313        0.64766
     312 -> 314       -0.22627
 This state for optimization and/or second-order correction.
 Total Energy, E(TD-HF/TD-DFT) =  -4069.74973394
 Copying the excited state density for this state as the 1-particle RhoCI density.

 Excited State   2:      Singlet-A      1.6804 eV  737.83 nm  f=0.4090  <S**2>=0.000
     310 -> 316        0.16547
     311 -> 313        0.22625
     312 -> 314        0.64728

 Excited State   3:      Singlet-A      2.1857 eV  567.26 nm  f=0.0366  <S**2>=0.000
     309 -> 313        0.60468
     310 -> 314       -0.21816
     311 -> 315       -0.25666

 Excited State   4:      Singlet-A      2.1919 eV  565.64 nm  f=0.1548  <S**2>=0.000
     309 -> 313        0.21696
     310 -> 314        0.60275
     312 -> 316       -0.26160

 Excited State   5:      Singlet-A      2.7303 eV  454.11 nm  f=0.0000  <S**2>=0.000
     312 -> 313        0.70675

 The electronic state is 1-A.
 Alpha  occ. eigenvalues --  -46.87580 -46.87550 -19.26239 -19.25986 -19.19039
 Alpha  occ. eigenvalues --  -19.18696 -19.18642 -19.18612 -19.17926 -19.17919
 Alpha  occ. eigenvalues --  -14.42421 -14.42206 -14.41280 -14.41217 -14.39272
 Alpha  occ. eigenvalues --  -14.39161 -14.38513 -14.38339 -10.38974 -10.38765
 Alpha  occ. eigenvalues --  -10.35321 -10.35248 -10.34136 -10.34107 -10.31648
 Alpha  occ. eigenvalues --  -10.31390 -10.31226 -10.31158 -10.30950 -10.30664
 Alpha  occ. eigenvalues --  -10.30325 -10.30311 -10.30272 -10.30271 -10.30069
 Alpha  occ. eigenvalues --  -10.29989 -10.29810 -10.29693 -10.29397 -10.29359
 Alpha  occ. eigenvalues --  -10.29314 -10.29024 -10.28653 -10.28594 -10.28490
 Alpha  occ. eigenvalues --  -10.28321 -10.28259 -10.28120 -10.28078 -10.27909
 Alpha  occ. eigenvalues --  -10.27875 -10.27593 -10.27557 -10.27491 -10.27447
 Alpha  occ. eigenvalues --  -10.27402 -10.27400 -10.27383 -10.27353 -10.27311
 Alpha  occ. eigenvalues --  -10.27305 -10.27270 -10.27260 -10.27158 -10.26951
 Alpha  occ. eigenvalues --  -10.26896 -10.26623 -10.26401 -10.26355 -10.26228
 Alpha  occ. eigenvalues --  -10.26065 -10.26020 -10.26008 -10.25978 -10.25853
 Alpha  occ. eigenvalues --  -10.25792 -10.25724 -10.25620 -10.25337 -10.25268
 Alpha  occ. eigenvalues --  -10.24779 -10.24654 -10.24609 -10.24592 -10.24559
 Alpha  occ. eigenvalues --  -10.24505  -3.16330  -3.16291  -1.91212  -1.91172
 Alpha  occ. eigenvalues --   -1.90801  -1.90760  -1.90637  -1.90602  -1.16530
 Alpha  occ. eigenvalues --   -1.16331  -1.08531  -1.08372  -1.07016  -1.06896
 Alpha  occ. eigenvalues --   -1.06825  -1.06325  -1.04417  -1.04336  -1.03583
 Alpha  occ. eigenvalues --   -1.03526  -1.02995  -1.02957  -1.02173  -1.02029
 Alpha  occ. eigenvalues --   -0.91898  -0.91724  -0.89415  -0.89305  -0.89084
 Alpha  occ. eigenvalues --   -0.88937  -0.88145  -0.88078  -0.87694  -0.87635
 Alpha  occ. eigenvalues --   -0.87606  -0.87433  -0.87053  -0.87045  -0.84928
 Alpha  occ. eigenvalues --   -0.84735  -0.83799  -0.83731  -0.82861  -0.82764
 Alpha  occ. eigenvalues --   -0.82579  -0.82410  -0.81501  -0.81329  -0.80357
 Alpha  occ. eigenvalues --   -0.80353  -0.78571  -0.78553  -0.77069  -0.76992
 Alpha  occ. eigenvalues --   -0.76820  -0.76691  -0.75758  -0.75679  -0.74727
 Alpha  occ. eigenvalues --   -0.74687  -0.72613  -0.72543  -0.71504  -0.71443
 Alpha  occ. eigenvalues --   -0.69710  -0.69683  -0.68752  -0.68633  -0.67517
 Alpha  occ. eigenvalues --   -0.67407  -0.67128  -0.66967  -0.65195  -0.65034
 Alpha  occ. eigenvalues --   -0.64687  -0.64612  -0.64571  -0.64381  -0.64125
 Alpha  occ. eigenvalues --   -0.64052  -0.62182  -0.62035  -0.60263  -0.60223
 Alpha  occ. eigenvalues --   -0.59722  -0.59558  -0.58909  -0.58752  -0.58339
 Alpha  occ. eigenvalues --   -0.58267  -0.57451  -0.57323  -0.57153  -0.57078
 Alpha  occ. eigenvalues --   -0.56117  -0.56078  -0.55794  -0.55709  -0.55368
 Alpha  occ. eigenvalues --   -0.55296  -0.55162  -0.55114  -0.54399  -0.54280
 Alpha  occ. eigenvalues --   -0.53843  -0.53642  -0.53145  -0.53074  -0.53060
 Alpha  occ. eigenvalues --   -0.52983  -0.52815  -0.52664  -0.52599  -0.52532
 Alpha  occ. eigenvalues --   -0.52322  -0.52237  -0.51773  -0.51681  -0.51584
 Alpha  occ. eigenvalues --   -0.51368  -0.51107  -0.50957  -0.50407  -0.50367
 Alpha  occ. eigenvalues --   -0.49909  -0.49830  -0.49793  -0.49698  -0.49413
 Alpha  occ. eigenvalues --   -0.49280  -0.49118  -0.49019  -0.48975  -0.48857
 Alpha  occ. eigenvalues --   -0.48468  -0.48350  -0.48294  -0.48255  -0.48251
 Alpha  occ. eigenvalues --   -0.48216  -0.47516  -0.47465  -0.47073  -0.47041
 Alpha  occ. eigenvalues --   -0.46629  -0.46569  -0.46482  -0.46305  -0.46187
 Alpha  occ. eigenvalues --   -0.46129  -0.45997  -0.45927  -0.45723  -0.45575
 Alpha  occ. eigenvalues --   -0.45134  -0.44995  -0.44429  -0.44394  -0.44334
 Alpha  occ. eigenvalues --   -0.44287  -0.44047  -0.43997  -0.43925  -0.43854
 Alpha  occ. eigenvalues --   -0.43853  -0.43781  -0.43461  -0.43305  -0.43243
 Alpha  occ. eigenvalues --   -0.43153  -0.42839  -0.42802  -0.42793  -0.42478
 Alpha  occ. eigenvalues --   -0.42474  -0.42392  -0.41887  -0.41784  -0.41576
 Alpha  occ. eigenvalues --   -0.41466  -0.41386  -0.41289  -0.40913  -0.40911
 Alpha  occ. eigenvalues --   -0.40653  -0.40638  -0.40629  -0.40607  -0.40418
 Alpha  occ. eigenvalues --   -0.40356  -0.40161  -0.39964  -0.39351  -0.39246
 Alpha  occ. eigenvalues --   -0.38279  -0.38256  -0.37582  -0.37487  -0.37189
 Alpha  occ. eigenvalues --   -0.37122  -0.37101  -0.37007  -0.36666  -0.36442
 Alpha  occ. eigenvalues --   -0.36132  -0.35936  -0.34169  -0.34045  -0.33747
 Alpha  occ. eigenvalues --   -0.33460  -0.33092  -0.32941  -0.31202  -0.31141
 Alpha  occ. eigenvalues --   -0.30892  -0.30797  -0.29830  -0.29776  -0.29244
 Alpha  occ. eigenvalues --   -0.29216  -0.29116  -0.29079  -0.23955  -0.23839
 Alpha  occ. eigenvalues --   -0.21036  -0.20892
 Alpha virt. eigenvalues --   -0.08707  -0.08539  -0.01606  -0.01517   0.00050
 Alpha virt. eigenvalues --    0.00170   0.02308   0.02441   0.03313   0.03444
 Alpha virt. eigenvalues --    0.04802   0.04963   0.05281   0.05401   0.06250

 Mulliken charges:
               1
     1  Mg   0.840369
     2  C   -0.002081
     3  C   -0.093885
     4  C   -0.046130
     5  C   -0.064230
     6  N   -0.256709
     7  C   -0.052046
     8  C   -0.014250
     9  C   -0.087103
    10  C    0.046683
    11  C    0.104956
    12  C    0.053411
    13  C   -0.071667
    14  H    0.036580
    15  N   -0.433003
    16  C    0.168689
    17  C   -0.177175
    18  C   -0.004176
    19  C    0.148837
    20  C    0.110304
    21  C    0.012199
    22  O   -0.250256
    23  C    0.062469
    24  N   -0.341196
    25  C    0.041205
    26  C   -0.028005
    27  C   -0.023929
    28  C    0.074997
    29  C    0.076346
    30  C    0.035230
    31  C   -0.004461
    32  N   -0.310599
    33  C    0.080862
    34  C   -0.169522
    35  C    0.008415
    36  C    0.083720
    37  C    0.127206
    38  C    0.046689
    39  O   -0.188396
    40  C   -0.005616
    41  C    0.212423
    42  O   -0.254926
    43  O   -0.305347
    44  C    0.157620
    45  H   -0.018062
    46  H   -0.017420
    47  H   -0.041864
    48  H    0.000567
    49  H   -0.004123
    50  H    0.025251
    51  H    0.016142
    52  H    0.016164
    53  H    0.011989
    54  H    0.045752
    55  H    0.017033
    56  H    0.017566
    57  H    0.005732
    58  H    0.026205
    59  H    0.039566
    60  H    0.037064
    61  H    0.034994
    62  H    0.031797
    63  H    0.016147
    64  H    0.009097
    65  H    0.022687
    66  H    0.012454
    67  H    0.004402
    68  H    0.005692
    69  H    0.004600
    70  H    0.008243
    71  H    0.017701
    72  H    0.030096
    73  H    0.047968
    74  H    0.008828
    75  H    0.045563
    76  H    0.034601
    77  H    0.042216
    78  H    0.046055
    79  H    0.054796
    80  Mg   0.837815
    81  C   -0.016744
    82  C   -0.087867
    83  C   -0.045552
    84  C   -0.064967
    85  N   -0.254504
    86  C   -0.049918
    87  C   -0.015004
    88  C   -0.090490
    89  C    0.045646
    90  C    0.114473
    91  C    0.062573
    92  C   -0.077781
    93  H    0.035009
    94  N   -0.423429
    95  C    0.162785
    96  C   -0.174817
    97  C   -0.007947
    98  C    0.152021
    99  C    0.099449
   100  C    0.015470
   101  O   -0.253363
   102  C    0.061234
   103  N   -0.350086
   104  C    0.037385
   105  C   -0.019764
   106  C   -0.034870
   107  C    0.089041
   108  C    0.073735
   109  C    0.034754
   110  C   -0.007670
   111  N   -0.324252
   112  C    0.078583
   113  C   -0.162809
   114  C    0.002617
   115  C    0.096315
   116  C    0.131344
   117  C    0.042605
   118  O   -0.186115
   119  C    0.000655
   120  C    0.211791
   121  O   -0.250481
   122  O   -0.306014
   123  C    0.151937
   124  H   -0.019957
   125  H   -0.015753
   126  H   -0.040290
   127  H   -0.000876
   128  H   -0.004470
   129  H    0.022205
   130  H    0.014355
   131  H    0.015948
   132  H    0.013918
   133  H    0.037997
   134  H    0.020461
   135  H    0.019413
   136  H    0.008574
   137  H    0.025875
   138  H    0.039649
   139  H    0.038111
   140  H    0.036225
   141  H    0.033883
   142  H    0.014331
   143  H    0.012367
   144  H    0.024982
   145  H    0.011503
   146  H    0.005565
   147  H    0.006085
   148  H    0.003747
   149  H    0.010809
   150  H    0.018046
   151  H    0.030271
   152  H    0.047518
   153  H    0.008435
   154  H    0.046681
   155  H    0.034490
   156  H    0.043815
   157  H    0.048951
   158  H    0.054342
 Sum of Mulliken charges =  -0.00000

 Dipole moment (field-independent basis, Debye):
    X=             -1.5039    Y=              1.6965    Z=              6.6249  Tot=              7.0020
 Quadrupole moment (field-independent basis, Debye-Ang):
   XX=           -449.6203   YY=           -480.2050   ZZ=           -508.1405
   XY=            -31.5971   XZ=              7.4437   YZ=             46.3398

 Normal termination of Gaussian 16 at Sun Sep 12 02:29:53 2021.
