 Gaussian 16, Revision A.03,
 Gaussian 16:  ES64L-G16RevA.03 25-Dec-2016

 -----------------------------------
 #p cam-b3lyp/Def2SVP td=(nstates=5)
 -----------------------------------

 --------------------------------
 TDDFT excited states in gaussian
 --------------------------------
 Symbolic Z-matrix:
 Charge =  0 Multiplicity = 1

                         Standard orientation:
 ---------------------------------------------------------------------
 Center     Atomic      Atomic             Coordinates (Angstroms)
 Number     Number       Type             X           Y           Z
 ---------------------------------------------------------------------
      1         12           0       15.777010   -0.759325    0.290563
      2          6           0       16.108964    2.275886   -1.577462
      3          6           0       16.748280    1.004675    3.045196
      4          6           0       15.930943   -3.508963    1.862954
      5          6           0       15.944308   -2.470066   -2.741109
      6          7           0       16.329445    1.365873    0.571624
      7          6           0       16.358136    2.438667   -0.212889
      8          6           0       16.603875    3.766243    0.564626
      9          6           0       17.337112    3.173067    1.850123
     10          6           0       16.744025    1.775161    1.844627
     11          6           0       18.850427    3.065194    1.692820
     12          6           0       15.267607    4.486437    0.948605
     13          6           0       15.418116    5.936986    1.416161
     14          1           0       14.383455    6.897394    1.063397
     15          7           0       15.790227   -1.126135    2.231729
     16          6           0       16.203499   -0.286977    3.211681
     17          6           0       16.016759   -1.020499    4.482018
     18          6           0       15.640069   -2.421935    4.147089
     19          6           0       15.799626   -2.415216    2.715351
     20          6           0       16.147736   -0.379217    5.829368
     21          6           0       15.215410   -3.585896    4.985535
     22          8           0       15.159111   -4.775164    4.519654
     23          6           0       14.948684   -3.307962    6.408437
     24          7           0       16.137549   -2.723879   -0.316209
     25          6           0       16.090382   -3.735592    0.557403
     26          6           0       16.097602   -5.062211   -0.142575
     27          6           0       15.913841   -4.743207   -1.696351
     28          6           0       15.915017   -3.196385   -1.621435
     29          6           0       17.356310   -5.917588    0.057407
     30          6           0       14.740322   -5.445492   -2.424409
     31          6           0       13.422828   -4.921604   -1.898244
     32          7           0       15.810560   -0.221342   -1.811934
     33          6           0       15.905603   -1.095408   -2.904477
     34          6           0       16.001699   -0.262230   -4.117180
     35          6           0       15.972381    1.047209   -3.641414
     36          6           0       15.891237    1.032841   -2.219619
     37          6           0       16.158307   -0.741858   -5.447543
     38          6           0       16.015555    2.455092   -4.001771
     39          8           0       15.989197    3.079729   -5.063198
     40          6           0       16.228534    3.306162   -2.672806
     41          6           0       15.231898    4.432984   -2.690092
     42          8           0       14.008260    4.206262   -2.596965
     43          8           0       15.880477    5.601930   -2.574105
     44          6           0       14.947155    6.759814   -2.554876
     45          1           0       17.266118    1.397282    3.922490
     46          1           0       15.876923   -4.481058    2.357476
     47          1           0       15.914193   -2.933655   -3.728850
     48          1           0       17.257826    4.475720    0.057266
     49          1           0       17.053737    3.701348    2.760254
     50          1           0       19.162332    3.293587    0.673765
     51          1           0       19.096333    2.033231    1.943966
     52          1           0       19.361668    3.683282    2.431316
     53          1           0       14.866646    4.039021    1.858061
     54          1           0       14.556345    4.445751    0.122907
     55          1           0       16.405047    6.333030    1.175275
     56          1           0       15.379273    5.950503    2.505430
     57          1           0       16.593990    0.612002    5.759455
     58          1           0       16.874475   -0.965244    6.391625
     59          1           0       15.199540   -0.355909    6.366687
     60          1           0       15.847234   -2.897390    6.869509
     61          1           0       14.571060   -4.238422    6.830923
     62          1           0       14.185717   -2.532234    6.479693
     63          1           0       15.270969   -5.686511    0.194105
     64          1           0       16.792760   -5.022355   -2.277945
     65          1           0       17.152720   -6.906971    0.467745
     66          1           0       18.042722   -5.362848    0.696463
     67          1           0       17.960311   -6.058474   -0.838557
     68          1           0       14.760177   -6.517204   -2.229512
     69          1           0       14.758301   -5.304557   -3.505179
     70          1           0       13.263112   -5.520413   -1.002281
     71          1           0       12.628677   -5.089230   -2.626554
     72          1           0       13.505115   -3.880881   -1.584221
     73          1           0       15.482910   -0.151098   -6.066260
     74          1           0       15.929046   -1.805123   -5.514691
     75          1           0       17.214378   -0.531003   -5.615205
     76          1           0       17.256019    3.668050   -2.693615
     77          1           0       15.254286    7.432977   -3.355348
     78          1           0       14.955783    7.147889   -1.536186
     79          1           0       13.916250    6.552834   -2.844242
     80         12           0      -15.947140    0.694172    0.448393
     81          6           0      -15.897714   -2.561435   -1.060784
     82          6           0      -15.027383    1.950863   -2.586304
     83          6           0      -15.543375    3.512442    1.849031
     84          6           0      -15.735995   -0.890652    3.545076
     85          7           0      -15.545581   -0.279923   -1.496377
     86          6           0      -15.618540   -1.516291   -1.965864
     87          6           0      -15.458050   -1.630122   -3.505619
     88          6           0      -14.636753   -0.274290   -3.762670
     89          6           0      -15.121562    0.536415   -2.562505
     90          6           0      -13.132043   -0.450398   -3.643698
     91          6           0      -16.837623   -1.616480   -4.253001
     92          6           0      -16.776134   -2.032946   -5.724240
     93          1           0      -17.896244   -2.785827   -6.281902
     94          7           0      -15.851674    2.515378   -0.334345
     95          6           0      -15.480028    2.843104   -1.589639
     96          6           0      -15.558040    4.310357   -1.662199
     97          6           0      -15.847150    4.832709   -0.299012
     98          6           0      -15.735565    3.615167    0.478970
     99          6           0      -15.444227    5.068427   -2.952853
    100          6           0      -16.158310    6.203661    0.220472
    101          8           0      -16.140544    6.468659    1.474387
    102          6           0      -16.392803    7.248740   -0.786652
    103          7           0      -15.465967    1.245515    2.394374
    104          6           0      -15.405072    2.540521    2.750999
    105          6           0      -15.315977    2.689592    4.251075
    106          6           0      -15.574464    1.227096    4.844261
    107          6           0      -15.684614    0.434134    3.523480
    108          6           0      -13.990780    3.229530    4.788383
    109          6           0      -16.713838    1.083079    5.890083
    110          6           0      -18.052467    1.329105    5.232122
    111          7           0      -16.021293   -1.344263    1.160660
    112          6           0      -15.886789   -1.787068    2.494795
    113          6           0      -15.890304   -3.264085    2.465741
    114          6           0      -16.004361   -3.580645    1.103669
    115          6           0      -16.047153   -2.385408    0.336153
    116          6           0      -15.748221   -4.118674    3.595169
    117          6           0      -16.087595   -4.654230    0.139713
    118          8           0      -16.185302   -5.878693    0.209474
    119          6           0      -15.894915   -4.043336   -1.314951
    120          6           0      -16.973331   -4.604276   -2.200897
    121          8           0      -18.168046   -4.326654   -1.995495
    122          8           0      -16.404390   -5.194957   -3.267555
    123          6           0      -17.434160   -5.757106   -4.181553
    124          1           0      -14.521113    2.423020   -3.428710
    125          1           0      -15.509165    4.459418    2.392663
    126          1           0      -15.772713   -1.458306    4.477333
    127          1           0      -14.880771   -2.483650   -3.840307
    128          1           0      -14.940241    0.201244   -4.691715
    129          1           0      -12.868541   -1.435544   -3.288446
    130          1           0      -12.801906    0.305298   -2.942989
    131          1           0      -12.648136   -0.211286   -4.595007
    132          1           0      -17.173556   -0.577635   -4.365684
    133          1           0      -17.557027   -2.221315   -3.736011
    134          1           0      -15.824544   -2.516577   -5.976290
    135          1           0      -16.790055   -1.131079   -6.341047
    136          1           0      -15.069145    4.430265   -3.762455
    137          1           0      -14.659783    5.820242   -2.813999
    138          1           0      -16.372729    5.573165   -3.228176
    139          1           0      -15.516144    7.339693   -1.423567
    140          1           0      -16.687385    8.136429   -0.223516
    141          1           0      -17.219671    6.932946   -1.432544
    142          1           0      -16.083667    3.358967    4.619455
    143          1           0      -14.690333    0.838936    5.371028
    144          1           0      -14.107915    4.144074    5.399918
    145          1           0      -13.332474    3.414463    3.949949
    146          1           0      -13.413060    2.525445    5.384804
    147          1           0      -16.608423    1.839581    6.671590
    148          1           0      -16.731234    0.114907    6.379325
    149          1           0      -18.134083    2.420145    5.239134
    150          1           0      -18.852879    0.869711    5.808608
    151          1           0      -18.041433    1.006106    4.184644
    152          1           0      -16.476997   -4.910021    3.480451
    153          1           0      -15.894017   -3.574782    4.526129
    154          1           0      -14.711644   -4.441442    3.466349
    155          1           0      -14.897584   -4.321640   -1.657684
    156          1           0      -17.199334   -6.817818   -4.313605
    157          1           0      -17.411224   -5.119796   -5.085468
    158          1           0      -18.453169   -5.809939   -3.816502
 ---------------------------------------------------------------------

 SCF Done:  E(RCAM-B3LYP) =  -4069.81179201     A.U. after   19 cycles

 Excitation energies and oscillator strengths:

 Excited State   1:      Singlet-A      1.6755 eV  739.98 nm  f=0.3342  <S**2>=0.000
     310 -> 316        0.17188
     312 -> 313        0.67938
     310 <- 316        0.10360
 This state for optimization and/or second-order correction.
 Total Energy, E(TD-HF/TD-DFT) =  -4069.75021821
 Copying the excited state density for this state as the 1-particle RhoCI density.

 Excited State   2:      Singlet-A      1.6800 eV  738.02 nm  f=0.4423  <S**2>=0.000
     309 -> 315        0.17388
     311 -> 314        0.67903
     309 <- 315        0.10412

 Excited State   3:      Singlet-A      2.1861 eV  567.14 nm  f=0.1006  <S**2>=0.000
     310 -> 313        0.64239
     312 -> 316       -0.27307

 Excited State   4:      Singlet-A      2.1926 eV  565.47 nm  f=0.1002  <S**2>=0.000
     309 -> 314        0.64062
     311 -> 315       -0.27828

 Excited State   5:      Singlet-A      3.0661 eV  404.38 nm  f=0.0000  <S**2>=0.000
     311 -> 313        0.70711

 The electronic state is 1-A.
 Alpha  occ. eigenvalues --  -46.87796 -46.87660 -19.26347 -19.26289 -19.19159
 Alpha  occ. eigenvalues --  -19.19024 -19.18812 -19.18714 -19.18172 -19.18051
 Alpha  occ. eigenvalues --  -14.42496 -14.42450 -14.41449 -14.41359 -14.39402
 Alpha  occ. eigenvalues --  -14.39352 -14.38600 -14.38587 -10.39089 -10.39083
 Alpha  occ. eigenvalues --  -10.35445 -10.35391 -10.34392 -10.34228 -10.31753
 Alpha  occ. eigenvalues --  -10.31685 -10.31406 -10.31307 -10.31021 -10.30908
 Alpha  occ. eigenvalues --  -10.30570 -10.30508 -10.30398 -10.30360 -10.30206
 Alpha  occ. eigenvalues --  -10.30141 -10.29921 -10.29896 -10.29631 -10.29436
 Alpha  occ. eigenvalues --  -10.29401 -10.29254 -10.28749 -10.28715 -10.28648
 Alpha  occ. eigenvalues --  -10.28539 -10.28404 -10.28365 -10.28135 -10.28117
 Alpha  occ. eigenvalues --  -10.28001 -10.27793 -10.27727 -10.27667 -10.27584
 Alpha  occ. eigenvalues --  -10.27521 -10.27500 -10.27483 -10.27479 -10.27466
 Alpha  occ. eigenvalues --  -10.27461 -10.27448 -10.27404 -10.27379 -10.27160
 Alpha  occ. eigenvalues --  -10.27049 -10.26705 -10.26688 -10.26413 -10.26405
 Alpha  occ. eigenvalues --  -10.26234 -10.26183 -10.26143 -10.26019 -10.26017
 Alpha  occ. eigenvalues --  -10.25935 -10.25853 -10.25846 -10.25434 -10.25402
 Alpha  occ. eigenvalues --  -10.24872 -10.24833 -10.24787 -10.24736 -10.24690
 Alpha  occ. eigenvalues --  -10.24687  -3.16539  -3.16410  -1.91421  -1.91292
 Alpha  occ. eigenvalues --   -1.91007  -1.90881  -1.90850  -1.90718  -1.16641
 Alpha  occ. eigenvalues --   -1.16637  -1.08658  -1.08630  -1.07213  -1.06966
 Alpha  occ. eigenvalues --   -1.06944  -1.06646  -1.04581  -1.04494  -1.03760
 Alpha  occ. eigenvalues --   -1.03663  -1.03234  -1.03039  -1.02411  -1.02111
 Alpha  occ. eigenvalues --   -0.91986  -0.91973  -0.89519  -0.89496  -0.89188
 Alpha  occ. eigenvalues --   -0.89147  -0.88286  -0.88222  -0.87871  -0.87794
 Alpha  occ. eigenvalues --   -0.87683  -0.87673  -0.87272  -0.87119  -0.84997
 Alpha  occ. eigenvalues --   -0.84982  -0.83936  -0.83879  -0.82965  -0.82931
 Alpha  occ. eigenvalues --   -0.82650  -0.82648  -0.81595  -0.81588  -0.80597
 Alpha  occ. eigenvalues --   -0.80441  -0.78796  -0.78635  -0.77218  -0.77143
 Alpha  occ. eigenvalues --   -0.76935  -0.76897  -0.75924  -0.75836  -0.74898
 Alpha  occ. eigenvalues --   -0.74804  -0.72775  -0.72699  -0.71672  -0.71580
 Alpha  occ. eigenvalues --   -0.69907  -0.69761  -0.68873  -0.68825  -0.67641
 Alpha  occ. eigenvalues --   -0.67601  -0.67219  -0.67197  -0.65287  -0.65269
 Alpha  occ. eigenvalues --   -0.64854  -0.64770  -0.64652  -0.64621  -0.64269
 Alpha  occ. eigenvalues --   -0.64205  -0.62300  -0.62277  -0.60441  -0.60339
 Alpha  occ. eigenvalues --   -0.59804  -0.59794  -0.58993  -0.58988  -0.58504
 Alpha  occ. eigenvalues --   -0.58425  -0.57586  -0.57553  -0.57309  -0.57237
 Alpha  occ. eigenvalues --   -0.56310  -0.56204  -0.55981  -0.55884  -0.55520
 Alpha  occ. eigenvalues --   -0.55451  -0.55340  -0.55249  -0.54525  -0.54489
 Alpha  occ. eigenvalues --   -0.53909  -0.53895  -0.53298  -0.53227  -0.53222
 Alpha  occ. eigenvalues --   -0.53140  -0.52916  -0.52901  -0.52754  -0.52665
 Alpha  occ. eigenvalues --   -0.52438  -0.52405  -0.51917  -0.51886  -0.51656
 Alpha  occ. eigenvalues --   -0.51616  -0.51201  -0.51197  -0.50570  -0.50473
 Alpha  occ. eigenvalues --   -0.50031  -0.49978  -0.49917  -0.49869  -0.49514
 Alpha  occ. eigenvalues --   -0.49486  -0.49215  -0.49200  -0.49102  -0.49097
 Alpha  occ. eigenvalues --   -0.48594  -0.48557  -0.48461  -0.48445  -0.48378
 Alpha  occ. eigenvalues --   -0.48337  -0.47694  -0.47593  -0.47296  -0.47117
 Alpha  occ. eigenvalues --   -0.46797  -0.46709  -0.46555  -0.46551  -0.46359
 Alpha  occ. eigenvalues --   -0.46271  -0.46163  -0.46086  -0.45824  -0.45822
 Alpha  occ. eigenvalues --   -0.45210  -0.45201  -0.44579  -0.44513  -0.44506
 Alpha  occ. eigenvalues --   -0.44474  -0.44144  -0.44126  -0.44088  -0.44078
 Alpha  occ. eigenvalues --   -0.44020  -0.43937  -0.43552  -0.43497  -0.43385
 Alpha  occ. eigenvalues --   -0.43384  -0.43027  -0.42929  -0.42901  -0.42701
 Alpha  occ. eigenvalues --   -0.42656  -0.42555  -0.42010  -0.41965  -0.41704
 Alpha  occ. eigenvalues --   -0.41669  -0.41534  -0.41457  -0.41141  -0.40988
 Alpha  occ. eigenvalues --   -0.40869  -0.40821  -0.40720  -0.40697  -0.40571
 Alpha  occ. eigenvalues --   -0.40494  -0.40234  -0.40223  -0.39441  -0.39429
 Alpha  occ. eigenvalues --   -0.38468  -0.38352  -0.37749  -0.37651  -0.37320
 Alpha  occ. eigenvalues --   -0.37267  -0.37264  -0.37197  -0.36770  -0.36716
 Alpha  occ. eigenvalues --   -0.36217  -0.36194  -0.34286  -0.34253  -0.33860
 Alpha  occ. eigenvalues --   -0.33774  -0.33187  -0.33175  -0.31342  -0.31273
 Alpha  occ. eigenvalues --   -0.31035  -0.30972  -0.30031  -0.29955  -0.29449
 Alpha  occ. eigenvalues --   -0.29327  -0.29322  -0.29212  -0.24080  -0.24036
 Alpha  occ. eigenvalues --   -0.21127  -0.21116
 Alpha virt. eigenvalues --   -0.08791  -0.08774  -0.01749  -0.01684  -0.00057
 Alpha virt. eigenvalues --   -0.00028   0.02199   0.02207   0.03122   0.03225
 Alpha virt. eigenvalues --    0.04718   0.04732   0.05095   0.05167   0.06177

 Mulliken charges:
               1
     1  Mg   0.838747
     2  C   -0.002958
     3  C   -0.094072
     4  C   -0.045870
     5  C   -0.063964
     6  N   -0.256773
     7  C   -0.052490
     8  C   -0.014005
     9  C   -0.087029
    10  C    0.046307
    11  C    0.104819
    12  C    0.053470
    13  C   -0.071807
    14  H    0.036105
    15  N   -0.433135
    16  C    0.168407
    17  C   -0.177129
    18  C   -0.003975
    19  C    0.148721
    20  C    0.110167
    21  C    0.012305
    22  O   -0.249594
    23  C    0.062465
    24  N   -0.341120
    25  C    0.041246
    26  C   -0.028179
    27  C   -0.023964
    28  C    0.074815
    29  C    0.076163
    30  C    0.035136
    31  C   -0.004504
    32  N   -0.310461
    33  C    0.080390
    34  C   -0.169742
    35  C    0.008333
    36  C    0.082974
    37  C    0.127317
    38  C    0.046089
    39  O   -0.188508
    40  C   -0.005330
    41  C    0.212851
    42  O   -0.257123
    43  O   -0.304782
    44  C    0.157704
    45  H   -0.017582
    46  H   -0.016809
    47  H   -0.041515
    48  H    0.000925
    49  H   -0.004012
    50  H    0.025463
    51  H    0.016455
    52  H    0.016673
    53  H    0.011222
    54  H    0.044100
    55  H    0.017868
    56  H    0.017979
    57  H    0.005885
    58  H    0.026855
    59  H    0.039597
    60  H    0.037355
    61  H    0.035700
    62  H    0.031522
    63  H    0.016578
    64  H    0.009451
    65  H    0.023242
    66  H    0.012552
    67  H    0.004751
    68  H    0.006383
    69  H    0.004698
    70  H    0.008813
    71  H    0.018117
    72  H    0.028972
    73  H    0.047512
    74  H    0.009096
    75  H    0.045997
    76  H    0.035145
    77  H    0.042915
    78  H    0.046425
    79  H    0.053649
    80  Mg   0.837842
    81  C   -0.016799
    82  C   -0.087760
    83  C   -0.045518
    84  C   -0.064909
    85  N   -0.254571
    86  C   -0.049833
    87  C   -0.015090
    88  C   -0.090512
    89  C    0.045751
    90  C    0.114349
    91  C    0.062506
    92  C   -0.077923
    93  H    0.034906
    94  N   -0.423508
    95  C    0.162917
    96  C   -0.174575
    97  C   -0.007801
    98  C    0.152142
    99  C    0.099338
   100  C    0.015579
   101  O   -0.253202
   102  C    0.061189
   103  N   -0.350069
   104  C    0.037558
   105  C   -0.019846
   106  C   -0.034797
   107  C    0.088923
   108  C    0.073652
   109  C    0.034723
   110  C   -0.007661
   111  N   -0.324096
   112  C    0.078439
   113  C   -0.163158
   114  C    0.002249
   115  C    0.096165
   116  C    0.131490
   117  C    0.042382
   118  O   -0.187877
   119  C    0.000913
   120  C    0.211273
   121  O   -0.251037
   122  O   -0.305616
   123  C    0.152024
   124  H   -0.019569
   125  H   -0.015583
   126  H   -0.040493
   127  H   -0.000611
   128  H   -0.004277
   129  H    0.022479
   130  H    0.014446
   131  H    0.016392
   132  H    0.013918
   133  H    0.037658
   134  H    0.020832
   135  H    0.019630
   136  H    0.008824
   137  H    0.026211
   138  H    0.039821
   139  H    0.038301
   140  H    0.036399
   141  H    0.033907
   142  H    0.014391
   143  H    0.012401
   144  H    0.025117
   145  H    0.011679
   146  H    0.005657
   147  H    0.006232
   148  H    0.003632
   149  H    0.010927
   150  H    0.017910
   151  H    0.030126
   152  H    0.045989
   153  H    0.008479
   154  H    0.046945
   155  H    0.035067
   156  H    0.043922
   157  H    0.049527
   158  H    0.053564
 Sum of Mulliken charges =  -0.00000

 Dipole moment (field-independent basis, Debye):
    X=              4.1661    Y=              3.3492    Z=              1.2394  Tot=              5.4872
 Quadrupole moment (field-independent basis, Debye-Ang):
   XX=           -518.2087   YY=           -528.3580   ZZ=           -470.4833
   XY=            -34.4514   XZ=            109.1307   YZ=             26.4459

 Normal termination of Gaussian 16 at Sat Sep  4 17:03:44 2021.
