 Gaussian 16, Revision A.03,
 Gaussian 16:  ES64L-G16RevA.03 25-Dec-2016

 -----------------------------------
 #p cam-b3lyp/Def2SVP td=(nstates=5)
 -----------------------------------

 --------------------------------
 TDDFT excited states in gaussian
 --------------------------------
 Symbolic Z-matrix:
 Charge =  0 Multiplicity = 1

                         Standard orientation:
 ---------------------------------------------------------------------
 Center     Atomic      Atomic             Coordinates (Angstroms)
 Number     Number       Type             X           Y           Z
 ---------------------------------------------------------------------
      1         12           0        4.705125   -0.326172    0.298429
      2          6           0        4.735800    2.798995   -1.446450
      3          6           0        5.326932    1.432744    3.155461
      4          6           0        5.133209   -3.096396    1.781407
      5          6           0        5.217263   -1.880679   -2.778401
      6          7           0        4.974480    1.838022    0.678372
      7          6           0        4.902885    2.936636   -0.066674
      8          6           0        4.946410    4.252258    0.766763
      9          6           0        5.691341    3.703237    2.065089
     10          6           0        5.278660    2.244160    1.983154
     11          6           0        7.211669    3.789348    1.977385
     12          6           0        3.515055    4.786090    1.110241
     13          6           0        3.462320    6.224276    1.633874
     14          1           0        2.331985    7.062954    1.264671
     15          7           0        4.679461   -0.765808    2.224282
     16          6           0        4.941332    0.078114    3.251173
     17          6           0        4.792625   -0.723013    4.485175
     18          6           0        4.609242   -2.145717    4.084704
     19          6           0        4.829000   -2.062158    2.663401
     20          6           0        4.783429   -0.124816    5.858429
     21          6           0        4.297417   -3.385756    4.861364
     22          8           0        4.410762   -4.553309    4.352888
     23          6           0        3.936201   -3.199944    6.278417
     24          7           0        5.334796   -2.205380   -0.357108
     25          6           0        5.376546   -3.249268    0.478079
     26          6           0        5.580247   -4.535817   -0.265719
     27          6           0        5.425958   -4.180111   -1.814725
     28          6           0        5.230286   -2.649210   -1.686954
     29          6           0        6.926174   -5.236595   -0.034626
     30          6           0        4.382430   -4.992219   -2.622159
     31          6           0        2.988048   -4.656397   -2.142556
     32          7           0        4.762760    0.295408   -1.780359
     33          6           0        5.013999   -0.515888   -2.896313
     34          6           0        5.057878    0.370562   -4.073746
     35          6           0        4.844203    1.646307   -3.555421
     36          6           0        4.703558    1.565239   -2.140522
     37          6           0        5.331152   -0.032529   -5.410636
     38          6           0        4.726530    3.062019   -3.864889
     39          8           0        4.668533    3.720531   -4.904356
     40          6           0        4.773162    3.879086   -2.498853
     41          6           0        3.645059    4.874061   -2.525637
     42          8           0        2.456524    4.494503   -2.499470
     43          8           0        4.136575    6.108548   -2.338562
     44          6           0        3.065749    7.140679   -2.324776
     45          1           0        5.752806    1.850897    4.069638
     46          1           0        5.179745   -4.086701    2.239193
     47          1           0        5.288509   -2.304603   -3.781729
     48          1           0        5.527938    5.056727    0.316120
     49          1           0        5.304659    4.155714    2.978031
     50          1           0        7.536689    4.095025    0.982978
     51          1           0        7.573592    2.786424    2.204644
     52          1           0        7.608842    4.435809    2.760405
     53          1           0        3.133953    4.256628    1.983449
     54          1           0        2.851172    4.690947    0.250279
     55          1           0        4.401491    6.748413    1.454580
     56          1           0        3.374617    6.189363    2.719825
     57          1           0        5.104754    0.915900    5.844088
     58          1           0        5.552570   -0.638654    6.434713
     59          1           0        3.817243   -0.240209    6.349857
     60          1           0        4.755336   -2.700356    6.796083
     61          1           0        3.659919   -4.186030    6.650104
     62          1           0        3.079780   -2.527791    6.339280
     63          1           0        4.824346   -5.270324    0.009126
     64          1           0        6.357425   -4.325179   -2.362447
     65          1           0        6.830294   -6.259140    0.331316
     66          1           0        7.509237   -4.627352    0.655411
     67          1           0        7.581557   -5.265941   -0.904700
     68          1           0        4.527724   -6.060210   -2.463318
     69          1           0        4.429754   -4.807074   -3.695347
     70          1           0        2.865596   -5.305657   -1.276357
     71          1           0        2.253644   -4.891529   -2.913643
     72          1           0        2.925675   -3.626860   -1.789501
     73          1           0        4.614770    0.494595   -6.040641
     74          1           0        5.239900   -1.112423   -5.525110
     75          1           0        6.358834    0.313593   -5.519835
     76          1           0        5.747205    4.365569   -2.457668
     77          1           0        3.320845    7.878044   -3.085994
     78          1           0        2.981304    7.485838   -1.294175
     79          1           0        2.082459    6.819766   -2.670458
     80         12           0       -4.253069   -1.024245   -0.065270
     81          6           0       -6.922421    1.363872    0.159481
     82          6           0       -2.095601    1.616936   -0.129080
     83          6           0       -1.919733   -3.073731   -0.715293
     84          6           0       -6.616026   -3.358160   -1.121186
     85          7           0       -4.586585    1.160935    0.012212
     86          6           0       -5.639750    1.950542    0.159505
     87          6           0       -5.294807    3.445384    0.396199
     88          6           0       -3.839712    3.466836   -0.282864
     89          6           0       -3.460360    1.999450   -0.094367
     90          6           0       -3.875260    3.763379   -1.772882
     91          6           0       -5.222438    3.807924    1.921107
     92          6           0       -5.196139    5.307486    2.225061
     93          1           0       -5.879167    5.786842    3.423455
     94          7           0       -2.285872   -0.827844    0.108242
     95          6           0       -1.577435    0.320540    0.083548
     96          6           0       -0.167553   -0.073273    0.229536
     97          6           0       -0.087486   -1.558381    0.176914
     98          6           0       -1.455363   -1.883838   -0.173936
     99          6           0        0.932481    0.917449    0.478174
    100          6           0        1.037412   -2.524988    0.392494
    101          8           0        0.937037   -3.759430    0.062473
    102          6           0        2.292260   -1.964624    0.914826
    103          7           0       -4.225362   -2.875736   -1.010547
    104          6           0       -3.085731   -3.581578   -1.115109
    105          6           0       -3.358348   -4.991776   -1.581395
    106          6           0       -4.948129   -5.159495   -1.536040
    107          6           0       -5.342031   -3.725719   -1.118311
    108          6           0       -2.849830   -5.339938   -2.980171
    109          6           0       -5.506904   -6.350023   -0.709549
    110          6           0       -5.233918   -6.130588    0.761071
    111          7           0       -6.404959   -1.085008   -0.248945
    112          6           0       -7.189544   -2.152681   -0.737400
    113          6           0       -8.588957   -1.681164   -0.778895
    114          6           0       -8.517731   -0.353828   -0.329903
    115          6           0       -7.166480   -0.015160   -0.048970
    116          6           0       -9.707122   -2.433687   -1.236651
    117          6           0       -9.277016    0.841181   -0.039831
    118          8           0      -10.474161    1.123086   -0.006789
    119          6           0       -8.262095    2.046365    0.169592
    120          6           0       -8.664762    2.780966    1.418886
    121          8           0       -8.590104    2.226870    2.529752
    122          8           0       -8.862990    4.078392    1.122628
    123          6           0       -9.253494    4.850706    2.332112
    124          1           0       -1.351537    2.371837   -0.384790
    125          1           0       -1.167534   -3.853674   -0.854489
    126          1           0       -7.424719   -4.057026   -1.345433
    127          1           0       -5.949663    4.147659   -0.105549
    128          1           0       -3.157218    4.110632    0.265847
    129          1           0       -4.885342    3.794120   -2.153564
    130          1           0       -3.317126    2.965487   -2.245007
    131          1           0       -3.324888    4.683956   -1.987254
    132          1           0       -4.237813    3.519833    2.311306
    133          1           0       -6.024319    3.343688    2.461566
    134          1           0       -5.480680    5.909732    1.353694
    135          1           0       -4.163859    5.602167    2.428987
    136          1           0        0.594909    1.946129    0.301393
    137          1           0        1.695996    0.746592   -0.288454
    138          1           0        1.388909    0.801573    1.463529
    139          1           0        2.655804   -1.197646    0.235095
    140          1           0        2.946188   -2.821911    1.086056
    141          1           0        2.082972   -1.466714    1.868186
    142          1           0       -2.909482   -5.714355   -0.910945
    143          1           0       -5.369524   -5.321566   -2.539034
    144          1           0       -2.164440   -6.208369   -2.991805
    145          1           0       -2.363798   -4.466359   -3.393900
    146          1           0       -3.625728   -5.543026   -3.716337
    147          1           0       -4.995653   -7.275595   -0.985397
    148          1           0       -6.569705   -6.514178   -0.852796
    149          1           0       -4.205390   -6.485314    0.876750
    150          1           0       -5.922991   -6.712703    1.369630
    151          1           0       -5.244037   -5.062650    1.008166
    152          1           0      -10.508988   -2.260143   -0.531397
    153          1           0       -9.468424   -3.492240   -1.315834
    154          1           0       -9.863895   -1.973875   -2.216077
    155          1           0       -8.320312    2.681208   -0.715374
    156          1           0      -10.200848    5.347799    2.101675
    157          1           0       -8.387971    5.499139    2.564852
    158          1           0       -9.519493    4.290009    3.220547
 ---------------------------------------------------------------------

 SCF Done:  E(RCAM-B3LYP) =  -4069.80589862     A.U. after   19 cycles

 Excitation energies and oscillator strengths:

 Excited State   1:      Singlet-A      1.6581 eV  747.76 nm  f=0.3999  <S**2>=0.000
     309 -> 315        0.11536
     310 -> 316       -0.12006
     311 -> 313       -0.46010
     312 -> 314        0.50973
 This state for optimization and/or second-order correction.
 Total Energy, E(TD-HF/TD-DFT) =  -4069.74496570
 Copying the excited state density for this state as the 1-particle RhoCI density.

 Excited State   2:      Singlet-A      1.6643 eV  744.95 nm  f=0.4105  <S**2>=0.000
     309 -> 315       -0.13066
     310 -> 316       -0.10996
     311 -> 313        0.50347
     312 -> 314        0.45456

 Excited State   3:      Singlet-A      2.1647 eV  572.77 nm  f=0.0046  <S**2>=0.000
     309 -> 313        0.52228
     310 -> 314       -0.38008
     311 -> 315        0.21479
     312 -> 316       -0.15052

 Excited State   4:      Singlet-A      2.1849 eV  567.45 nm  f=0.1659  <S**2>=0.000
     309 -> 313        0.37393
     310 -> 314        0.51767
     311 -> 315        0.16698
     312 -> 316        0.21269

 Excited State   5:      Singlet-A      2.2799 eV  543.82 nm  f=0.0000  <S**2>=0.000
     312 -> 313        0.70097

 The electronic state is 1-A.
 Alpha  occ. eigenvalues --  -46.87968 -46.87564 -19.26759 -19.26293 -19.19546
 Alpha  occ. eigenvalues --  -19.19132 -19.19104 -19.18926 -19.18483 -19.17976
 Alpha  occ. eigenvalues --  -14.42693 -14.42384 -14.41443 -14.41252 -14.39402
 Alpha  occ. eigenvalues --  -14.39280 -14.38850 -14.38509 -10.39574 -10.39031
 Alpha  occ. eigenvalues --  -10.35656 -10.35555 -10.34707 -10.34152 -10.32156
 Alpha  occ. eigenvalues --  -10.31715 -10.31664 -10.31234 -10.31136 -10.30910
 Alpha  occ. eigenvalues --  -10.30777 -10.30564 -10.30342 -10.30299 -10.30234
 Alpha  occ. eigenvalues --  -10.30060 -10.29909 -10.29819 -10.29792 -10.29516
 Alpha  occ. eigenvalues --  -10.29383 -10.29354 -10.29127 -10.29033 -10.28682
 Alpha  occ. eigenvalues --  -10.28599 -10.28567 -10.28423 -10.28310 -10.28068
 Alpha  occ. eigenvalues --  -10.27948 -10.27910 -10.27909 -10.27778 -10.27676
 Alpha  occ. eigenvalues --  -10.27647 -10.27506 -10.27464 -10.27456 -10.27422
 Alpha  occ. eigenvalues --  -10.27400 -10.27323 -10.27261 -10.27245 -10.27210
 Alpha  occ. eigenvalues --  -10.27188 -10.26976 -10.26970 -10.26605 -10.26497
 Alpha  occ. eigenvalues --  -10.26481 -10.26137 -10.26086 -10.26020 -10.25836
 Alpha  occ. eigenvalues --  -10.25776 -10.25656 -10.25433 -10.25364 -10.25255
 Alpha  occ. eigenvalues --  -10.25128 -10.24866 -10.24790 -10.24678 -10.24606
 Alpha  occ. eigenvalues --  -10.23277  -3.16695  -3.16313  -1.91596  -1.91195
 Alpha  occ. eigenvalues --   -1.91159  -1.91001  -1.90784  -1.90622  -1.17112
 Alpha  occ. eigenvalues --   -1.16587  -1.08950  -1.08585  -1.07327  -1.07314
 Alpha  occ. eigenvalues --   -1.07150  -1.06888  -1.04838  -1.04381  -1.03903
 Alpha  occ. eigenvalues --   -1.03574  -1.03428  -1.02952  -1.02580  -1.02019
 Alpha  occ. eigenvalues --   -0.92256  -0.91893  -0.89581  -0.89444  -0.89414
 Alpha  occ. eigenvalues --   -0.88974  -0.88152  -0.88146  -0.88084  -0.87865
 Alpha  occ. eigenvalues --   -0.87711  -0.87554  -0.87446  -0.87219  -0.85288
 Alpha  occ. eigenvalues --   -0.84897  -0.83831  -0.83787  -0.83306  -0.82981
 Alpha  occ. eigenvalues --   -0.82741  -0.82577  -0.81874  -0.81528  -0.80822
 Alpha  occ. eigenvalues --   -0.80410  -0.78981  -0.78606  -0.77421  -0.77060
 Alpha  occ. eigenvalues --   -0.77045  -0.76796  -0.76155  -0.75699  -0.74797
 Alpha  occ. eigenvalues --   -0.74723  -0.72944  -0.72596  -0.71842  -0.71465
 Alpha  occ. eigenvalues --   -0.69689  -0.69473  -0.69082  -0.68775  -0.67861
 Alpha  occ. eigenvalues --   -0.67623  -0.67510  -0.67228  -0.65593  -0.65159
 Alpha  occ. eigenvalues --   -0.65090  -0.64791  -0.64680  -0.64577  -0.64130
 Alpha  occ. eigenvalues --   -0.64065  -0.62549  -0.62202  -0.60888  -0.60302
 Alpha  occ. eigenvalues --   -0.60048  -0.59662  -0.59154  -0.58898  -0.58674
 Alpha  occ. eigenvalues --   -0.58343  -0.57931  -0.57493  -0.57399  -0.57297
 Alpha  occ. eigenvalues --   -0.56553  -0.56303  -0.56224  -0.55904  -0.55735
 Alpha  occ. eigenvalues --   -0.55592  -0.55431  -0.55183  -0.54553  -0.54441
 Alpha  occ. eigenvalues --   -0.54218  -0.53858  -0.53626  -0.53460  -0.53387
 Alpha  occ. eigenvalues --   -0.53274  -0.53152  -0.53055  -0.52816  -0.52783
 Alpha  occ. eigenvalues --   -0.52363  -0.52148  -0.51925  -0.51885  -0.51819
 Alpha  occ. eigenvalues --   -0.51677  -0.51304  -0.51126  -0.50927  -0.50640
 Alpha  occ. eigenvalues --   -0.50355  -0.50130  -0.49857  -0.49770  -0.49652
 Alpha  occ. eigenvalues --   -0.49493  -0.49434  -0.49228  -0.49135  -0.49002
 Alpha  occ. eigenvalues --   -0.48877  -0.48714  -0.48533  -0.48447  -0.48332
 Alpha  occ. eigenvalues --   -0.48112  -0.47869  -0.47589  -0.47269  -0.47052
 Alpha  occ. eigenvalues --   -0.46932  -0.46788  -0.46595  -0.46515  -0.46476
 Alpha  occ. eigenvalues --   -0.46203  -0.46127  -0.46049  -0.45976  -0.45738
 Alpha  occ. eigenvalues --   -0.45249  -0.45091  -0.44879  -0.44656  -0.44433
 Alpha  occ. eigenvalues --   -0.44400  -0.44341  -0.44222  -0.44087  -0.43991
 Alpha  occ. eigenvalues --   -0.43972  -0.43819  -0.43736  -0.43485  -0.43456
 Alpha  occ. eigenvalues --   -0.43280  -0.43152  -0.43036  -0.42862  -0.42805
 Alpha  occ. eigenvalues --   -0.42529  -0.42496  -0.41963  -0.41900  -0.41858
 Alpha  occ. eigenvalues --   -0.41792  -0.41484  -0.41307  -0.41303  -0.41044
 Alpha  occ. eigenvalues --   -0.40945  -0.40933  -0.40841  -0.40595  -0.40568
 Alpha  occ. eigenvalues --   -0.40398  -0.40234  -0.39940  -0.39361  -0.38706
 Alpha  occ. eigenvalues --   -0.38341  -0.38270  -0.38058  -0.37567  -0.37531
 Alpha  occ. eigenvalues --   -0.37185  -0.37164  -0.37084  -0.37033  -0.36710
 Alpha  occ. eigenvalues --   -0.36220  -0.36132  -0.34487  -0.34226  -0.34153
 Alpha  occ. eigenvalues --   -0.33797  -0.33397  -0.33074  -0.31611  -0.31393
 Alpha  occ. eigenvalues --   -0.31185  -0.30879  -0.30341  -0.29880  -0.29646
 Alpha  occ. eigenvalues --   -0.29536  -0.29260  -0.29129  -0.24283  -0.23926
 Alpha  occ. eigenvalues --   -0.21340  -0.21015
 Alpha virt. eigenvalues --   -0.09031  -0.08721  -0.01995  -0.01687  -0.00293
 Alpha virt. eigenvalues --   -0.00200   0.01948   0.02199   0.03293   0.04385
 Alpha virt. eigenvalues --    0.04570   0.04851   0.04929   0.05223   0.05956

 Mulliken charges:
               1
     1  Mg   0.634898
     2  C   -0.003024
     3  C   -0.092995
     4  C   -0.029160
     5  C   -0.058751
     6  N   -0.250083
     7  C   -0.055861
     8  C   -0.012382
     9  C   -0.085658
    10  C    0.044685
    11  C    0.104685
    12  C    0.049907
    13  C   -0.071314
    14  H    0.033827
    15  N   -0.416742
    16  C    0.166029
    17  C   -0.179036
    18  C   -0.006351
    19  C    0.118766
    20  C    0.111018
    21  C    0.010749
    22  O   -0.246371
    23  C    0.063059
    24  N   -0.318837
    25  C    0.024855
    26  C   -0.021632
    27  C   -0.024753
    28  C    0.081050
    29  C    0.078268
    30  C    0.037127
    31  C    0.003127
    32  N   -0.303017
    33  C    0.079968
    34  C   -0.168804
    35  C    0.008313
    36  C    0.077706
    37  C    0.127230
    38  C    0.045892
    39  O   -0.187802
    40  C   -0.006716
    41  C    0.213595
    42  O   -0.262072
    43  O   -0.303578
    44  C    0.157629
    45  H   -0.018464
    46  H   -0.013672
    47  H   -0.040797
    48  H    0.001307
    49  H   -0.004626
    50  H    0.025710
    51  H    0.018059
    52  H    0.017064
    53  H    0.010587
    54  H    0.041566
    55  H    0.019837
    56  H    0.019030
    57  H    0.005518
    58  H    0.027335
    59  H    0.038865
    60  H    0.037465
    61  H    0.037180
    62  H    0.030375
    63  H    0.020865
    64  H    0.007612
    65  H    0.023539
    66  H    0.010800
    67  H    0.004202
    68  H    0.003094
    69  H   -0.001787
    70  H    0.019242
    71  H    0.010619
    72  H    0.025305
    73  H    0.047439
    74  H    0.011235
    75  H    0.046451
    76  H    0.036073
    77  H    0.044538
    78  H    0.046465
    79  H    0.051597
    80  Mg   0.838564
    81  C   -0.016698
    82  C   -0.090390
    83  C   -0.046073
    84  C   -0.065243
    85  N   -0.254399
    86  C   -0.049494
    87  C   -0.015271
    88  C   -0.089696
    89  C    0.043820
    90  C    0.113946
    91  C    0.062661
    92  C   -0.077286
    93  H    0.033487
    94  N   -0.423895
    95  C    0.162799
    96  C   -0.178680
    97  C    0.004827
    98  C    0.152850
    99  C    0.076368
   100  C    0.036865
   101  O   -0.243743
   102  C    0.039274
   103  N   -0.350321
   104  C    0.037269
   105  C   -0.019974
   106  C   -0.034867
   107  C    0.089353
   108  C    0.073394
   109  C    0.034807
   110  C   -0.007639
   111  N   -0.324058
   112  C    0.078635
   113  C   -0.163396
   114  C    0.002407
   115  C    0.096096
   116  C    0.131506
   117  C    0.042239
   118  O   -0.188138
   119  C    0.001002
   120  C    0.211257
   121  O   -0.251397
   122  O   -0.305410
   123  C    0.152191
   124  H   -0.008052
   125  H   -0.015659
   126  H   -0.040779
   127  H   -0.000688
   128  H   -0.004016
   129  H    0.020949
   130  H    0.018272
   131  H    0.019033
   132  H    0.013310
   133  H    0.037046
   134  H    0.021169
   135  H    0.019084
   136  H    0.018006
   137  H    0.055540
   138  H    0.055049
   139  H    0.075212
   140  H    0.076454
   141  H    0.073406
   142  H    0.014138
   143  H    0.012448
   144  H    0.023868
   145  H    0.012381
   146  H    0.005847
   147  H    0.005941
   148  H    0.003574
   149  H    0.011048
   150  H    0.017728
   151  H    0.030139
   152  H    0.045702
   153  H    0.008316
   154  H    0.047040
   155  H    0.035463
   156  H    0.043772
   157  H    0.049400
   158  H    0.053236
 Sum of Mulliken charges =  -0.00000

 Dipole moment (field-independent basis, Debye):
    X=              4.9885    Y=              2.5818    Z=              2.8805  Tot=              6.3125
 Quadrupole moment (field-independent basis, Debye-Ang):
   XX=           -553.4468   YY=           -473.3599   ZZ=           -509.1044
   XY=             15.7737   XZ=             28.7419   YZ=             44.2998

 Normal termination of Gaussian 16 at Fri Sep 10 08:12:23 2021.
