 Gaussian 16, Revision A.03,
 Gaussian 16:  ES64L-G16RevA.03 25-Dec-2016

 -----------------------------------
 #p cam-b3lyp/Def2SVP td=(nstates=5)
 -----------------------------------

 --------------------------------
 TDDFT excited states in gaussian
 --------------------------------
 Symbolic Z-matrix:
 Charge =  0 Multiplicity = 1

                         Standard orientation:
 ---------------------------------------------------------------------
 Center     Atomic      Atomic             Coordinates (Angstroms)
 Number     Number       Type             X           Y           Z
 ---------------------------------------------------------------------
      1         12           0        4.549704   -0.517767    0.990846
      2          6           0        5.094790    2.447698   -0.938172
      3          6           0        4.772464    1.434793    3.780281
      4          6           0        4.524887   -3.175492    2.720733
      5          6           0        5.492889   -2.344292   -1.823381
      6          7           0        4.890457    1.653236    1.257821
      7          6           0        5.024416    2.689213    0.435642
      8          6           0        5.007144    4.064728    1.167102
      9          6           0        5.473165    3.585908    2.614705
     10          6           0        4.985737    2.148640    2.563741
     11          6           0        6.987409    3.584827    2.797909
     12          6           0        3.576172    4.699147    1.206639
     13          6           0        3.527173    6.176249    1.608039
     14          1           0        2.537820    7.039800    0.981296
     15          7           0        4.155414   -0.795867    2.906582
     16          6           0        4.287188    0.114642    3.901015
     17          6           0        3.870259   -0.573588    5.141656
     18          6           0        3.666659   -2.012810    4.817188
     19          6           0        4.138914   -2.057835    3.456922
     20          6           0        3.658413    0.134986    6.444266
     21          6           0        3.141212   -3.166874    5.611024
     22          8           0        3.264977   -4.376556    5.216150
     23          6           0        2.548620   -2.846702    6.922270
     24          7           0        5.159375   -2.474824    0.596048
     25          6           0        4.983819   -3.447373    1.497332
     26          6           0        5.229983   -4.799535    0.896500
     27          6           0        5.375464   -4.564610   -0.676204
     28          6           0        5.262113   -3.020250   -0.695599
     29          6           0        6.464573   -5.548465    1.416983
     30          6           0        4.439418   -5.384522   -1.599231
     31          6           0        3.007614   -4.937932   -1.405342
     32          7           0        5.014439   -0.072817   -1.082096
     33          6           0        5.404454   -0.985025   -2.073276
     34          6           0        5.714098   -0.201747   -3.283509
     35          6           0        5.497226    1.121674   -2.904871
     36          6           0        5.103960    1.164511   -1.536734
     37          6           0        6.191785   -0.726981   -4.516545
     38          6           0        5.530036    2.511413   -3.330789
     39          8           0        5.700183    3.084497   -4.407877
     40          6           0        5.388782    3.434303   -2.040770
     41          6           0        4.351522    4.481404   -2.342399
     42          8           0        3.154552    4.168012   -2.504918
     43          8           0        4.882939    5.699655   -2.157996
     44          6           0        3.897226    6.784067   -2.412109
     45          1           0        5.057006    1.903717    4.724255
     46          1           0        4.424202   -4.125945    3.248878
     47          1           0        5.711908   -2.852301   -2.764344
     48          1           0        5.711063    4.797938    0.772989
     49          1           0        4.962213    4.131425    3.407839
     50          1           0        7.502387    3.790401    1.859581
     51          1           0        7.236315    2.586380    3.157966
     52          1           0        7.282035    4.271708    3.591739
     53          1           0        3.012697    4.263837    2.031904
     54          1           0        3.069708    4.568608    0.249675
     55          1           0        4.515858    6.634014    1.564873
     56          1           0        3.247026    6.235245    2.659817
     57          1           0        4.045417    1.152760    6.414111
     58          1           0        4.278003   -0.369360    7.185517
     59          1           0        2.615162    0.111063    6.759522
     60          1           0        3.294759   -2.349868    7.542739
     61          1           0        2.146385   -3.783127    7.307192
     62          1           0        1.741322   -2.127916    6.778865
     63          1           0        4.390484   -5.468420    1.081600
     64          1           0        6.377311   -4.802713   -1.034372
     65          1           0        6.238105   -6.531091    1.831547
     66          1           0        6.955705   -4.915989    2.155937
     67          1           0        7.259856   -5.683408    0.684362
     68          1           0        4.483348   -6.442004   -1.340876
     69          1           0        4.687605   -5.290838   -2.656528
     70          1           0        2.691456   -5.506585   -0.531551
     71          1           0        2.406934   -5.196807   -2.277912
     72          1           0        2.952204   -3.881036   -1.143832
     73          1           0        5.634372   -0.216583   -5.301882
     74          1           0        6.050874   -1.806366   -4.568271
     75          1           0        7.243232   -0.445264   -4.462218
     76          1           0        6.370298    3.870869   -1.858671
     77          1           0        4.330951    7.442083   -3.165192
     78          1           0        3.655216    7.216615   -1.441162
     79          1           0        2.971347    6.487771   -2.906372
     80         12           0       -4.224560   -0.772516   -0.942341
     81          6           0       -6.584295    1.457047    0.587291
     82          6           0       -2.899317    1.948633   -2.515119
     83          6           0       -2.428340   -2.756443   -2.646757
     84          6           0       -6.403450   -3.382089   -0.175341
     85          7           0       -4.759158    1.373095   -0.889501
     86          6           0       -5.634739    2.111747   -0.224588
     87          6           0       -5.433201    3.643112   -0.379173
     88          6           0       -4.655320    3.642675   -1.784079
     89          6           0       -4.032755    2.249566   -1.718326
     90          6           0       -5.583718    3.694687   -2.986048
     91          6           0       -4.548756    4.248291    0.766923
     92          6           0       -4.565788    5.776007    0.853802
     93          1           0       -4.494186    6.398997    2.172598
     94          7           0       -2.568431   -0.433762   -1.982068
     95          6           0       -2.175380    0.736170   -2.528009
     96          6           0       -0.900005    0.455664   -3.205424
     97          6           0       -0.654714   -1.011300   -3.154849
     98          6           0       -1.911931   -1.469760   -2.598691
     99          6           0       -0.011857    1.537305   -3.748272
    100          6           0        0.512653   -1.862100   -3.554337
    101          8           0        0.417338   -3.137177   -3.643431
    102          6           0        1.744171   -1.151549   -3.928446
    103          7           0       -4.483154   -2.746249   -1.542225
    104          6           0       -3.525256   -3.390382   -2.231767
    105          6           0       -3.812718   -4.870696   -2.311959
    106          6           0       -5.043014   -5.123674   -1.322040
    107          6           0       -5.323604   -3.667699   -0.889852
    108          6           0       -4.158833   -5.406852   -3.700895
    109          6           0       -4.848062   -6.198087   -0.217364
    110          6           0       -3.812969   -5.730604    0.780341
    111          7           0       -6.054555   -0.990282    0.185381
    112          6           0       -6.815757   -2.167217    0.357087
    113          6           0       -8.033610   -1.792840    1.104820
    114          6           0       -7.906492   -0.408960    1.297743
    115          6           0       -6.704773    0.050340    0.694086
    116          6           0       -9.090568   -2.674264    1.468190
    117          6           0       -8.520856    0.769522    1.865586
    118          8           0       -9.505970    0.981070    2.571646
    119          6           0       -7.754321    2.051131    1.321260
    120          6           0       -7.463940    2.950514    2.491441
    121          8           0       -6.685672    2.586479    3.390536
    122          8           0       -7.978513    4.169742    2.248449
    123          6           0       -7.706616    5.100657    3.375964
    124          1           0       -2.554617    2.696070   -3.230245
    125          1           0       -1.791854   -3.502263   -3.128546
    126          1           0       -7.084423   -4.154851    0.187706
    127          1           0       -6.349184    4.215804   -0.461499
    128          1           0       -3.881394    4.405467   -1.807286
    129          1           0       -6.620623    3.603822   -2.698443
    130          1           0       -5.292579    2.866402   -3.618679
    131          1           0       -5.394753    4.600405   -3.569391
    132          1           0       -3.490304    4.085573    0.526237
    133          1           0       -4.817441    3.829297    1.717126
    134          1           0       -5.382074    6.213215    0.266038
    135          1           0       -3.659008    6.160607    0.380678
    136          1           0       -0.531685    2.502498   -3.787926
    137          1           0        0.186028    1.292079   -4.797363
    138          1           0        0.939321    1.607822   -3.216335
    139          1           0        1.536672   -0.482683   -4.760322
    140          1           0        2.491198   -1.929845   -4.096018
    141          1           0        2.053591   -0.521114   -3.087356
    142          1           0       -2.962643   -5.448751   -1.970908
    143          1           0       -5.936637   -5.468781   -1.862581
    144          1           0       -3.490141   -6.223482   -4.032626
    145          1           0       -4.129731   -4.583151   -4.401749
    146          1           0       -5.178506   -5.770930   -3.814474
    147          1           0       -4.463552   -7.123620   -0.652890
    148          1           0       -5.763047   -6.446207    0.310131
    149          1           0       -2.867682   -6.000208    0.299871
    150          1           0       -3.934858   -6.248126    1.729741
    151          1           0       -3.830702   -4.639443    0.883796
    152          1           0       -9.355052   -2.438477    2.490423
    153          1           0       -8.793452   -3.715691    1.363696
    154          1           0       -9.845910   -2.387028    0.731830
    155          1           0       -8.400801    2.531808    0.586017
    156          1           0       -8.672814    5.497058    3.703098
    157          1           0       -6.967828    5.828463    2.990964
    158          1           0       -7.329757    4.674231    4.298235
 ---------------------------------------------------------------------

 SCF Done:  E(RCAM-B3LYP) =  -4069.81695599     A.U. after   17 cycles

 Excitation energies and oscillator strengths:

 Excited State   1:      Singlet-A      1.6389 eV  756.52 nm  f=0.1482  <S**2>=0.000
     309 -> 315        0.11711
     310 -> 316        0.11683
     311 -> 313       -0.48396
     312 -> 314        0.48804
 This state for optimization and/or second-order correction.
 Total Energy, E(TD-HF/TD-DFT) =  -4069.75672859
 Copying the excited state density for this state as the 1-particle RhoCI density.

 Excited State   2:      Singlet-A      1.7055 eV  726.97 nm  f=0.5926  <S**2>=0.000
     309 -> 315       -0.13017
     310 -> 316        0.12695
     311 -> 313        0.48570
     312 -> 314        0.48195

 Excited State   3:      Singlet-A      2.1864 eV  567.06 nm  f=0.0038  <S**2>=0.000
     309 -> 313       -0.41096
     310 -> 314        0.49589
     311 -> 315       -0.17209
     312 -> 316       -0.20943

 Excited State   4:      Singlet-A      2.1993 eV  563.74 nm  f=0.1692  <S**2>=0.000
     309 -> 313        0.49249
     310 -> 314        0.40646
     311 -> 315        0.21770
     312 -> 316       -0.17902

 Excited State   5:      Singlet-A      2.3120 eV  536.26 nm  f=0.0000  <S**2>=0.000
     312 -> 313        0.70622

 The electronic state is 1-A.
 Alpha  occ. eigenvalues --  -46.87964 -46.87349 -19.26814 -19.26210 -19.19694
 Alpha  occ. eigenvalues --  -19.19003 -19.18891 -19.18478 -19.18428 -19.17769
 Alpha  occ. eigenvalues --  -14.42622 -14.42191 -14.41560 -14.41045 -14.39555
 Alpha  occ. eigenvalues --  -14.39026 -14.38841 -14.38287 -10.39659 -10.38924
 Alpha  occ. eigenvalues --  -10.35516 -10.35018 -10.34711 -10.33956 -10.32173
 Alpha  occ. eigenvalues --  -10.31666 -10.31622 -10.31095 -10.31008 -10.30778
 Alpha  occ. eigenvalues --  -10.30676 -10.30676 -10.30239 -10.30111 -10.30039
 Alpha  occ. eigenvalues --  -10.30017 -10.29811 -10.29794 -10.29643 -10.29407
 Alpha  occ. eigenvalues --  -10.29059 -10.29015 -10.28981 -10.28823 -10.28598
 Alpha  occ. eigenvalues --  -10.28523 -10.28461 -10.28319 -10.28056 -10.27999
 Alpha  occ. eigenvalues --  -10.27887 -10.27856 -10.27745 -10.27641 -10.27615
 Alpha  occ. eigenvalues --  -10.27559 -10.27507 -10.27359 -10.27323 -10.27314
 Alpha  occ. eigenvalues --  -10.27267 -10.27181 -10.27153 -10.27054 -10.26989
 Alpha  occ. eigenvalues --  -10.26806 -10.26492 -10.26411 -10.26409 -10.26320
 Alpha  occ. eigenvalues --  -10.26113 -10.26035 -10.25915 -10.25757 -10.25699
 Alpha  occ. eigenvalues --  -10.25697 -10.25610 -10.25589 -10.25383 -10.25211
 Alpha  occ. eigenvalues --  -10.25083 -10.24918 -10.24538 -10.24504 -10.24393
 Alpha  occ. eigenvalues --  -10.23785  -3.16708  -3.16100  -1.91590  -1.91175
 Alpha  occ. eigenvalues --   -1.91019  -1.90983  -1.90571  -1.90407  -1.17171
 Alpha  occ. eigenvalues --   -1.16499  -1.08966  -1.08396  -1.07284  -1.07248
 Alpha  occ. eigenvalues --   -1.06785  -1.06646  -1.04768  -1.04182  -1.03888
 Alpha  occ. eigenvalues --   -1.03411  -1.03352  -1.02722  -1.02578  -1.01791
 Alpha  occ. eigenvalues --   -0.92217  -0.91688  -0.89520  -0.89371  -0.89208
 Alpha  occ. eigenvalues --   -0.88885  -0.88217  -0.88075  -0.87956  -0.87828
 Alpha  occ. eigenvalues --   -0.87487  -0.87389  -0.87363  -0.86537  -0.85176
 Alpha  occ. eigenvalues --   -0.84720  -0.83865  -0.83628  -0.82947  -0.82785
 Alpha  occ. eigenvalues --   -0.82518  -0.82192  -0.81868  -0.81360  -0.80787
 Alpha  occ. eigenvalues --   -0.80142  -0.78937  -0.78150  -0.77335  -0.77082
 Alpha  occ. eigenvalues --   -0.76789  -0.76658  -0.76122  -0.75512  -0.74888
 Alpha  occ. eigenvalues --   -0.74516  -0.72917  -0.72363  -0.71826  -0.71291
 Alpha  occ. eigenvalues --   -0.69638  -0.69498  -0.69039  -0.68522  -0.67821
 Alpha  occ. eigenvalues --   -0.67408  -0.67294  -0.66867  -0.65503  -0.65076
 Alpha  occ. eigenvalues --   -0.65001  -0.64761  -0.64484  -0.64385  -0.64195
 Alpha  occ. eigenvalues --   -0.63931  -0.62584  -0.62053  -0.60532  -0.60006
 Alpha  occ. eigenvalues --   -0.59876  -0.59502  -0.59149  -0.58698  -0.58680
 Alpha  occ. eigenvalues --   -0.58117  -0.57944  -0.57385  -0.57310  -0.56896
 Alpha  occ. eigenvalues --   -0.56537  -0.56286  -0.55857  -0.55690  -0.55615
 Alpha  occ. eigenvalues --   -0.55460  -0.55083  -0.54981  -0.54595  -0.54263
 Alpha  occ. eigenvalues --   -0.54112  -0.53644  -0.53419  -0.53410  -0.53163
 Alpha  occ. eigenvalues --   -0.52924  -0.52880  -0.52797  -0.52626  -0.52282
 Alpha  occ. eigenvalues --   -0.52153  -0.52049  -0.51991  -0.51816  -0.51605
 Alpha  occ. eigenvalues --   -0.51330  -0.51281  -0.50916  -0.50612  -0.50093
 Alpha  occ. eigenvalues --   -0.49924  -0.49843  -0.49685  -0.49558  -0.49460
 Alpha  occ. eigenvalues --   -0.49371  -0.49287  -0.49104  -0.48853  -0.48842
 Alpha  occ. eigenvalues --   -0.48777  -0.48607  -0.48474  -0.48270  -0.48125
 Alpha  occ. eigenvalues --   -0.47910  -0.47804  -0.47427  -0.47208  -0.46903
 Alpha  occ. eigenvalues --   -0.46752  -0.46676  -0.46533  -0.46410  -0.46268
 Alpha  occ. eigenvalues --   -0.46234  -0.46087  -0.45895  -0.45768  -0.45583
 Alpha  occ. eigenvalues --   -0.45173  -0.44934  -0.44818  -0.44598  -0.44349
 Alpha  occ. eigenvalues --   -0.44245  -0.44194  -0.44178  -0.44045  -0.43842
 Alpha  occ. eigenvalues --   -0.43757  -0.43740  -0.43469  -0.43455  -0.43325
 Alpha  occ. eigenvalues --   -0.43192  -0.43105  -0.43084  -0.42712  -0.42597
 Alpha  occ. eigenvalues --   -0.42567  -0.42218  -0.41962  -0.41834  -0.41706
 Alpha  occ. eigenvalues --   -0.41574  -0.41380  -0.41296  -0.41181  -0.40994
 Alpha  occ. eigenvalues --   -0.40910  -0.40698  -0.40464  -0.40442  -0.40409
 Alpha  occ. eigenvalues --   -0.40335  -0.40240  -0.39942  -0.39176  -0.39112
 Alpha  occ. eigenvalues --   -0.38433  -0.38102  -0.37968  -0.37495  -0.37424
 Alpha  occ. eigenvalues --   -0.37321  -0.37123  -0.36986  -0.36887  -0.36593
 Alpha  occ. eigenvalues --   -0.36292  -0.35967  -0.34492  -0.34319  -0.33950
 Alpha  occ. eigenvalues --   -0.33675  -0.33370  -0.32863  -0.31425  -0.31204
 Alpha  occ. eigenvalues --   -0.30931  -0.30669  -0.30349  -0.29686  -0.29653
 Alpha  occ. eigenvalues --   -0.29524  -0.28958  -0.28855  -0.24255  -0.23728
 Alpha  occ. eigenvalues --   -0.21287  -0.20781
 Alpha virt. eigenvalues --   -0.08945  -0.08438  -0.01889  -0.01381  -0.00216
 Alpha virt. eigenvalues --    0.00338   0.01975   0.02492   0.02662   0.03633
 Alpha virt. eigenvalues --    0.04534   0.04580   0.05001   0.05347   0.05919

 Mulliken charges:
               1
     1  Mg   0.836635
     2  C   -0.006627
     3  C   -0.094048
     4  C   -0.044733
     5  C   -0.062069
     6  N   -0.257310
     7  C   -0.052940
     8  C   -0.014061
     9  C   -0.087162
    10  C    0.047012
    11  C    0.104635
    12  C    0.053362
    13  C   -0.071648
    14  H    0.034103
    15  N   -0.433598
    16  C    0.169481
    17  C   -0.176253
    18  C   -0.002903
    19  C    0.149504
    20  C    0.109876
    21  C    0.013282
    22  O   -0.248314
    23  C    0.061937
    24  N   -0.341931
    25  C    0.043033
    26  C   -0.028162
    27  C   -0.023483
    28  C    0.075867
    29  C    0.076214
    30  C    0.033212
    31  C   -0.002242
    32  N   -0.308763
    33  C    0.074710
    34  C   -0.171552
    35  C    0.006719
    36  C    0.077923
    37  C    0.127901
    38  C    0.041349
    39  O   -0.189553
    40  C   -0.004648
    41  C    0.216055
    42  O   -0.262433
    43  O   -0.302958
    44  C    0.157865
    45  H   -0.016991
    46  H   -0.015498
    47  H   -0.039753
    48  H    0.000667
    49  H   -0.003448
    50  H    0.025498
    51  H    0.017031
    52  H    0.017256
    53  H    0.012434
    54  H    0.041212
    55  H    0.018466
    56  H    0.019317
    57  H    0.006132
    58  H    0.027522
    59  H    0.041666
    60  H    0.037299
    61  H    0.036684
    62  H    0.033056
    63  H    0.018384
    64  H    0.008508
    65  H    0.023549
    66  H    0.011552
    67  H    0.005016
    68  H    0.004478
    69  H    0.005050
    70  H    0.002428
    71  H    0.033701
    72  H    0.024132
    73  H    0.044945
    74  H    0.011388
    75  H    0.046438
    76  H    0.036250
    77  H    0.044146
    78  H    0.047698
    79  H    0.051121
    80  Mg   0.835973
    81  C   -0.016948
    82  C   -0.084513
    83  C   -0.046341
    84  C   -0.065196
    85  N   -0.254311
    86  C   -0.051200
    87  C   -0.015019
    88  C   -0.090426
    89  C    0.044718
    90  C    0.114384
    91  C    0.062310
    92  C   -0.077048
    93  H    0.032127
    94  N   -0.423723
    95  C    0.161590
    96  C   -0.172669
    97  C   -0.009965
    98  C    0.152628
    99  C    0.098528
   100  C    0.015329
   101  O   -0.257898
   102  C    0.058696
   103  N   -0.350191
   104  C    0.038299
   105  C   -0.019831
   106  C   -0.034350
   107  C    0.088211
   108  C    0.073999
   109  C    0.034977
   110  C   -0.007269
   111  N   -0.323664
   112  C    0.077130
   113  C   -0.164326
   114  C    0.001699
   115  C    0.095096
   116  C    0.131748
   117  C    0.041404
   118  O   -0.189833
   119  C    0.001102
   120  C    0.211183
   121  O   -0.252025
   122  O   -0.305442
   123  C    0.152455
   124  H   -0.017451
   125  H   -0.016781
   126  H   -0.041585
   127  H   -0.001469
   128  H   -0.003334
   129  H    0.021851
   130  H    0.014816
   131  H    0.016182
   132  H    0.014754
   133  H    0.036599
   134  H    0.020693
   135  H    0.019661
   136  H    0.010395
   137  H    0.024907
   138  H    0.058701
   139  H    0.040873
   140  H    0.029631
   141  H    0.048001
   142  H    0.013532
   143  H    0.011685
   144  H    0.023901
   145  H    0.011843
   146  H    0.005342
   147  H    0.005231
   148  H    0.003154
   149  H    0.010620
   150  H    0.017661
   151  H    0.030328
   152  H    0.044787
   153  H    0.007766
   154  H    0.046043
   155  H    0.034471
   156  H    0.043388
   157  H    0.049174
   158  H    0.052614
 Sum of Mulliken charges =  -0.00000

 Dipole moment (field-independent basis, Debye):
    X=              3.7640    Y=              3.1713    Z=              1.1999  Tot=              5.0660
 Quadrupole moment (field-independent basis, Debye-Ang):
   XX=           -538.8513   YY=           -464.3302   ZZ=           -515.6500
   XY=              7.1723   XZ=             45.9929   YZ=             22.7105

 Normal termination of Gaussian 16 at Thu Sep  9 14:55:17 2021.
