 Gaussian 16, Revision A.03,
 Gaussian 16:  ES64L-G16RevA.03 25-Dec-2016

 -----------------------------------
 #p cam-b3lyp/Def2SVP td=(nstates=5)
 -----------------------------------

 --------------------------------
 TDDFT excited states in gaussian
 --------------------------------
 Symbolic Z-matrix:
 Charge =  0 Multiplicity = 1

                         Standard orientation:
 ---------------------------------------------------------------------
 Center     Atomic      Atomic             Coordinates (Angstroms)
 Number     Number       Type             X           Y           Z
 ---------------------------------------------------------------------
      1         12           0        4.189433   -0.147139    0.092434
      2          6           0        3.953846    3.019039   -1.560450
      3          6           0        4.860340    1.569525    2.964022
      4          6           0        4.848868   -2.925925    1.470882
      5          6           0        4.626205   -1.588989   -3.050170
      6          7           0        4.356718    2.018311    0.520786
      7          6           0        4.184880    3.130044   -0.187517
      8          6           0        4.198211    4.423832    0.680417
      9          6           0        5.039571    3.884829    1.922828
     10          6           0        4.705493    2.407103    1.819680
     11          6           0        6.546026    4.060316    1.760651
     12          6           0        2.759138    4.865497    1.111383
     13          6           0        2.653432    6.284153    1.678478
     14          1           0        1.460167    7.065906    1.391546
     15          7           0        4.289151   -0.637555    2.003559
     16          6           0        4.556705    0.192963    3.039870
     17          6           0        4.517801   -0.647260    4.256091
     18          6           0        4.393657   -2.067226    3.824375
     19          6           0        4.533776   -1.934185    2.396774
     20          6           0        4.546951   -0.086563    5.644803
     21          6           0        4.192771   -3.342933    4.579588
     22          8           0        4.344551   -4.488410    4.032394
     23          6           0        3.896308   -3.215146    6.017928
     24          7           0        4.888170   -1.969388   -0.648384
     25          6           0        5.031901   -3.030566    0.153007
     26          6           0        5.268129   -4.283485   -0.637139
     27          6           0        5.013389   -3.896980   -2.165365
     28          6           0        4.739277   -2.383684   -1.983520
     29          6           0        6.661412   -4.911638   -0.495022
     30          6           0        3.976168   -4.746329   -2.942023
     31          6           0        2.592161   -4.503705   -2.382777
     32          7           0        4.103411    0.530679   -1.967713
     33          6           0        4.340975   -0.235506   -3.118017
     34          6           0        4.273540    0.682379   -4.269975
     35          6           0        4.016183    1.929817   -3.704724
     36          6           0        3.954470    1.803970   -2.287457
     37          6           0        4.498673    0.330609   -5.630125
     38          6           0        3.803428    3.344023   -3.966666
     39          8           0        3.654389    4.024982   -4.982331
     40          6           0        3.875611    4.126548   -2.581649
     41          6           0        2.693727    5.055493   -2.522330
     42          8           0        1.531298    4.607790   -2.446919
     43          8           0        3.124477    6.310862   -2.324729
     44          6           0        1.999743    7.279120   -2.226738
     45          1           0        5.309356    1.987470    3.867154
     46          1           0        4.974637   -3.923518    1.896825
     47          1           0        4.668510   -1.981838   -4.067683
     48          1           0        4.709436    5.271821    0.224360
     49          1           0        4.676432    4.290424    2.866938
     50          1           0        6.800986    4.409951    0.760315
     51          1           0        6.974909    3.074238    1.940099
     52          1           0        6.946787    4.707885    2.540922
     53          1           0        2.454450    4.292462    1.987087
     54          1           0        2.057567    4.754847    0.283808
     55          1           0        3.551130    6.865825    1.467040
     56          1           0        2.624722    6.215980    2.766011
     57          1           0        4.808326    0.970900    5.644347
     58          1           0        5.372727   -0.570248    6.166197
     59          1           0        3.615758   -0.269986    6.181056
     60          1           0        4.712138   -2.683025    6.507639
     61          1           0        3.695470   -4.224814    6.374417
     62          1           0        3.007961   -2.595072    6.141608
     63          1           0        4.569935   -5.067078   -0.345708
     64          1           0        5.921601   -3.974025   -2.763603
     65          1           0        6.642186   -5.947188   -0.154476
     66          1           0        7.244738   -4.288121    0.181918
     67          1           0        7.271019   -4.880638   -1.397704
     68          1           0        4.189123   -5.807996   -2.821774
     69          1           0        3.956875   -4.530873   -4.010413
     70          1           0        2.551704   -5.181271   -1.530663
     71          1           0        1.832759   -4.760430   -3.122109
     72          1           0        2.490801   -3.488994   -1.997325
     73          1           0        3.721948    0.831982   -6.207440
     74          1           0        4.462153   -0.749393   -5.771071
     75          1           0        5.498252    0.737873   -5.781235
     76          1           0        4.821714    4.666897   -2.575844
     77          1           0        2.173012    8.049494   -2.978226
     78          1           0        1.950113    7.591892   -1.183610
     79          1           0        1.019231    6.911414   -2.531253
     80         12           0       -3.675045   -1.206930    0.156702
     81          6           0       -6.373916    1.158439    0.142979
     82          6           0       -1.553364    1.441655    0.500254
     83          6           0       -1.257103   -3.214779   -0.278675
     84          6           0       -5.857368   -3.495512   -1.308077
     85          7           0       -4.036962    0.970845    0.292968
     86          6           0       -5.107948    1.748834    0.338401
     87          6           0       -4.811323    3.231742    0.688456
     88          6           0       -3.280363    3.290806    0.207245
     89          6           0       -2.914638    1.817370    0.374249
     90          6           0       -3.124126    3.658492   -1.258949
     91          6           0       -4.941982    3.520827    2.225134
     92          6           0       -4.970083    5.004119    2.600359
     93          1           0       -5.808191    5.422973    3.720444
     94          7           0       -1.749276   -1.012337    0.594996
     95          6           0       -1.054822    0.138333    0.717373
     96          6           0        0.327713   -0.257198    1.027692
     97          6           0        0.428343   -1.737775    0.915951
     98          6           0       -0.878860   -2.050690    0.374306
     99          6           0        1.376273    0.724209    1.464510
    100          6           0        1.524819   -2.709745    1.230897
    101          8           0        1.480314   -3.927238    0.832681
    102          6           0        2.695335   -2.170829    1.938674
    103          7           0       -3.506348   -3.010748   -0.863170
    104          6           0       -2.356018   -3.706827   -0.851031
    105          6           0       -2.551814   -5.093916   -1.414996
    106          6           0       -4.132227   -5.269089   -1.585850
    107          6           0       -4.591129   -3.858400   -1.156011
    108          6           0       -1.861849   -5.372690   -2.750139
    109          6           0       -4.782483   -6.499874   -0.896637
    110          6           0       -4.705776   -6.350427    0.605745
    111          7           0       -5.783906   -1.266194   -0.309408
    112          6           0       -6.487684   -2.311852   -0.946108
    113          6           0       -7.874245   -1.843696   -1.147904
    114          6           0       -7.875044   -0.539233   -0.631299
    115          6           0       -6.575320   -0.209822   -0.160446
    116          6           0       -8.915801   -2.577184   -1.782941
    117          6           0       -8.677223    0.637833   -0.386919
    118          8           0       -9.871128    0.913711   -0.497415
    119          6           0       -7.710009    1.835049    0.010049
    120          6           0       -8.279288    2.507362    1.229245
    121          8           0       -8.344789    1.900778    2.312932
    122          8           0       -8.449727    3.816838    0.971180
    123          6           0       -9.002121    4.528787    2.154320
    124          1           0       -0.789667    2.210539    0.379945
    125          1           0       -0.485671   -3.984542   -0.354983
    126          1           0       -6.623085   -4.185567   -1.668875
    127          1           0       -5.401917    3.955068    0.139111
    128          1           0       -2.681533    3.909825    0.870255
    129          1           0       -4.076188    3.704030   -1.766558
    130          1           0       -2.501486    2.886141   -1.691182
    131          1           0       -2.559446    4.590205   -1.355831
    132          1           0       -4.013920    3.217689    2.726675
    133          1           0       -5.802973    3.028386    2.633588
    134          1           0       -5.144361    5.646576    1.728671
    135          1           0       -3.976128    5.292209    2.951182
    136          1           0        1.054691    1.759032    1.293865
    137          1           0        2.234869    0.593015    0.797083
    138          1           0        1.701375    0.562677    2.494503
    139          1           0        3.136990   -1.370824    1.349280
    140          1           0        3.329618   -3.033104    2.153282
    141          1           0        2.358679   -1.720033    2.878916
    142          1           0       -2.187255   -5.846332   -0.726472
    143          1           0       -4.417616   -5.384203   -2.641851
    144          1           0       -1.172424   -6.237209   -2.713041
    145          1           0       -1.334491   -4.478577   -3.055071
    146          1           0       -2.533089   -5.542823   -3.590194
    147          1           0       -4.230665   -7.409347   -1.146646
    148          1           0       -5.815873   -6.660594   -1.185192
    149          1           0       -3.697731   -6.706770    0.838042
    150          1           0       -5.462668   -6.963492    1.090833
    151          1           0       -4.758395   -5.295643    0.899535
    152          1           0       -9.804444   -2.440491   -1.181170
    153          1           0       -8.658569   -3.629884   -1.880105
    154          1           0       -8.947938   -2.071370   -2.751638
    155          1           0       -7.658440    2.511481   -0.843969
    156          1           0       -9.916095    5.033116    1.825718
    157          1           0       -8.180681    5.168242    2.528574
    158          1           0       -9.376278    3.925128    2.972888
 ---------------------------------------------------------------------

 SCF Done:  E(RCAM-B3LYP) =  -4069.59966664     A.U. after   20 cycles

 Excitation energies and oscillator strengths:

 Excited State   1:      Singlet-A      1.3497 eV  918.58 nm  f=0.2655  <S**2>=0.000
     309 -> 315       -0.12705
     312 -> 313        0.68890
 This state for optimization and/or second-order correction.
 Total Energy, E(TD-HF/TD-DFT) =  -4069.55006447
 Copying the excited state density for this state as the 1-particle RhoCI density.

 Excited State   2:      Singlet-A      1.6565 eV  748.49 nm  f=0.4797  <S**2>=0.000
     310 -> 316       -0.15692
     311 -> 314        0.67876

 Excited State   3:      Singlet-A      1.9550 eV  634.20 nm  f=0.0578  <S**2>=0.000
     309 -> 313        0.50447
     311 -> 313        0.43824
     312 -> 315        0.18494

 Excited State   4:      Singlet-A      2.0167 eV  614.79 nm  f=0.0040  <S**2>=0.000
     312 -> 314        0.67475

 Excited State   5:      Singlet-A      2.0329 eV  609.88 nm  f=0.0240  <S**2>=0.000
     309 -> 313       -0.40111
     311 -> 313        0.54135
     312 -> 315       -0.13524

 The electronic state is 1-A.
 Alpha  occ. eigenvalues --  -46.88799 -46.87380 -19.26888 -19.26182 -19.19691
 Alpha  occ. eigenvalues --  -19.19687 -19.18985 -19.18693 -19.17989 -19.17831
 Alpha  occ. eigenvalues --  -14.42947 -14.42181 -14.41107 -14.41034 -14.39699
 Alpha  occ. eigenvalues --  -14.39042 -14.38915 -14.38343 -10.39711 -10.38907
 Alpha  occ. eigenvalues --  -10.36053 -10.34888 -10.34051 -10.34007 -10.32759
 Alpha  occ. eigenvalues --  -10.32267 -10.31625 -10.31580 -10.31407 -10.31074
 Alpha  occ. eigenvalues --  -10.30969 -10.30742 -10.30543 -10.30362 -10.30107
 Alpha  occ. eigenvalues --  -10.30076 -10.29897 -10.29835 -10.29626 -10.29565
 Alpha  occ. eigenvalues --  -10.29304 -10.29227 -10.29185 -10.29111 -10.28788
 Alpha  occ. eigenvalues --  -10.28531 -10.28521 -10.28390 -10.28279 -10.28157
 Alpha  occ. eigenvalues --  -10.28152 -10.28137 -10.28049 -10.28037 -10.27947
 Alpha  occ. eigenvalues --  -10.27765 -10.27685 -10.27684 -10.27496 -10.27326
 Alpha  occ. eigenvalues --  -10.27282 -10.27229 -10.27207 -10.27203 -10.27184
 Alpha  occ. eigenvalues --  -10.26987 -10.26915 -10.26819 -10.26550 -10.26487
 Alpha  occ. eigenvalues --  -10.26085 -10.25977 -10.25831 -10.25699 -10.25653
 Alpha  occ. eigenvalues --  -10.25575 -10.25351 -10.25262 -10.25260 -10.25092
 Alpha  occ. eigenvalues --  -10.24632 -10.24573 -10.24533 -10.24408 -10.23556
 Alpha  occ. eigenvalues --  -10.23462  -3.17607  -3.16129  -1.92501  -1.92043
 Alpha  occ. eigenvalues --   -1.91938  -1.91011  -1.90600  -1.90437  -1.17244
 Alpha  occ. eigenvalues --   -1.16473  -1.09136  -1.08443  -1.08273  -1.07288
 Alpha  occ. eigenvalues --   -1.06929  -1.06769  -1.06061  -1.04807  -1.04183
 Alpha  occ. eigenvalues --   -1.03565  -1.03365  -1.02776  -1.02701  -1.01851
 Alpha  occ. eigenvalues --   -0.92776  -0.91728  -0.91615  -0.89693  -0.89271
 Alpha  occ. eigenvalues --   -0.88792  -0.88776  -0.88412  -0.88227  -0.88010
 Alpha  occ. eigenvalues --   -0.87892  -0.87566  -0.87418  -0.86944  -0.86207
 Alpha  occ. eigenvalues --   -0.84641  -0.84070  -0.83679  -0.83535  -0.83271
 Alpha  occ. eigenvalues --   -0.82493  -0.82326  -0.81821  -0.81362  -0.81163
 Alpha  occ. eigenvalues --   -0.80260  -0.79837  -0.78798  -0.77593  -0.77294
 Alpha  occ. eigenvalues --   -0.76987  -0.76651  -0.76320  -0.75569  -0.74916
 Alpha  occ. eigenvalues --   -0.74620  -0.73364  -0.72462  -0.72353  -0.71288
 Alpha  occ. eigenvalues --   -0.69688  -0.69581  -0.69333  -0.68902  -0.68268
 Alpha  occ. eigenvalues --   -0.67924  -0.67334  -0.67002  -0.66267  -0.65684
 Alpha  occ. eigenvalues --   -0.65276  -0.64973  -0.64532  -0.64427  -0.64403
 Alpha  occ. eigenvalues --   -0.63983  -0.63043  -0.62554  -0.62063  -0.61062
 Alpha  occ. eigenvalues --   -0.60338  -0.59678  -0.59499  -0.59096  -0.58751
 Alpha  occ. eigenvalues --   -0.58199  -0.58113  -0.57640  -0.57535  -0.57317
 Alpha  occ. eigenvalues --   -0.56969  -0.56553  -0.56487  -0.55967  -0.55780
 Alpha  occ. eigenvalues --   -0.55550  -0.55504  -0.55051  -0.54563  -0.54547
 Alpha  occ. eigenvalues --   -0.54334  -0.53992  -0.53885  -0.53747  -0.53583
 Alpha  occ. eigenvalues --   -0.53293  -0.53188  -0.52882  -0.52696  -0.52629
 Alpha  occ. eigenvalues --   -0.52326  -0.52270  -0.52159  -0.52029  -0.51883
 Alpha  occ. eigenvalues --   -0.51731  -0.51615  -0.51301  -0.51137  -0.50999
 Alpha  occ. eigenvalues --   -0.50757  -0.50282  -0.49945  -0.49829  -0.49725
 Alpha  occ. eigenvalues --   -0.49521  -0.49444  -0.49343  -0.49134  -0.49086
 Alpha  occ. eigenvalues --   -0.48884  -0.48705  -0.48525  -0.48444  -0.48242
 Alpha  occ. eigenvalues --   -0.48194  -0.47872  -0.47717  -0.47277  -0.47016
 Alpha  occ. eigenvalues --   -0.46948  -0.46797  -0.46502  -0.46444  -0.46275
 Alpha  occ. eigenvalues --   -0.46196  -0.46096  -0.45919  -0.45601  -0.45438
 Alpha  occ. eigenvalues --   -0.45260  -0.45116  -0.44979  -0.44650  -0.44575
 Alpha  occ. eigenvalues --   -0.44483  -0.44300  -0.44213  -0.44134  -0.43926
 Alpha  occ. eigenvalues --   -0.43875  -0.43794  -0.43694  -0.43572  -0.43357
 Alpha  occ. eigenvalues --   -0.43171  -0.43119  -0.42840  -0.42736  -0.42710
 Alpha  occ. eigenvalues --   -0.42493  -0.42302  -0.42060  -0.41981  -0.41740
 Alpha  occ. eigenvalues --   -0.41730  -0.41586  -0.41425  -0.41305  -0.41152
 Alpha  occ. eigenvalues --   -0.41034  -0.40854  -0.40684  -0.40444  -0.40291
 Alpha  occ. eigenvalues --   -0.40231  -0.40110  -0.39778  -0.39236  -0.38545
 Alpha  occ. eigenvalues --   -0.38364  -0.38134  -0.38017  -0.37662  -0.37415
 Alpha  occ. eigenvalues --   -0.37205  -0.37045  -0.36908  -0.36805  -0.36586
 Alpha  occ. eigenvalues --   -0.35976  -0.35682  -0.34585  -0.34123  -0.33989
 Alpha  occ. eigenvalues --   -0.33665  -0.32912  -0.32792  -0.32068  -0.30811
 Alpha  occ. eigenvalues --   -0.30559  -0.30522  -0.29929  -0.29735  -0.29696
 Alpha  occ. eigenvalues --   -0.29131  -0.28984  -0.27905  -0.23983  -0.23738
 Alpha  occ. eigenvalues --   -0.20856  -0.20539
 Alpha virt. eigenvalues --   -0.09433  -0.08542  -0.02020  -0.01384  -0.00806
 Alpha virt. eigenvalues --    0.00406   0.01718   0.02500   0.03387   0.03992
 Alpha virt. eigenvalues --    0.04297   0.04414   0.04987   0.05341   0.05371

 Mulliken charges:
               1
     1  Mg   0.635703
     2  C    0.004647
     3  C   -0.092155
     4  C   -0.076249
     5  C   -0.075445
     6  N   -0.249333
     7  C   -0.058911
     8  C   -0.011939
     9  C   -0.082977
    10  C    0.038467
    11  C    0.104525
    12  C    0.041562
    13  C   -0.068793
    14  H    0.034348
    15  N   -0.463072
    16  C    0.170541
    17  C   -0.164529
    18  C   -0.050813
    19  C    0.149263
    20  C    0.115185
    21  C    0.024029
    22  O   -0.244752
    23  C    0.069885
    24  N   -0.347955
    25  C    0.047485
    26  C   -0.025702
    27  C   -0.027878
    28  C    0.101710
    29  C    0.080434
    30  C    0.036936
    31  C   -0.009887
    32  N   -0.304271
    33  C    0.093778
    34  C   -0.171779
    35  C    0.012604
    36  C    0.081249
    37  C    0.127233
    38  C    0.046529
    39  O   -0.185853
    40  C   -0.008683
    41  C    0.214070
    42  O   -0.260975
    43  O   -0.303495
    44  C    0.157124
    45  H   -0.017691
    46  H    0.000277
    47  H   -0.042579
    48  H    0.001506
    49  H   -0.005750
    50  H    0.025516
    51  H    0.018793
    52  H    0.016744
    53  H    0.015083
    54  H    0.041055
    55  H    0.020449
    56  H    0.018915
    57  H    0.006418
    58  H    0.027958
    59  H    0.038057
    60  H    0.038392
    61  H    0.039959
    62  H    0.029104
    63  H    0.026333
    64  H    0.008030
    65  H    0.022626
    66  H    0.010230
    67  H    0.002250
    68  H    0.003835
    69  H   -0.001089
    70  H    0.025650
    71  H    0.009450
    72  H    0.034187
    73  H    0.048017
    74  H    0.011880
    75  H    0.046705
    76  H    0.036356
    77  H    0.045195
    78  H    0.046320
    79  H    0.052104
    80  Mg   0.838326
    81  C   -0.017451
    82  C   -0.094604
    83  C   -0.045875
    84  C   -0.065107
    85  N   -0.255013
    86  C   -0.048624
    87  C   -0.015423
    88  C   -0.089618
    89  C    0.044391
    90  C    0.114152
    91  C    0.063014
    92  C   -0.076709
    93  H    0.032824
    94  N   -0.425207
    95  C    0.167807
    96  C   -0.208464
    97  C    0.014074
    98  C    0.148810
    99  C    0.176918
   100  C    0.079396
   101  O   -0.256377
   102  C    0.047877
   103  N   -0.349538
   104  C    0.036847
   105  C   -0.019622
   106  C   -0.034831
   107  C    0.088982
   108  C    0.071610
   109  C    0.034917
   110  C   -0.007571
   111  N   -0.323959
   112  C    0.078427
   113  C   -0.163452
   114  C    0.002079
   115  C    0.096276
   116  C    0.131530
   117  C    0.042017
   118  O   -0.188738
   119  C    0.001145
   120  C    0.211167
   121  O   -0.251690
   122  O   -0.305352
   123  C    0.152346
   124  H   -0.006876
   125  H   -0.011733
   126  H   -0.041156
   127  H   -0.000892
   128  H   -0.006159
   129  H    0.019320
   130  H    0.023225
   131  H    0.021194
   132  H    0.012412
   133  H    0.036823
   134  H    0.021101
   135  H    0.018119
   136  H    0.009767
   137  H    0.042351
   138  H    0.053639
   139  H    0.045171
   140  H    0.070413
   141  H    0.040458
   142  H    0.014169
   143  H    0.012005
   144  H    0.024023
   145  H    0.014960
   146  H    0.004806
   147  H    0.005493
   148  H    0.003295
   149  H    0.011055
   150  H    0.017291
   151  H    0.030316
   152  H    0.045384
   153  H    0.008028
   154  H    0.046951
   155  H    0.035490
   156  H    0.043512
   157  H    0.049172
   158  H    0.053016
 Sum of Mulliken charges =  -0.00000

 Dipole moment (field-independent basis, Debye):
    X=              5.8821    Y=              2.7383    Z=              3.6071  Tot=              7.4235
 Quadrupole moment (field-independent basis, Debye-Ang):
   XX=           -555.1533   YY=           -476.3490   ZZ=           -503.4602
   XY=             14.6593   XZ=             20.7248   YZ=             47.2156

 Normal termination of Gaussian 16 at Thu Sep  9 10:45:22 2021.
