 Gaussian 16, Revision A.03,
 Gaussian 16:  ES64L-G16RevA.03 25-Dec-2016

 -----------------------------------
 #p cam-b3lyp/Def2SVP td=(nstates=5)
 -----------------------------------

 --------------------------------
 TDDFT excited states in gaussian
 --------------------------------
 Symbolic Z-matrix:
 Charge =  0 Multiplicity = 1

                         Standard orientation:
 ---------------------------------------------------------------------
 Center     Atomic      Atomic             Coordinates (Angstroms)
 Number     Number       Type             X           Y           Z
 ---------------------------------------------------------------------
      1         12           0      -15.794028   -0.743385    0.191326
      2          6           0      -15.991204    2.822813   -0.044402
      3          6           0      -16.693263   -0.861695   -3.098118
      4          6           0      -16.069414   -3.888278    0.492045
      5          6           0      -16.029491   -0.380239    3.649410
      6          7           0      -16.254701    0.846982   -1.278082
      7          6           0      -16.235610    2.176042   -1.257908
      8          6           0      -16.425220    2.818073   -2.664755
      9          6           0      -17.185735    1.618212   -3.388599
     10          6           0      -16.653549    0.460112   -2.563065
     11          6           0      -18.702006    1.676085   -3.233436
     12          6           0      -15.059807    3.134881   -3.362616
     13          6           0      -15.148399    4.052833   -4.585264
     14          1           0      -14.072592    5.002175   -4.827618
     15          7           0      -15.826621   -2.163702   -1.181441
     16          6           0      -16.205065   -2.030791   -2.475427
     17          6           0      -16.052494   -3.369708   -3.084282
     18          6           0      -15.736054   -4.332466   -1.992926
     19          6           0      -15.892554   -3.493850   -0.832060
     20          6           0      -16.158124   -3.620683   -4.557239
     21          6           0      -15.363581   -5.781394   -1.995188
     22          8           0      -15.357833   -6.483865   -0.926977
     23          6           0      -15.087706   -6.386709   -3.310684
     24          7           0      -16.237945   -1.981424    1.812385
     25          6           0      -16.236102   -3.312839    1.684660
     26          6           0      -16.299315   -3.989715    3.021740
     27          6           0      -16.099111   -2.838423    4.109949
     28          6           0      -16.033635   -1.620507    3.155662
     29          6           0      -17.594146   -4.757006    3.322885
     30          6           0      -14.955680   -3.032891    5.137162
     31          6           0      -13.617759   -2.957618    4.436162
     32          7           0      -15.800474    0.911418    1.595830
     33          6           0      -15.931169    0.833557    2.989935
     34          6           0      -15.988984    2.217132    3.496340
     35          6           0      -15.904025    3.008762    2.352684
     36          6           0      -15.826177    2.172501    1.202511
     37          6           0      -16.163722    2.600529    4.855350
     38          6           0      -15.885712    4.366451    1.832875
     39          8           0      -15.830467    5.488135    2.339101
     40          6           0      -16.064175    4.300122    0.251870
     41          6           0      -15.019785    5.192667   -0.361256
     42          8           0      -13.807250    4.909590   -0.277647
     43          8           0      -15.617498    6.102256   -1.146068
     44          6           0      -14.635090    7.001324   -1.808416
     45          1           0      -17.195270   -1.029752   -4.052941
     46          1           0      -16.058321   -4.968579    0.650994
     47          1           0      -16.017614   -0.188531    4.723914
     48          1           0      -17.046999    3.713447   -2.675667
     49          1           0      -16.881479    1.512719   -4.429762
     50          1           0      -19.001894    2.462493   -2.540941
     51          1           0      -18.992698    0.698494   -2.848329
     52          1           0      -19.187432    1.771835   -4.205017
     53          1           0      -14.680201    2.229998   -3.837113
     54          1           0      -14.349456    3.553033   -2.648559
     55          1           0      -16.116867    4.550756   -4.640494
     56          1           0      -15.111000    3.432996   -5.481146
     57          1           0      -16.561035   -2.755919   -5.082969
     58          1           0      -16.910515   -4.397017   -4.694800
     59          1           0      -15.210790   -3.946590   -4.986977
     60          1           0      -15.968533   -6.285782   -3.945118
     61          1           0      -14.751382   -7.403182   -3.109392
     62          1           0      -14.292089   -5.823104   -3.798836
     63          1           0      -15.501025   -4.723280    3.126820
     64          1           0      -16.988198   -2.698040    4.725164
     65          1           0      -17.434215   -5.808184    3.564029
     66          1           0      -18.257133   -4.649084    2.464926
     67          1           0      -18.202027   -4.332208    4.121286
     68          1           0      -15.022146   -4.018590    5.596429
     69          1           0      -14.965580   -2.292794    5.937417
     70          1           0      -13.485685   -3.969384    4.054430
     71          1           0      -12.830255   -2.702249    5.145975
     72          1           0      -13.655607   -2.287564    3.577046
     73          1           0      -15.462316    3.415211    5.035052
     74          1           0      -15.980461    1.764101    5.529447
     75          1           0      -17.209395    2.907659    4.845664
     76          1           0      -17.075037    4.644496    0.035798
     77          1           0      -14.911405    8.023882   -1.551006
     78          1           0      -14.628817    6.729383   -2.864074
     79          1           0      -13.613556    6.962366   -1.428562
     80         12           0       15.962857   -0.802337   -0.044992
     81          6           0       15.768477    2.718405    0.622583
     82          6           0       15.063899   -0.091133   -3.257584
     83          6           0       15.685891   -3.922037   -0.553095
     84          6           0       15.719388   -1.326410    3.391829
     85          7           0       15.503418    1.105724   -1.065032
     86          6           0       15.522272    2.385938   -0.725855
     87          6           0       15.342075    3.368769   -1.913771
     88          6           0       14.573059    2.385930   -2.924484
     89          6           0       15.101762    1.047299   -2.413392
     90          6           0       13.063776    2.402128   -2.748082
     91          6           0       16.713602    3.845620   -2.508357
     92          6           0       16.620904    5.038105   -3.462887
     93          1           0       17.704466    6.017063   -3.460961
     94          7           0       15.932415   -1.829260   -1.742961
     95          6           0       15.561705   -1.378729   -2.959877
     96          6           0       15.697508   -2.525068   -3.871816
     97          6           0       16.020776   -3.731928   -3.063304
     98          6           0       15.868410   -3.200401   -1.723777
     99          6           0       15.601233   -2.393570   -5.364084
    100          6           0       16.391584   -5.135861   -3.434353
    101          8           0       16.396864   -6.081842   -2.569527
    102          6           0       16.657592   -5.389220   -4.857922
    103          7           0       15.523448   -2.401537    1.208719
    104          6           0       15.517864   -3.663197    0.743858
    105          6           0       15.449699   -4.661092    1.875202
    106          6           0       15.655460   -3.808877    3.212730
    107          6           0       15.720735   -2.391668    2.602282
    108          6           0       14.152527   -5.463110    1.977579
    109          6           0       16.798522   -4.257271    4.164070
    110          6           0       18.139303   -4.022772    3.506260
    111          7           0       15.962634    0.441213    1.721815
    112          6           0       15.823822    0.018874    3.062137
    113          6           0       15.768064    1.235423    3.898394
    114          6           0       15.855855    2.289948    2.977107
    115          6           0       15.938706    1.767796    1.658013
    116          6           0       15.603205    1.266411    5.311893
    117          6           0       15.886570    3.726252    2.819701
    118          8           0       15.935992    4.683772    3.590710
    119          6           0       15.703988    4.069745    1.278575
    120          6           0       16.750282    5.082375    0.901268
    121          8           0       17.957113    4.783018    0.924765
    122          8           0       16.147642    6.161388    0.369355
    123          6           0       17.144999    7.189477   -0.030812
    124          1           0       14.568541   -0.003448   -4.224952
    125          1           0       15.694932   -5.008931   -0.662944
    126          1           0       15.742676   -1.406815    4.480717
    127          1           0       14.727874    4.234715   -1.697745
    128          1           0       14.886046    2.552293   -3.951965
    129          1           0       12.764693    2.985256   -1.889798
    130          1           0       12.771059    1.367810   -2.623380
    131          1           0       12.580376    2.743341   -3.667990
    132          1           0       17.089606    3.080416   -3.199613
    133          1           0       17.413372    4.063301   -1.725058
    134          1           0       15.648316    5.541233   -3.400697
    135          1           0       16.664703    4.665361   -4.489131
    136          1           0       15.192946   -1.418264   -5.656442
    137          1           0       14.848852   -3.114969   -5.700768
    138          1           0       16.546363   -2.607651   -5.867636
    139          1           0       15.778984   -5.125755   -5.441947
    140          1           0       16.992971   -6.426721   -4.912405
    141          1           0       17.464739   -4.725062   -5.186607
    142          1           0       16.247130   -5.389820    1.796667
    143          1           0       14.761815   -3.834172    3.853511
    144          1           0       14.312155   -6.557408    1.944115
    145          1           0       13.493834   -5.150298    1.178330
    146          1           0       13.553110   -5.260673    2.863537
    147          1           0       16.731169   -5.330691    4.357395
    148          1           0       16.782109   -3.755211    5.125655
    149          1           0       18.264485   -4.909781    2.878069
    150          1           0       18.926422   -3.954751    4.254505
    151          1           0       18.104971   -3.150988    2.842585
    152          1           0       16.298624    2.003739    5.690360
    153          1           0       15.779848    0.288223    5.754305
    154          1           0       14.553335    1.563885    5.379326
    155          1           0       14.692981    4.457172    1.146830
    156          1           0       16.866713    8.118790    0.475754
    157          1           0       17.138549    7.197336   -1.136995
    158          1           0       18.164672    7.058794    0.312184
 ---------------------------------------------------------------------

 SCF Done:  E(RCAM-B3LYP) =  -4069.81176241     A.U. after   19 cycles

 Excitation energies and oscillator strengths:

 Excited State   1:      Singlet-A      1.6753 eV  740.06 nm  f=0.2198  <S**2>=0.000
     310 -> 316        0.16879
     311 -> 314       -0.15921
     312 -> 313        0.66732
     310 <- 316        0.10176
 This state for optimization and/or second-order correction.
 Total Energy, E(TD-HF/TD-DFT) =  -4069.75019562
 Copying the excited state density for this state as the 1-particle RhoCI density.

 Excited State   2:      Singlet-A      1.6801 eV  737.96 nm  f=0.5575  <S**2>=0.000
     309 -> 315        0.17082
     311 -> 314        0.66696
     312 -> 313        0.15916
     309 <- 315        0.10227

 Excited State   3:      Singlet-A      2.1861 eV  567.16 nm  f=0.0953  <S**2>=0.000
     310 -> 313        0.64211
     312 -> 316       -0.27293

 Excited State   4:      Singlet-A      2.1925 eV  565.48 nm  f=0.1048  <S**2>=0.000
     309 -> 314        0.64033
     311 -> 315       -0.27815

 Excited State   5:      Singlet-A      3.0659 eV  404.40 nm  f=0.0000  <S**2>=0.000
     311 -> 313        0.70711

 The electronic state is 1-A.
 Alpha  occ. eigenvalues --  -46.87796 -46.87660 -19.26346 -19.26285 -19.19158
 Alpha  occ. eigenvalues --  -19.19020 -19.18815 -19.18716 -19.18169 -19.18049
 Alpha  occ. eigenvalues --  -14.42497 -14.42450 -14.41449 -14.41359 -14.39402
 Alpha  occ. eigenvalues --  -14.39352 -14.38599 -14.38586 -10.39088 -10.39080
 Alpha  occ. eigenvalues --  -10.35449 -10.35393 -10.34389 -10.34226 -10.31752
 Alpha  occ. eigenvalues --  -10.31680 -10.31405 -10.31308 -10.31023 -10.30909
 Alpha  occ. eigenvalues --  -10.30569 -10.30507 -10.30397 -10.30360 -10.30206
 Alpha  occ. eigenvalues --  -10.30141 -10.29920 -10.29894 -10.29630 -10.29437
 Alpha  occ. eigenvalues --  -10.29401 -10.29254 -10.28750 -10.28717 -10.28653
 Alpha  occ. eigenvalues --  -10.28541 -10.28404 -10.28365 -10.28139 -10.28117
 Alpha  occ. eigenvalues --  -10.28000 -10.27792 -10.27727 -10.27669 -10.27584
 Alpha  occ. eigenvalues --  -10.27518 -10.27499 -10.27483 -10.27482 -10.27469
 Alpha  occ. eigenvalues --  -10.27465 -10.27448 -10.27403 -10.27376 -10.27158
 Alpha  occ. eigenvalues --  -10.27048 -10.26707 -10.26692 -10.26418 -10.26411
 Alpha  occ. eigenvalues --  -10.26235 -10.26181 -10.26138 -10.26022 -10.26018
 Alpha  occ. eigenvalues --  -10.25934 -10.25849 -10.25841 -10.25434 -10.25397
 Alpha  occ. eigenvalues --  -10.24872 -10.24832 -10.24787 -10.24732 -10.24690
 Alpha  occ. eigenvalues --  -10.24685  -3.16539  -3.16410  -1.91421  -1.91292
 Alpha  occ. eigenvalues --   -1.91007  -1.90881  -1.90849  -1.90718  -1.16640
 Alpha  occ. eigenvalues --   -1.16633  -1.08656  -1.08626  -1.07216  -1.06968
 Alpha  occ. eigenvalues --   -1.06943  -1.06642  -1.04581  -1.04495  -1.03760
 Alpha  occ. eigenvalues --   -1.03663  -1.03233  -1.03039  -1.02411  -1.02111
 Alpha  occ. eigenvalues --   -0.91986  -0.91972  -0.89518  -0.89494  -0.89188
 Alpha  occ. eigenvalues --   -0.89150  -0.88286  -0.88220  -0.87869  -0.87793
 Alpha  occ. eigenvalues --   -0.87683  -0.87673  -0.87274  -0.87121  -0.84999
 Alpha  occ. eigenvalues --   -0.84983  -0.83935  -0.83876  -0.82967  -0.82933
 Alpha  occ. eigenvalues --   -0.82652  -0.82649  -0.81595  -0.81586  -0.80596
 Alpha  occ. eigenvalues --   -0.80442  -0.78797  -0.78636  -0.77218  -0.77144
 Alpha  occ. eigenvalues --   -0.76934  -0.76897  -0.75923  -0.75837  -0.74897
 Alpha  occ. eigenvalues --   -0.74802  -0.72774  -0.72699  -0.71672  -0.71580
 Alpha  occ. eigenvalues --   -0.69905  -0.69758  -0.68873  -0.68826  -0.67641
 Alpha  occ. eigenvalues --   -0.67601  -0.67221  -0.67200  -0.65287  -0.65271
 Alpha  occ. eigenvalues --   -0.64853  -0.64770  -0.64653  -0.64620  -0.64268
 Alpha  occ. eigenvalues --   -0.64204  -0.62297  -0.62277  -0.60442  -0.60340
 Alpha  occ. eigenvalues --   -0.59804  -0.59795  -0.58992  -0.58987  -0.58503
 Alpha  occ. eigenvalues --   -0.58425  -0.57584  -0.57552  -0.57308  -0.57236
 Alpha  occ. eigenvalues --   -0.56309  -0.56204  -0.55979  -0.55885  -0.55520
 Alpha  occ. eigenvalues --   -0.55452  -0.55338  -0.55247  -0.54523  -0.54487
 Alpha  occ. eigenvalues --   -0.53911  -0.53896  -0.53298  -0.53227  -0.53222
 Alpha  occ. eigenvalues --   -0.53141  -0.52914  -0.52901  -0.52757  -0.52669
 Alpha  occ. eigenvalues --   -0.52437  -0.52402  -0.51913  -0.51883  -0.51658
 Alpha  occ. eigenvalues --   -0.51617  -0.51200  -0.51195  -0.50573  -0.50477
 Alpha  occ. eigenvalues --   -0.50030  -0.49980  -0.49919  -0.49867  -0.49515
 Alpha  occ. eigenvalues --   -0.49488  -0.49214  -0.49201  -0.49103  -0.49096
 Alpha  occ. eigenvalues --   -0.48593  -0.48557  -0.48461  -0.48445  -0.48376
 Alpha  occ. eigenvalues --   -0.48339  -0.47695  -0.47594  -0.47297  -0.47118
 Alpha  occ. eigenvalues --   -0.46796  -0.46709  -0.46556  -0.46553  -0.46359
 Alpha  occ. eigenvalues --   -0.46270  -0.46162  -0.46085  -0.45821  -0.45821
 Alpha  occ. eigenvalues --   -0.45209  -0.45200  -0.44577  -0.44513  -0.44507
 Alpha  occ. eigenvalues --   -0.44475  -0.44144  -0.44126  -0.44088  -0.44078
 Alpha  occ. eigenvalues --   -0.44019  -0.43939  -0.43552  -0.43494  -0.43385
 Alpha  occ. eigenvalues --   -0.43385  -0.43027  -0.42929  -0.42900  -0.42699
 Alpha  occ. eigenvalues --   -0.42654  -0.42554  -0.42009  -0.41964  -0.41703
 Alpha  occ. eigenvalues --   -0.41668  -0.41534  -0.41458  -0.41141  -0.40989
 Alpha  occ. eigenvalues --   -0.40869  -0.40824  -0.40723  -0.40698  -0.40570
 Alpha  occ. eigenvalues --   -0.40493  -0.40235  -0.40226  -0.39439  -0.39426
 Alpha  occ. eigenvalues --   -0.38468  -0.38350  -0.37749  -0.37653  -0.37319
 Alpha  occ. eigenvalues --   -0.37266  -0.37264  -0.37199  -0.36769  -0.36713
 Alpha  occ. eigenvalues --   -0.36216  -0.36192  -0.34286  -0.34253  -0.33860
 Alpha  occ. eigenvalues --   -0.33770  -0.33186  -0.33175  -0.31345  -0.31275
 Alpha  occ. eigenvalues --   -0.31035  -0.30972  -0.30028  -0.29954  -0.29449
 Alpha  occ. eigenvalues --   -0.29327  -0.29321  -0.29211  -0.24080  -0.24036
 Alpha  occ. eigenvalues --   -0.21127  -0.21117
 Alpha virt. eigenvalues --   -0.08792  -0.08774  -0.01749  -0.01684  -0.00058
 Alpha virt. eigenvalues --   -0.00029   0.02201   0.02208   0.03121   0.03226
 Alpha virt. eigenvalues --    0.04717   0.04730   0.05098   0.05168   0.06175

 Mulliken charges:
               1
     1  Mg   0.838717
     2  C   -0.002969
     3  C   -0.094141
     4  C   -0.045883
     5  C   -0.063931
     6  N   -0.256777
     7  C   -0.052460
     8  C   -0.014011
     9  C   -0.086992
    10  C    0.046315
    11  C    0.104811
    12  C    0.053472
    13  C   -0.071798
    14  H    0.036099
    15  N   -0.433149
    16  C    0.168434
    17  C   -0.177170
    18  C   -0.004001
    19  C    0.148715
    20  C    0.110185
    21  C    0.012279
    22  O   -0.249616
    23  C    0.062473
    24  N   -0.341153
    25  C    0.041263
    26  C   -0.028182
    27  C   -0.023977
    28  C    0.074823
    29  C    0.076178
    30  C    0.035140
    31  C   -0.004513
    32  N   -0.310471
    33  C    0.080416
    34  C   -0.169703
    35  C    0.008381
    36  C    0.083002
    37  C    0.127308
    38  C    0.046113
    39  O   -0.188420
    40  C   -0.005351
    41  C    0.212881
    42  O   -0.257105
    43  O   -0.304792
    44  C    0.157687
    45  H   -0.017614
    46  H   -0.016833
    47  H   -0.041472
    48  H    0.000937
    49  H   -0.004051
    50  H    0.025480
    51  H    0.016456
    52  H    0.016649
    53  H    0.011192
    54  H    0.044124
    55  H    0.017879
    56  H    0.017934
    57  H    0.005862
    58  H    0.026822
    59  H    0.039528
    60  H    0.037345
    61  H    0.035649
    62  H    0.031486
    63  H    0.016558
    64  H    0.009471
    65  H    0.023215
    66  H    0.012539
    67  H    0.004760
    68  H    0.006373
    69  H    0.004746
    70  H    0.008775
    71  H    0.018166
    72  H    0.028974
    73  H    0.047591
    74  H    0.009129
    75  H    0.046016
    76  H    0.035155
    77  H    0.042956
    78  H    0.046384
    79  H    0.053688
    80  Mg   0.837876
    81  C   -0.016820
    82  C   -0.087789
    83  C   -0.045524
    84  C   -0.064860
    85  N   -0.254577
    86  C   -0.049812
    87  C   -0.015111
    88  C   -0.090497
    89  C    0.045762
    90  C    0.114369
    91  C    0.062533
    92  C   -0.077907
    93  H    0.034904
    94  N   -0.423492
    95  C    0.162912
    96  C   -0.174626
    97  C   -0.007816
    98  C    0.152117
    99  C    0.099375
   100  C    0.015569
   101  O   -0.253188
   102  C    0.061202
   103  N   -0.350054
   104  C    0.037557
   105  C   -0.019862
   106  C   -0.034809
   107  C    0.088895
   108  C    0.073653
   109  C    0.034744
   110  C   -0.007680
   111  N   -0.324124
   112  C    0.078442
   113  C   -0.163116
   114  C    0.002267
   115  C    0.096199
   116  C    0.131485
   117  C    0.042403
   118  O   -0.187819
   119  C    0.000901
   120  C    0.211264
   121  O   -0.251034
   122  O   -0.305613
   123  C    0.152022
   124  H   -0.019659
   125  H   -0.015574
   126  H   -0.040432
   127  H   -0.000607
   128  H   -0.004336
   129  H    0.022512
   130  H    0.014435
   131  H    0.016297
   132  H    0.013901
   133  H    0.037676
   134  H    0.020820
   135  H    0.019581
   136  H    0.008761
   137  H    0.026131
   138  H    0.039780
   139  H    0.038245
   140  H    0.036382
   141  H    0.033893
   142  H    0.014392
   143  H    0.012455
   144  H    0.025135
   145  H    0.011652
   146  H    0.005710
   147  H    0.006264
   148  H    0.003666
   149  H    0.010924
   150  H    0.017935
   151  H    0.030099
   152  H    0.046019
   153  H    0.008516
   154  H    0.047010
   155  H    0.035090
   156  H    0.043950
   157  H    0.049490
   158  H    0.053571
 Sum of Mulliken charges =  -0.00000

 Dipole moment (field-independent basis, Debye):
    X=             -4.0610    Y=             -2.4302    Z=             -7.6535  Tot=              8.9986
 Quadrupole moment (field-independent basis, Debye-Ang):
   XX=           -516.2006   YY=           -550.1109   ZZ=           -448.8117
   XY=             11.7329   XZ=             -3.2349   YZ=            -47.1303

 Normal termination of Gaussian 16 at Sun Sep 12 11:32:38 2021.
