 Gaussian 16, Revision A.03,
 Gaussian 16:  ES64L-G16RevA.03 25-Dec-2016

 -----------------------------------
 #p cam-b3lyp/Def2SVP td=(nstates=5)
 -----------------------------------

 --------------------------------
 TDDFT excited states in gaussian
 --------------------------------
 Symbolic Z-matrix:
 Charge =  0 Multiplicity = 1

                         Standard orientation:
 ---------------------------------------------------------------------
 Center     Atomic      Atomic             Coordinates (Angstroms)
 Number     Number       Type             X           Y           Z
 ---------------------------------------------------------------------
      1         12           0        5.076917   -1.205041    0.202541
      2          6           0        5.925549    1.807244   -1.534750
      3          6           0        6.384824    0.223021    3.012004
      4          6           0        4.753796   -4.009620    1.647030
      5          6           0        4.894947   -2.771471   -2.905327
      6          7           0        6.006197    0.770983    0.566432
      7          6           0        6.217372    1.857477   -0.169846
      8          6           0        6.707847    3.080944    0.660777
      9          6           0        7.338795    2.305393    1.902721
     10          6           0        6.503888    1.038194    1.847381
     11          6           0        8.805878    1.935856    1.708787
     12          6           0        5.527959    4.009670    1.104696
     13          6           0        5.942923    5.385823    1.633242
     14          1           0        5.093486    6.531729    1.345659
     15          7           0        5.048759   -1.660470    2.124686
     16          6           0        5.618746   -0.956621    3.132157
     17          6           0        5.319360   -1.704592    4.372152
     18          6           0        4.692454   -2.998301    3.983047
     19          6           0        4.832292   -2.951971    2.549982
     20          6           0        5.580785   -1.162159    5.743711
     21          6           0        4.076094   -4.106036    4.777499
     22          8           0        3.800818   -5.242389    4.260295
     23          6           0        3.881939   -3.853030    6.216712
     24          7           0        5.070375   -3.171182   -0.498802
     25          6           0        4.853154   -4.198594    0.329584
     26          6           0        4.612653   -5.470126   -0.428905
     27          6           0        4.469419   -5.049610   -1.962660
     28          6           0        4.749796   -3.533375   -1.818818
     29          6           0        5.699404   -6.545661   -0.293969
     30          6           0        3.179495   -5.494814   -2.696354
     31          6           0        1.984577   -4.769138   -2.119583
     32          7           0        5.179806   -0.582084   -1.874087
     33          6           0        5.102078   -1.405905   -3.006320
     34          6           0        5.330971   -0.546520   -4.182387
     35          6           0        5.543778    0.722784   -3.648135
     36          6           0        5.479564    0.655368   -2.227000
     37          6           0        5.381714   -0.982418   -5.535846
     38          6           0        5.834903    2.115732   -3.946126
     39          8           0        5.907769    2.784904   -4.977820
     40          6           0        6.214488    2.850509   -2.585300
     41          6           0        5.436681    4.137131   -2.531191
     42          8           0        4.193512    4.129051   -2.422416
     43          8           0        6.286393    5.164127   -2.376888
     44          6           0        5.576917    6.468192   -2.286260
     45          1           0        6.976019    0.474225    3.894799
     46          1           0        4.532114   -4.978789    2.098701
     47          1           0        4.769295   -3.174511   -3.911917
     48          1           0        7.472216    3.685209    0.171872
     49          1           0        7.166741    2.831855    2.841314
     50          1           0        9.140722    2.153045    0.694573
     51          1           0        8.865321    0.865750    1.908365
     52          1           0        9.429372    2.416438    2.463157
     53          1           0        5.064717    3.598431    2.001552
     54          1           0        4.810480    4.136469    0.293233
     55          1           0        6.981836    5.609734    1.389453
     56          1           0        5.921080    5.354096    2.722607
     57          1           0        6.197140   -0.264705    5.708687
     58          1           0        6.197376   -1.895016    6.263754
     59          1           0        4.659201   -0.995065    6.301470
     60          1           0        4.845512   -3.632501    6.676541
     61          1           0        3.348527   -4.719891    6.605138
     62          1           0        3.271942   -2.957494    6.338642
     63          1           0        3.691573   -5.951619   -0.103018
     64          1           0        5.276271   -5.453592   -2.574593
     65          1           0        5.326417   -7.501013    0.076014
     66          1           0        6.482528   -6.153958    0.354550
     67          1           0        6.256697   -6.749539   -1.207903
     68          1           0        3.008723   -6.560810   -2.549951
     69          1           0        3.208709   -5.307979   -3.769895
     70          1           0        1.731218   -5.371710   -1.248062
     71          1           0        1.163977   -4.756879   -2.837688
     72          1           0        2.256749   -3.776166   -1.761231
     73          1           0        4.815751   -0.251412   -6.113155
     74          1           0        4.964079   -1.982996   -5.645521
     75          1           0        6.456255   -0.956363   -5.716228
     76          1           0        7.289961    3.023094   -2.611663
     77          1           0        5.989871    7.112871   -3.062206
     78          1           0        5.668244    6.799398   -1.251675
     79          1           0        4.521980    6.463240   -2.562708
     80         12           0       -5.241353    1.163953    0.495361
     81          6           0       -5.813992   -2.069074   -0.953335
     82          6           0       -4.194551    2.193009   -2.583574
     83          6           0       -4.303877    3.884178    1.832862
     84          6           0       -5.232628   -0.389171    3.615211
     85          7           0       -5.072583    0.106389   -1.439928
     86          6           0       -5.377477   -1.103550   -1.884279
     87          6           0       -5.281495   -1.265966   -3.425055
     88          6           0       -4.238855   -0.082528   -3.727120
     89          6           0       -4.538757    0.818649   -2.531036
     90          6           0       -2.786997   -0.523038   -3.641090
     91          6           0       -6.656206   -1.016541   -4.139170
     92          6           0       -6.709707   -1.458032   -5.603399
     93          1           0       -7.960752   -2.006401   -6.119774
     94          7           0       -4.843865    2.927520   -0.323408
     95          6           0       -4.453773    3.165784   -1.593190
     96          6           0       -4.270851    4.622174   -1.691315
     97          6           0       -4.425266    5.206995   -0.331595
     98          6           0       -4.511593    4.000233    0.466138
     99          6           0       -4.058586    5.329380   -2.998310
    100          6           0       -4.472849    6.618693    0.169459
    101          8           0       -4.374250    6.893939    1.417401
    102          6           0       -4.544344    7.674518   -0.851129
    103          7           0       -4.617204    1.647853    2.418541
    104          6           0       -4.316783    2.916032    2.749293
    105          6           0       -4.162053    3.067962    4.243735
    106          6           0       -4.661051    1.683743    4.870247
    107          6           0       -4.946461    0.904660    3.567580
    108          6           0       -2.747798    3.369894    4.738821
    109          6           0       -5.779190    1.760475    5.945679
    110          6           0       -7.069773    2.232473    5.315604
    111          7           0       -5.658523   -0.818143    1.247255
    112          6           0       -5.569152   -1.258957    2.585829
    113          6           0       -5.836745   -2.711824    2.584525
    114          6           0       -6.042167   -3.022118    1.231747
    115          6           0       -5.891863   -1.849448    0.443245
    116          6           0       -5.818881   -3.562009    3.726011
    117          6           0       -6.341493   -4.077044    0.290356
    118          8           0       -6.654048   -5.263230    0.385361
    119          6           0       -6.082330   -3.531046   -1.179716
    120          6           0       -7.267002   -3.902676   -2.028797
    121          8           0       -8.387086   -3.413114   -1.799969
    122          8           0       -6.841525   -4.600543   -3.097591
    123          6           0       -7.979325   -4.982449   -3.975874
    124          1           0       -3.635140    2.555134   -3.446606
    125          1           0       -4.086690    4.817382    2.357694
    126          1           0       -5.344781   -0.927891    4.558542
    127          1           0       -4.874910   -2.213580   -3.757480
    128          1           0       -4.477662    0.426413   -4.657335
    129          1           0       -2.693886   -1.534296   -3.273892
    130          1           0       -2.308609    0.171313   -2.962807
    131          1           0       -2.294086   -0.387734   -4.608069
    132          1           0       -6.804437    0.063916   -4.263168
    133          1           0       -7.457687   -1.475689   -3.593793
    134          1           0       -5.866764   -2.107475   -5.869166
    135          1           0       -6.579253   -0.577004   -6.236480
    136          1           0       -3.825303    4.623076   -3.804603
    137          1           0       -3.149199    5.930772   -2.892461
    138          1           0       -4.889294    5.987995   -3.260622
    139          1           0       -3.683049    7.598307   -1.510534
    140          1           0       -4.660614    8.608420   -0.297794
    141          1           0       -5.431408    7.502491   -1.470919
    142          1           0       -4.787857    3.868902    4.617874
    143          1           0       -3.846403    1.151296    5.382779
    144          1           0       -2.683424    4.299196    5.335758
    145          1           0       -2.089955    3.422332    3.881485
    146          1           0       -2.288991    2.582392    5.334242
    147          1           0       -5.519508    2.496923    6.710114
    148          1           0       -5.955719    0.818020    6.453238
    149          1           0       -6.955317    3.320527    5.304150
    150          1           0       -7.923404    1.931723    5.919684
    151          1           0       -7.144798    1.897927    4.274396
    152          1           0       -6.679898   -4.211893    3.643690
    153          1           0       -5.840156   -2.987711    4.649863
    154          1           0       -4.860320   -4.066632    3.578365
    155          1           0       -5.160233   -3.987930   -1.541049
    156          1           0       -7.941049   -6.069813   -4.093642
    157          1           0       -7.867537   -4.372342   -4.891856
    158          1           0       -8.981196   -4.847145   -3.585493
 ---------------------------------------------------------------------

 SCF Done:  E(RCAM-B3LYP) =  -4069.81208419     A.U. after   19 cycles

 Excitation energies and oscillator strengths:

 Excited State   1:      Singlet-A      1.6640 eV  745.08 nm  f=0.1479  <S**2>=0.000
     309 -> 315        0.11202
     310 -> 316        0.12885
     311 -> 313        0.44788
     312 -> 314        0.52036
 This state for optimization and/or second-order correction.
 Total Energy, E(TD-HF/TD-DFT) =  -4069.75093159
 Copying the excited state density for this state as the 1-particle RhoCI density.

 Excited State   2:      Singlet-A      1.6891 eV  734.04 nm  f=0.5579  <S**2>=0.000
     309 -> 315        0.13475
     310 -> 316       -0.11544
     311 -> 313        0.51919
     312 -> 314       -0.44702

 Excited State   3:      Singlet-A      2.1859 eV  567.21 nm  f=0.0653  <S**2>=0.000
     309 -> 313        0.20522
     310 -> 314        0.60926
     312 -> 316       -0.25798

 Excited State   4:      Singlet-A      2.1932 eV  565.30 nm  f=0.1272  <S**2>=0.000
     309 -> 313        0.60713
     310 -> 314       -0.20345
     311 -> 315       -0.26412

 Excited State   5:      Singlet-A      2.4799 eV  499.96 nm  f=0.0000  <S**2>=0.000
     312 -> 313        0.70709

 The electronic state is 1-A.
 Alpha  occ. eigenvalues --  -46.87888 -46.87489 -19.26419 -19.26233 -19.19166
 Alpha  occ. eigenvalues --  -19.19035 -19.18883 -19.18556 -19.18296 -19.17893
 Alpha  occ. eigenvalues --  -14.42538 -14.42318 -14.41537 -14.41200 -14.39492
 Alpha  occ. eigenvalues --  -14.39176 -14.38688 -14.38432 -10.39220 -10.38963
 Alpha  occ. eigenvalues --  -10.35515 -10.35232 -10.34515 -10.34073 -10.31814
 Alpha  occ. eigenvalues --  -10.31656 -10.31502 -10.31121 -10.30992 -10.30835
 Alpha  occ. eigenvalues --  -10.30673 -10.30604 -10.30285 -10.30239 -10.30183
 Alpha  occ. eigenvalues --  -10.30012 -10.29982 -10.29757 -10.29730 -10.29343
 Alpha  occ. eigenvalues --  -10.29254 -10.29231 -10.28824 -10.28584 -10.28532
 Alpha  occ. eigenvalues --  -10.28505 -10.28460 -10.28225 -10.28193 -10.27920
 Alpha  occ. eigenvalues --  -10.27896 -10.27822 -10.27816 -10.27678 -10.27572
 Alpha  occ. eigenvalues --  -10.27561 -10.27510 -10.27498 -10.27464 -10.27429
 Alpha  occ. eigenvalues --  -10.27315 -10.27293 -10.27288 -10.27275 -10.27202
 Alpha  occ. eigenvalues --  -10.26901 -10.26768 -10.26527 -10.26471 -10.26306
 Alpha  occ. eigenvalues --  -10.26257 -10.26247 -10.26113 -10.26073 -10.25989
 Alpha  occ. eigenvalues --  -10.25778 -10.25745 -10.25702 -10.25481 -10.25357
 Alpha  occ. eigenvalues --  -10.24940 -10.24872 -10.24771 -10.24698 -10.24661
 Alpha  occ. eigenvalues --  -10.24534  -3.16631  -3.16239  -1.91512  -1.91122
 Alpha  occ. eigenvalues --   -1.91099  -1.90941  -1.90710  -1.90547  -1.16769
 Alpha  occ. eigenvalues --   -1.16525  -1.08758  -1.08505  -1.07281  -1.06820
 Alpha  occ. eigenvalues --   -1.06809  -1.06787  -1.04671  -1.04314  -1.03848
 Alpha  occ. eigenvalues --   -1.03494  -1.03328  -1.02876  -1.02504  -1.01944
 Alpha  occ. eigenvalues --   -0.92074  -0.91821  -0.89605  -0.89363  -0.89265
 Alpha  occ. eigenvalues --   -0.88953  -0.88364  -0.88106  -0.87985  -0.87759
 Alpha  occ. eigenvalues --   -0.87629  -0.87507  -0.87359  -0.86927  -0.85061
 Alpha  occ. eigenvalues --   -0.84820  -0.84017  -0.83774  -0.83042  -0.82770
 Alpha  occ. eigenvalues --   -0.82732  -0.82478  -0.81695  -0.81453  -0.80693
 Alpha  occ. eigenvalues --   -0.80285  -0.78890  -0.78449  -0.77305  -0.77021
 Alpha  occ. eigenvalues --   -0.76976  -0.76750  -0.76018  -0.75658  -0.74977
 Alpha  occ. eigenvalues --   -0.74685  -0.72871  -0.72531  -0.71758  -0.71420
 Alpha  occ. eigenvalues --   -0.69985  -0.69658  -0.68956  -0.68651  -0.67733
 Alpha  occ. eigenvalues --   -0.67442  -0.67292  -0.67030  -0.65372  -0.65099
 Alpha  occ. eigenvalues --   -0.64952  -0.64710  -0.64613  -0.64498  -0.64353
 Alpha  occ. eigenvalues --   -0.64077  -0.62411  -0.62143  -0.60525  -0.60172
 Alpha  occ. eigenvalues --   -0.59889  -0.59608  -0.59080  -0.58835  -0.58600
 Alpha  occ. eigenvalues --   -0.58270  -0.57703  -0.57406  -0.57400  -0.57093
 Alpha  occ. eigenvalues --   -0.56410  -0.56089  -0.56032  -0.55741  -0.55609
 Alpha  occ. eigenvalues --   -0.55434  -0.55287  -0.55131  -0.54626  -0.54375
 Alpha  occ. eigenvalues --   -0.53973  -0.53723  -0.53390  -0.53308  -0.53072
 Alpha  occ. eigenvalues --   -0.53018  -0.52975  -0.52833  -0.52743  -0.52521
 Alpha  occ. eigenvalues --   -0.52474  -0.52305  -0.52043  -0.51730  -0.51700
 Alpha  occ. eigenvalues --   -0.51479  -0.51296  -0.51050  -0.50647  -0.50287
 Alpha  occ. eigenvalues --   -0.50107  -0.49997  -0.49811  -0.49723  -0.49598
 Alpha  occ. eigenvalues --   -0.49316  -0.49312  -0.49183  -0.49023  -0.48927
 Alpha  occ. eigenvalues --   -0.48696  -0.48546  -0.48528  -0.48392  -0.48261
 Alpha  occ. eigenvalues --   -0.48169  -0.47780  -0.47425  -0.47383  -0.46949
 Alpha  occ. eigenvalues --   -0.46886  -0.46635  -0.46554  -0.46455  -0.46375
 Alpha  occ. eigenvalues --   -0.46262  -0.46108  -0.45951  -0.45937  -0.45677
 Alpha  occ. eigenvalues --   -0.45278  -0.45092  -0.44688  -0.44583  -0.44365
 Alpha  occ. eigenvalues --   -0.44298  -0.44235  -0.44170  -0.44113  -0.43960
 Alpha  occ. eigenvalues --   -0.43931  -0.43767  -0.43608  -0.43464  -0.43418
 Alpha  occ. eigenvalues --   -0.43224  -0.43121  -0.42818  -0.42796  -0.42753
 Alpha  occ. eigenvalues --   -0.42743  -0.42422  -0.42097  -0.41832  -0.41800
 Alpha  occ. eigenvalues --   -0.41610  -0.41513  -0.41297  -0.41224  -0.40945
 Alpha  occ. eigenvalues --   -0.40891  -0.40820  -0.40650  -0.40560  -0.40536
 Alpha  occ. eigenvalues --   -0.40363  -0.40298  -0.40060  -0.39516  -0.39329
 Alpha  occ. eigenvalues --   -0.38541  -0.38232  -0.37821  -0.37489  -0.37401
 Alpha  occ. eigenvalues --   -0.37348  -0.37127  -0.37021  -0.36833  -0.36651
 Alpha  occ. eigenvalues --   -0.36291  -0.36083  -0.34381  -0.34088  -0.33908
 Alpha  occ. eigenvalues --   -0.33728  -0.33284  -0.33007  -0.31412  -0.31126
 Alpha  occ. eigenvalues --   -0.31117  -0.30806  -0.30156  -0.29801  -0.29544
 Alpha  occ. eigenvalues --   -0.29428  -0.29147  -0.29039  -0.24173  -0.23865
 Alpha  occ. eigenvalues --   -0.21221  -0.20944
 Alpha virt. eigenvalues --   -0.08869  -0.08616  -0.01836  -0.01520  -0.00143
 Alpha virt. eigenvalues --    0.00152   0.02091   0.02362   0.03014   0.03385
 Alpha virt. eigenvalues --    0.04638   0.04907   0.04963   0.05297   0.06113

 Mulliken charges:
               1
     1  Mg   0.838707
     2  C   -0.003095
     3  C   -0.094059
     4  C   -0.045633
     5  C   -0.064189
     6  N   -0.256858
     7  C   -0.052406
     8  C   -0.014052
     9  C   -0.087061
    10  C    0.046538
    11  C    0.104756
    12  C    0.053428
    13  C   -0.072140
    14  H    0.036781
    15  N   -0.433233
    16  C    0.168671
    17  C   -0.177031
    18  C   -0.003750
    19  C    0.148903
    20  C    0.110146
    21  C    0.012492
    22  O   -0.248837
    23  C    0.062431
    24  N   -0.341143
    25  C    0.041343
    26  C   -0.028410
    27  C   -0.023966
    28  C    0.074782
    29  C    0.076022
    30  C    0.035114
    31  C   -0.004543
    32  N   -0.310217
    33  C    0.079987
    34  C   -0.170718
    35  C    0.007999
    36  C    0.082533
    37  C    0.127578
    38  C    0.045356
    39  O   -0.189296
    40  C   -0.005040
    41  C    0.212794
    42  O   -0.258020
    43  O   -0.304507
    44  C    0.157981
    45  H   -0.017324
    46  H   -0.016257
    47  H   -0.041838
    48  H    0.000893
    49  H   -0.003758
    50  H    0.025476
    51  H    0.016496
    52  H    0.016920
    53  H    0.011475
    54  H    0.043865
    55  H    0.017771
    56  H    0.018300
    57  H    0.006082
    58  H    0.027179
    59  H    0.039525
    60  H    0.037460
    61  H    0.036161
    62  H    0.031117
    63  H    0.017283
    64  H    0.009539
    65  H    0.023859
    66  H    0.012541
    67  H    0.004835
    68  H    0.007270
    69  H    0.004066
    70  H    0.010348
    71  H    0.016875
    72  H    0.028362
    73  H    0.046233
    74  H    0.008811
    75  H    0.046306
    76  H    0.035360
    77  H    0.042830
    78  H    0.047079
    79  H    0.052724
    80  Mg   0.837975
    81  C   -0.016779
    82  C   -0.086660
    83  C   -0.045322
    84  C   -0.065187
    85  N   -0.254536
    86  C   -0.049874
    87  C   -0.015093
    88  C   -0.090401
    89  C    0.045220
    90  C    0.113743
    91  C    0.062533
    92  C   -0.077652
    93  H    0.034191
    94  N   -0.423799
    95  C    0.162647
    96  C   -0.172503
    97  C   -0.007900
    98  C    0.152758
    99  C    0.098650
   100  C    0.015794
   101  O   -0.254007
   102  C    0.061099
   103  N   -0.349981
   104  C    0.037608
   105  C   -0.019742
   106  C   -0.034540
   107  C    0.088709
   108  C    0.073954
   109  C    0.034905
   110  C   -0.007547
   111  N   -0.323981
   112  C    0.078133
   113  C   -0.163391
   114  C    0.002201
   115  C    0.095965
   116  C    0.131457
   117  C    0.042210
   118  O   -0.188539
   119  C    0.000998
   120  C    0.211235
   121  O   -0.251150
   122  O   -0.305726
   123  C    0.152132
   124  H   -0.016788
   125  H   -0.016173
   126  H   -0.041231
   127  H   -0.001248
   128  H   -0.004062
   129  H    0.021223
   130  H    0.017110
   131  H    0.017619
   132  H    0.013955
   133  H    0.037310
   134  H    0.020553
   135  H    0.019912
   136  H    0.010114
   137  H    0.028600
   138  H    0.039109
   139  H    0.039267
   140  H    0.035597
   141  H    0.033723
   142  H    0.014034
   143  H    0.011391
   144  H    0.024185
   145  H    0.012418
   146  H    0.004113
   147  H    0.005373
   148  H    0.003317
   149  H    0.010703
   150  H    0.017583
   151  H    0.030613
   152  H    0.045540
   153  H    0.007830
   154  H    0.047328
   155  H    0.034745
   156  H    0.043459
   157  H    0.049537
   158  H    0.053436
 Sum of Mulliken charges =  -0.00000

 Dipole moment (field-independent basis, Debye):
    X=              4.8213    Y=              2.3744    Z=              1.0777  Tot=              5.4812
 Quadrupole moment (field-independent basis, Debye-Ang):
   XX=           -522.1297   YY=           -528.8457   ZZ=           -468.5578
   XY=            -15.1483   XZ=             44.2365   YZ=             23.7147

 Normal termination of Gaussian 16 at Sat Sep  4 01:27:08 2021.
