 Gaussian 16, Revision A.03,
 Gaussian 16:  ES64L-G16RevA.03 25-Dec-2016

 -----------------------------------
 #p cam-b3lyp/Def2SVP td=(nstates=5)
 -----------------------------------

 --------------------------------
 TDDFT excited states in gaussian
 --------------------------------
 Symbolic Z-matrix:
 Charge =  0 Multiplicity = 1

                         Standard orientation:
 ---------------------------------------------------------------------
 Center     Atomic      Atomic             Coordinates (Angstroms)
 Number     Number       Type             X           Y           Z
 ---------------------------------------------------------------------
      1         12           0       15.615964   -0.795081    0.234501
      2          6           0       15.871648    2.217250   -1.681928
      3          6           0       16.468202    1.051769    2.974191
      4          6           0       15.840907   -3.509159    1.859247
      5          6           0       15.904682   -2.551167   -2.761907
      6          7           0       16.084087    1.353804    0.487089
      7          6           0       16.088293    2.413038   -0.316140
      8          6           0       16.269845    3.762238    0.441535
      9          6           0       16.999553    3.219349    1.751037
     10          6           0       16.458665    1.800446    1.759933
     11          6           0       18.518568    3.165167    1.623921
     12          6           0       14.900760    4.438781    0.787406
     13          6           0       14.988603    5.901883    1.231217
     14          1           0       13.926203    6.816782    0.841840
     15          7           0       15.605284   -1.127139    2.181929
     16          6           0       15.968343   -0.256164    3.153976
     17          6           0       15.784341   -0.973801    4.433750
     18          6           0       15.466144   -2.393934    4.117418
     19          6           0       15.652916   -2.406320    2.689013
     20          6           0       15.865570   -0.304620    5.771416
     21          6           0       15.068638   -3.558058    4.968849
     22          8           0       15.065250   -4.756564    4.523713
     23          6           0       14.764458   -3.265406    6.381248
     24          7           0       16.060375   -2.755159   -0.329614
     25          6           0       16.033737   -3.752493    0.561229
     26          6           0       16.103394   -5.089962   -0.114243
     27          6           0       15.937975   -4.805245   -1.676717
     28          6           0       15.880631   -3.258379   -1.629944
     29          6           0       17.388718   -5.894249    0.124664
     30          6           0       14.805421   -5.563367   -2.413598
     31          6           0       13.459596   -5.079777   -1.921668
     32          7           0       15.670165   -0.293076   -1.876446
     33          6           0       15.818437   -1.181970   -2.950948
     34          6           0       15.907086   -0.367130   -4.176609
     35          6           0       15.820307    0.948431   -3.725371
     36          6           0       15.712355    0.955920   -2.305306
     37          6           0       16.106901   -0.863787   -5.494880
     38          6           0       15.818442    2.350427   -4.110415
     39          8           0       15.789521    2.954989   -5.183336
     40          6           0       15.974215    3.231949   -2.793418
     41          6           0       14.937199    4.320404   -2.849750
     42          8           0       13.721192    4.049940   -2.775309
     43          8           0       15.539848    5.514540   -2.742994
     44          6           0       14.564242    6.637027   -2.762210
     45          1           0       16.954193    1.478668    3.853686
     46          1           0       15.813269   -4.473794    2.370280
     47          1           0       15.910739   -3.032760   -3.741440
     48          1           0       16.906832    4.486592   -0.066386
     49          1           0       16.679386    3.752549    2.645974
     50          1           0       18.841421    3.387158    0.606863
     51          1           0       18.797497    2.147626    1.898334
     52          1           0       18.992324    3.814684    2.360440
     53          1           0       14.499124    3.992719    1.697229
     54          1           0       14.207533    4.357203   -0.050512
     55          1           0       15.964709    6.330128    1.001580
     56          1           0       14.928297    5.932993    2.319149
     57          1           0       16.276211    0.701153    5.691802
     58          1           0       16.602463   -0.853256    6.357673
     59          1           0       14.906978   -0.307242    6.290478
     60          1           0       15.638192   -2.813659    6.851421
     61          1           0       14.413350   -4.201751    6.813487
     62          1           0       13.972157   -2.517499    6.424165
     63          1           0       15.294023   -5.738626    0.218292
     64          1           0       16.837643   -5.061602   -2.236674
     65          1           0       17.213900   -6.883198    0.549071
     66          1           0       18.041746   -5.303242    0.766189
     67          1           0       18.014665   -6.028194   -0.757190
     68          1           0       14.861046   -6.630024   -2.198901
     69          1           0       14.839019   -5.440783   -3.496232
     70          1           0       13.304841   -5.668357   -1.018088
     71          1           0       12.686358   -5.289570   -2.661466
     72          1           0       13.497357   -4.031379   -1.625153
     73          1           0       15.422219   -0.309498   -6.136708
     74          1           0       15.918366   -1.935863   -5.546930
     75          1           0       17.157509   -0.616719   -5.646662
     76          1           0       16.987858    3.631427   -2.801676
     77          1           0       14.861699    7.307056   -3.568940
     78          1           0       14.538905    7.042911   -1.750765
     79          1           0       13.547446    6.386775   -3.066904
     80         12           0      -16.132132   -0.513916   -0.223327
     81          6           0      -13.748019    1.867811    1.010555
     82          6           0      -18.568785    1.734867    0.576854
     83          6           0      -18.278774   -2.756108   -0.880520
     84          6           0      -13.672201   -2.955795    0.139510
     85          7           0      -16.044554    1.506701    0.672049
     86          6           0      -15.078867    2.333889    1.042922
     87          6           0      -15.559879    3.766771    1.396558
     88          6           0      -17.082903    3.423244    1.772378
     89          6           0      -17.263897    2.161901    0.930397
     90          6           0      -17.273362    3.053271    3.233956
     91          6           0      -15.476884    4.744366    0.172056
     92          6           0      -15.635919    6.226022    0.520118
     93          1           0      -14.864180    7.206077   -0.239090
     94          7           0      -18.070174   -0.359086   -0.621547
     95          6           0      -18.903040    0.631287   -0.238445
     96          6           0      -20.227864    0.269351   -0.765707
     97          6           0      -20.142985   -1.096686   -1.350058
     98          6           0      -18.803273   -1.473470   -0.945951
     99          6           0      -21.393260    1.215516   -0.757294
    100          6           0      -21.112382   -1.931375   -2.130915
    101          8           0      -20.914171   -3.181449   -2.333093
    102          6           0      -22.345704   -1.263601   -2.571914
    103          7           0      -16.068279   -2.590784   -0.153383
    104          6           0      -17.123268   -3.328338   -0.541879
    105          6           0      -16.752727   -4.786917   -0.666934
    106          6           0      -15.161632   -4.840547   -0.514786
    107          6           0      -14.884566   -3.348749   -0.226434
    108          6           0      -17.393360   -5.726015    0.354867
    109          6           0      -14.368337   -5.532334   -1.657059
    110          6           0      -14.473517   -4.716969   -2.925714
    111          7           0      -14.029042   -0.541674    0.270948
    112          6           0      -13.196373   -1.675636    0.392833
    113          6           0      -11.877340   -1.199307    0.857282
    114          6           0      -12.042226    0.187016    0.996565
    115          6           0      -13.376066    0.546542    0.663211
    116          6           0      -10.748318   -2.019440    1.137991
    117          6           0      -11.394233    1.426657    1.360000
    118          8           0      -10.243112    1.753988    1.645490
    119          6           0      -12.505445    2.553628    1.506821
    120          6           0      -12.032653    3.771945    0.762051
    121          8           0      -11.899855    3.745039   -0.474170
    122          8           0      -12.024410    4.824845    1.599729
    123          6           0      -11.573043    6.059511    0.904259
    124          1           0      -19.421237    2.269481    0.996861
    125          1           0      -18.948053   -3.556302   -1.204919
    126          1           0      -12.824176   -3.642574    0.182650
    127          1           0      -15.059897    4.217164    2.245647
    128          1           0      -17.758630    4.205749    1.437043
    129          1           0      -16.330816    2.967383    3.753923
    130          1           0      -17.792191    2.103610    3.231810
    131          1           0      -17.948731    3.764578    3.717937
    132          1           0      -16.363573    4.603471   -0.459347
    133          1           0      -14.564265    4.596924   -0.372016
    134          1           0      -15.536716    6.409433    1.596902
    135          1           0      -16.660387    6.528528    0.289987
    136          1           0      -21.201546    2.084126   -0.115287
    137          1           0      -22.224215    0.694982   -0.269020
    138          1           0      -21.702971    1.511251   -1.761922
    139          1           0      -22.879190   -0.881276   -1.704916
    140          1           0      -22.869422   -1.995559   -3.189839
    141          1           0      -22.074233   -0.395229   -3.182533
    142          1           0      -17.025780   -5.173129   -1.641298
    143          1           0      -14.856786   -5.396264    0.384144
    144          1           0      -17.970282   -6.548017   -0.109396
    145          1           0      -18.025576   -5.139457    1.008161
    146          1           0      -16.700324   -6.186836    1.056684
    147          1           0      -14.801120   -6.510655   -1.880101
    148          1           0      -13.321001   -5.689573   -1.421813
    149          1           0      -15.431077   -5.037884   -3.346643
    150          1           0      -13.649728   -4.947066   -3.598378
    151          1           0      -14.554418   -3.647222   -2.700454
    152          1           0       -9.887761   -1.520921    0.712043
    153          1           0      -10.872082   -3.019928    0.728749
    154          1           0      -10.772501   -2.017146    2.230996
    155          1           0      -12.634681    2.749469    2.571957
    156          1           0      -10.726530    6.455613    1.473650
    157          1           0      -12.470162    6.701648    0.823141
    158          1           0      -11.132510    5.947984   -0.079586
 ---------------------------------------------------------------------

 SCF Done:  E(RCAM-B3LYP) =  -4069.81174991     A.U. after   19 cycles

 Excitation energies and oscillator strengths:

 Excited State   1:      Singlet-A      1.6756 eV  739.94 nm  f=0.3884  <S**2>=0.000
     309 -> 315        0.17347
     311 -> 313        0.68549
     309 <- 315        0.10455
 This state for optimization and/or second-order correction.
 Total Energy, E(TD-HF/TD-DFT) =  -4069.75017279
 Copying the excited state density for this state as the 1-particle RhoCI density.

 Excited State   2:      Singlet-A      1.6799 eV  738.05 nm  f=0.3935  <S**2>=0.000
     310 -> 316        0.17541
     312 -> 314        0.68515
     310 <- 316        0.10504

 Excited State   3:      Singlet-A      2.1861 eV  567.14 nm  f=0.0945  <S**2>=0.000
     309 -> 313        0.64201
     311 -> 315       -0.27295

 Excited State   4:      Singlet-A      2.1925 eV  565.49 nm  f=0.1055  <S**2>=0.000
     310 -> 314        0.64025
     312 -> 316       -0.27810

 Excited State   5:      Singlet-A      3.0449 eV  407.18 nm  f=0.0000  <S**2>=0.000
     312 -> 313        0.70709

 The electronic state is 1-A.
 Alpha  occ. eigenvalues --  -46.87723 -46.87660 -19.26346 -19.26207 -19.19156
 Alpha  occ. eigenvalues --  -19.18942 -19.18742 -19.18714 -19.18097 -19.18049
 Alpha  occ. eigenvalues --  -14.42498 -14.42377 -14.41377 -14.41359 -14.39352
 Alpha  occ. eigenvalues --  -14.39329 -14.38599 -14.38513 -10.39087 -10.39002
 Alpha  occ. eigenvalues --  -10.35391 -10.35376 -10.34316 -10.34227 -10.31751
 Alpha  occ. eigenvalues --  -10.31602 -10.31332 -10.31309 -10.31024 -10.30836
 Alpha  occ. eigenvalues --  -10.30497 -10.30434 -10.30397 -10.30360 -10.30141
 Alpha  occ. eigenvalues --  -10.30135 -10.29894 -10.29849 -10.29558 -10.29437
 Alpha  occ. eigenvalues --  -10.29400 -10.29182 -10.28719 -10.28675 -10.28653
 Alpha  occ. eigenvalues --  -10.28460 -10.28405 -10.28292 -10.28142 -10.28045
 Alpha  occ. eigenvalues --  -10.28000 -10.27720 -10.27669 -10.27655 -10.27518
 Alpha  occ. eigenvalues --  -10.27511 -10.27483 -10.27468 -10.27465 -10.27431
 Alpha  occ. eigenvalues --  -10.27409 -10.27380 -10.27376 -10.27330 -10.27085
 Alpha  occ. eigenvalues --  -10.27049 -10.26691 -10.26627 -10.26415 -10.26337
 Alpha  occ. eigenvalues --  -10.26167 -10.26135 -10.26111 -10.26029 -10.25947
 Alpha  occ. eigenvalues --  -10.25934 -10.25848 -10.25773 -10.25400 -10.25370
 Alpha  occ. eigenvalues --  -10.24872 -10.24760 -10.24726 -10.24715 -10.24690
 Alpha  occ. eigenvalues --  -10.24610  -3.16466  -3.16410  -1.91347  -1.91293
 Alpha  occ. eigenvalues --   -1.90934  -1.90881  -1.90776  -1.90718  -1.16639
 Alpha  occ. eigenvalues --   -1.16556  -1.08656  -1.08554  -1.07143  -1.06966
 Alpha  occ. eigenvalues --   -1.06941  -1.06565  -1.04508  -1.04495  -1.03688
 Alpha  occ. eigenvalues --   -1.03663  -1.03161  -1.03039  -1.02338  -1.02111
 Alpha  occ. eigenvalues --   -0.91987  -0.91899  -0.89494  -0.89447  -0.89152
 Alpha  occ. eigenvalues --   -0.89115  -0.88220  -0.88215  -0.87798  -0.87793
 Alpha  occ. eigenvalues --   -0.87684  -0.87600  -0.87201  -0.87120  -0.85000
 Alpha  occ. eigenvalues --   -0.84908  -0.83875  -0.83864  -0.82931  -0.82894
 Alpha  occ. eigenvalues --   -0.82652  -0.82575  -0.81594  -0.81511  -0.80523
 Alpha  occ. eigenvalues --   -0.80442  -0.78725  -0.78635  -0.77146  -0.77144
 Alpha  occ. eigenvalues --   -0.76898  -0.76861  -0.75850  -0.75838  -0.74827
 Alpha  occ. eigenvalues --   -0.74803  -0.72702  -0.72699  -0.71601  -0.71581
 Alpha  occ. eigenvalues --   -0.69835  -0.69756  -0.68827  -0.68800  -0.67601
 Alpha  occ. eigenvalues --   -0.67568  -0.67199  -0.67145  -0.65271  -0.65213
 Alpha  occ. eigenvalues --   -0.64780  -0.64770  -0.64653  -0.64547  -0.64203
 Alpha  occ. eigenvalues --   -0.64197  -0.62276  -0.62223  -0.60370  -0.60339
 Alpha  occ. eigenvalues --   -0.59797  -0.59731  -0.58993  -0.58915  -0.58431
 Alpha  occ. eigenvalues --   -0.58425  -0.57552  -0.57510  -0.57236  -0.57236
 Alpha  occ. eigenvalues --   -0.56237  -0.56204  -0.55903  -0.55884  -0.55451
 Alpha  occ. eigenvalues --   -0.55447  -0.55267  -0.55247  -0.54486  -0.54450
 Alpha  occ. eigenvalues --   -0.53913  -0.53821  -0.53227  -0.53226  -0.53148
 Alpha  occ. eigenvalues --   -0.53141  -0.52901  -0.52840  -0.52683  -0.52668
 Alpha  occ. eigenvalues --   -0.52399  -0.52365  -0.51883  -0.51843  -0.51658
 Alpha  occ. eigenvalues --   -0.51542  -0.51200  -0.51123  -0.50499  -0.50475
 Alpha  occ. eigenvalues --   -0.49980  -0.49960  -0.49867  -0.49846  -0.49487
 Alpha  occ. eigenvalues --   -0.49442  -0.49202  -0.49142  -0.49104  -0.49024
 Alpha  occ. eigenvalues --   -0.48558  -0.48520  -0.48390  -0.48376  -0.48372
 Alpha  occ. eigenvalues --   -0.48338  -0.47622  -0.47594  -0.47225  -0.47118
 Alpha  occ. eigenvalues --   -0.46724  -0.46709  -0.46554  -0.46482  -0.46286
 Alpha  occ. eigenvalues --   -0.46270  -0.46090  -0.46085  -0.45821  -0.45749
 Alpha  occ. eigenvalues --   -0.45209  -0.45131  -0.44513  -0.44505  -0.44476
 Alpha  occ. eigenvalues --   -0.44434  -0.44127  -0.44077  -0.44071  -0.44016
 Alpha  occ. eigenvalues --   -0.43946  -0.43938  -0.43551  -0.43421  -0.43385
 Alpha  occ. eigenvalues --   -0.43313  -0.42955  -0.42928  -0.42900  -0.42624
 Alpha  occ. eigenvalues --   -0.42581  -0.42553  -0.41963  -0.41936  -0.41669
 Alpha  occ. eigenvalues --   -0.41631  -0.41460  -0.41458  -0.41069  -0.40990
 Alpha  occ. eigenvalues --   -0.40796  -0.40750  -0.40722  -0.40698  -0.40499
 Alpha  occ. eigenvalues --   -0.40493  -0.40226  -0.40158  -0.39424  -0.39368
 Alpha  occ. eigenvalues --   -0.38397  -0.38350  -0.37673  -0.37653  -0.37266
 Alpha  occ. eigenvalues --   -0.37248  -0.37199  -0.37189  -0.36768  -0.36638
 Alpha  occ. eigenvalues --   -0.36216  -0.36119  -0.34253  -0.34213  -0.33858
 Alpha  occ. eigenvalues --   -0.33693  -0.33175  -0.33113  -0.31273  -0.31272
 Alpha  occ. eigenvalues --   -0.30973  -0.30963  -0.29956  -0.29954  -0.29376
 Alpha  occ. eigenvalues --   -0.29327  -0.29249  -0.29211  -0.24036  -0.24007
 Alpha  occ. eigenvalues --   -0.21117  -0.21055
 Alpha virt. eigenvalues --   -0.08792  -0.08701  -0.01684  -0.01677  -0.00029
 Alpha virt. eigenvalues --    0.00015   0.02208   0.02273   0.03201   0.03231
 Alpha virt. eigenvalues --    0.04730   0.04791   0.05169   0.05175   0.06184

 Mulliken charges:
               1
     1  Mg   0.838805
     2  C   -0.002924
     3  C   -0.094067
     4  C   -0.045873
     5  C   -0.063978
     6  N   -0.256759
     7  C   -0.052469
     8  C   -0.014011
     9  C   -0.086997
    10  C    0.046320
    11  C    0.104831
    12  C    0.053459
    13  C   -0.071835
    14  H    0.036260
    15  N   -0.433117
    16  C    0.168441
    17  C   -0.177159
    18  C   -0.004000
    19  C    0.148741
    20  C    0.110199
    21  C    0.012324
    22  O   -0.249659
    23  C    0.062450
    24  N   -0.341131
    25  C    0.041229
    26  C   -0.028141
    27  C   -0.023986
    28  C    0.074869
    29  C    0.076201
    30  C    0.035135
    31  C   -0.004508
    32  N   -0.310463
    33  C    0.080424
    34  C   -0.169701
    35  C    0.008353
    36  C    0.083020
    37  C    0.127300
    38  C    0.046138
    39  O   -0.188458
    40  C   -0.005360
    41  C    0.212868
    42  O   -0.256970
    43  O   -0.304855
    44  C    0.157671
    45  H   -0.017656
    46  H   -0.016873
    47  H   -0.041526
    48  H    0.000885
    49  H   -0.004016
    50  H    0.025429
    51  H    0.016402
    52  H    0.016594
    53  H    0.011281
    54  H    0.044212
    55  H    0.017773
    56  H    0.017952
    57  H    0.005854
    58  H    0.026742
    59  H    0.039635
    60  H    0.037277
    61  H    0.035637
    62  H    0.031616
    63  H    0.016579
    64  H    0.009379
    65  H    0.023164
    66  H    0.012500
    67  H    0.004679
    68  H    0.006299
    69  H    0.004704
    70  H    0.008793
    71  H    0.018218
    72  H    0.029056
    73  H    0.047611
    74  H    0.009102
    75  H    0.045920
    76  H    0.035073
    77  H    0.042885
    78  H    0.046400
    79  H    0.053802
    80  Mg   0.837929
    81  C   -0.016829
    82  C   -0.087795
    83  C   -0.045530
    84  C   -0.064908
    85  N   -0.254573
    86  C   -0.049844
    87  C   -0.015078
    88  C   -0.090504
    89  C    0.045747
    90  C    0.114387
    91  C    0.062523
    92  C   -0.077903
    93  H    0.034968
    94  N   -0.423505
    95  C    0.162921
    96  C   -0.174641
    97  C   -0.007803
    98  C    0.152124
    99  C    0.099376
   100  C    0.015578
   101  O   -0.253186
   102  C    0.061184
   103  N   -0.350082
   104  C    0.037525
   105  C   -0.019849
   106  C   -0.034825
   107  C    0.088956
   108  C    0.073676
   109  C    0.034732
   110  C   -0.007688
   111  N   -0.324126
   112  C    0.078477
   113  C   -0.163094
   114  C    0.002250
   115  C    0.096214
   116  C    0.131472
   117  C    0.042411
   118  O   -0.187799
   119  C    0.000903
   120  C    0.211278
   121  O   -0.250947
   122  O   -0.305666
   123  C    0.152003
   124  H   -0.019678
   125  H   -0.015570
   126  H   -0.040419
   127  H   -0.000665
   128  H   -0.004315
   129  H    0.022431
   130  H    0.014406
   131  H    0.016259
   132  H    0.013936
   133  H    0.037720
   134  H    0.020744
   135  H    0.019586
   136  H    0.008754
   137  H    0.026123
   138  H    0.039820
   139  H    0.038238
   140  H    0.036411
   141  H    0.033927
   142  H    0.014426
   143  H    0.012401
   144  H    0.025146
   145  H    0.011604
   146  H    0.005653
   147  H    0.006266
   148  H    0.003688
   149  H    0.010932
   150  H    0.018016
   151  H    0.030103
   152  H    0.046119
   153  H    0.008554
   154  H    0.046896
   155  H    0.034976
   156  H    0.043915
   157  H    0.049470
   158  H    0.053669
 Sum of Mulliken charges =  -0.00000

 Dipole moment (field-independent basis, Debye):
    X=             -2.0324    Y=              2.1385    Z=              5.5061  Tot=              6.2467
 Quadrupole moment (field-independent basis, Debye-Ang):
   XX=           -341.9389   YY=           -471.9189   ZZ=           -516.2966
   XY=            -36.6012   XZ=             34.5313   YZ=             36.1914

 Normal termination of Gaussian 16 at Sun Sep 12 15:54:28 2021.
