 Gaussian 16, Revision A.03,
 Gaussian 16:  ES64L-G16RevA.03 25-Dec-2016

 -----------------------------------
 #p cam-b3lyp/Def2SVP td=(nstates=5)
 -----------------------------------

 --------------------------------
 TDDFT excited states in gaussian
 --------------------------------
 Symbolic Z-matrix:
 Charge =  0 Multiplicity = 1

                         Standard orientation:
 ---------------------------------------------------------------------
 Center     Atomic      Atomic             Coordinates (Angstroms)
 Number     Number       Type             X           Y           Z
 ---------------------------------------------------------------------
      1         12           0       -4.051330    0.968656   -0.215957
      2          6           0       -4.662500   -2.116592    1.492824
      3          6           0       -4.836775    2.564882    2.695779
      4          6           0       -3.960919    3.703975   -1.817978
      5          6           0       -4.425903   -0.783362   -3.205236
      6          7           0       -4.655242    0.210637    1.774356
      7          6           0       -4.794185   -0.995625    2.315464
      8          6           0       -5.018565   -0.959225    3.856796
      9          6           0       -5.610911    0.514995    3.990199
     10          6           0       -4.968962    1.146279    2.767372
     11          6           0       -7.127152    0.578550    3.836981
     12          6           0       -3.681051   -1.113721    4.656119
     13          6           0       -3.843038   -1.414982    6.148887
     14          1           0       -2.880742   -2.295364    6.794072
     15          7           0       -3.876704    2.827114    0.430952
     16          6           0       -4.231444    3.296558    1.651225
     17          6           0       -3.904287    4.738639    1.644040
     18          6           0       -3.507126    5.108213    0.257039
     19          6           0       -3.794586    3.884616   -0.446917
     20          6           0       -3.937735    5.596080    2.871813
     21          6           0       -2.965849    6.368072   -0.341213
     22          8           0       -2.907225    6.550296   -1.605306
     23          6           0       -2.583141    7.432568    0.603999
     24          7           0       -4.391282    1.453892   -2.217610
     25          6           0       -4.228237    2.704980   -2.661658
     26          6           0       -4.248702    2.759398   -4.160510
     27          6           0       -4.217065    1.242543   -4.658409
     28          6           0       -4.269231    0.540293   -3.279136
     29          6           0       -5.451607    3.477432   -4.787773
     30          6           0       -3.088188    0.849365   -5.644040
     31          6           0       -1.749283    0.916731   -4.944116
     32          7           0       -4.293359   -1.109409   -0.793983
     33          6           0       -4.453324   -1.609733   -2.094276
     34          6           0       -4.688816   -3.060224   -1.973092
     35          6           0       -4.665826   -3.301755   -0.600875
     36          6           0       -4.457014   -2.075390    0.092464
     37          6           0       -4.946102   -3.955452   -3.048641
     38          6           0       -4.793646   -4.306720    0.441988
     39          8           0       -4.885913   -5.535046    0.455942
     40          6           0       -4.918183   -3.561272    1.843639
     41          6           0       -3.969855   -4.230980    2.800443
     42          8           0       -2.735192   -4.156094    2.635020
     43          8           0       -4.648580   -4.648026    3.880233
     44          6           0       -3.761151   -5.295522    4.882916
     45          1           0       -5.288133    3.177235    3.478876
     46          1           0       -3.826532    4.607590   -2.416191
     47          1           0       -4.467219   -1.408839   -4.098837
     48          1           0       -5.741398   -1.685888    4.228142
     49          1           0       -5.266961    1.011207    4.897500
     50          1           0       -7.537499   -0.384128    3.532370
     51          1           0       -7.310866    1.330711    3.069520
     52          1           0       -7.592805    0.958671    4.746624
     53          1           0       -3.183727   -0.145606    4.715130
     54          1           0       -3.045687   -1.874690    4.201623
     55          1           0       -4.861683   -1.724160    6.384855
     56          1           0       -3.707191   -0.485349    6.701633
     57          1           0       -4.425133    5.087230    3.702512
     58          1           0       -4.588745    6.441948    2.651805
     59          1           0       -2.946703    5.956880    3.147512
     60          1           0       -3.451410    7.713483    1.200443
     61          1           0       -2.134695    8.222185    0.002127
     62          1           0       -1.846336    7.035886    1.303078
     63          1           0       -3.372489    3.279881   -4.544924
     64          1           0       -5.133572    0.963720   -5.178933
     65          1           0       -5.175261    4.302553   -5.444669
     66          1           0       -6.098157    3.820024   -3.980373
     67          1           0       -6.127849    2.832245   -5.347993
     68          1           0       -3.050482    1.550908   -6.476723
     69          1           0       -3.208270   -0.151531   -6.058814
     70          1           0       -1.487624    1.971519   -5.020200
     71          1           0       -1.017951    0.294770   -5.461349
     72          1           0       -1.841848    0.679611   -3.884073
     73          1           0       -4.351431   -4.847446   -2.851964
     74          1           0       -4.684275   -3.508255   -4.007320
     75          1           0       -6.020083   -4.102944   -2.936094
     76          1           0       -5.956178   -3.659671    2.159875
     77          1           0       -4.163737   -6.290563    5.072788
     78          1           0       -3.692856   -4.607959    5.726123
     79          1           0       -2.753350   -5.541958    4.546842
     80         12           0        4.873695   -0.058351    0.060826
     81          6           0        2.158168   -1.972389   -1.296151
     82          6           0        2.981338    2.728233   -0.476329
     83          6           0        7.408232    1.689593    0.827825
     84          6           0        6.935350   -2.796940   -0.567982
     85          7           0        2.847136    0.214038   -0.782428
     86          6           0        1.885368   -0.591391   -1.207453
     87          6           0        0.529894    0.113853   -1.481075
     88          6           0        1.080229    1.599871   -1.741358
     89          6           0        2.367733    1.530597   -0.922695
     90          6           0        1.450181    1.859079   -3.192321
     91          6           0       -0.429965    0.065835   -0.240761
     92          6           0       -1.879364    0.459809   -0.533624
     93          1           0       -2.946881   -0.228100    0.187250
     94          7           0        5.002060    1.841726    0.619221
     95          6           0        4.134044    2.834524    0.332555
     96          6           0        4.688822    4.046309    0.955430
     97          6           0        6.038083    3.721782    1.492916
     98          6           0        6.214294    2.381358    0.971098
     99          6           0        3.917758    5.329371    1.067843
    100          6           0        7.014324    4.495264    2.326512
    101          8           0        8.226626    4.107419    2.477243
    102          6           0        6.535589    5.768429    2.884490
    103          7           0        6.919068   -0.406650   -0.071525
    104          6           0        7.805076    0.497965    0.380777
    105          6           0        9.198040   -0.082641    0.434918
    106          6           0        9.022718   -1.646988    0.152668
    107          6           0        7.502286   -1.686850   -0.115828
    108          6           0       10.202221    0.503813   -0.557095
    109          6           0        9.612924   -2.622871    1.207173
    110          6           0        8.841057   -2.511723    2.502266
    111          7           0        4.594602   -2.095332   -0.603153
    112          6           0        5.596727   -3.065513   -0.823579
    113          6           0        4.930557   -4.260834   -1.380217
    114          6           0        3.579656   -3.892051   -1.467227
    115          6           0        3.418579   -2.553872   -1.016863
    116          6           0        5.577440   -5.465978   -1.774257
    117          6           0        2.254919   -4.326857   -1.847630
    118          8           0        1.762910   -5.392518   -2.216461
    119          6           0        1.295014   -3.060231   -1.872496
    120          6           0        0.033903   -3.418612   -1.135147
    121          8           0        0.061355   -3.657581    0.085003
    122          8           0       -1.022691   -3.208496   -1.941258
    123          6           0       -2.297719   -3.539298   -1.250819
    124          1           0        2.566596    3.679560   -0.810781
    125          1           0        8.300427    2.210315    1.183222
    126          1           0        7.493950   -3.726199   -0.698827
    127          1           0       -0.000410   -0.244667   -2.355155
    128          1           0        0.407062    2.347940   -1.330734
    129          1           0        1.393048    0.961022   -3.789281
    130          1           0        2.463814    2.237582   -3.174349
    131          1           0        0.834387    2.665884   -3.600002
    132          1           0       -0.154522    0.867605    0.456410
    133          1           0       -0.404992   -0.901021    0.223133
    134          1           0       -2.092123    0.478427   -1.609415
    135          1           0       -2.029594    1.493499   -0.212789
    136          1           0        3.020619    5.316154    0.436685
    137          1           0        4.543187    6.117311    0.634429
    138          1           0        3.685039    5.591699    2.102114
    139          1           0        6.219152    6.421418    2.074590
    140          1           0        7.344251    6.130384    3.522410
    141          1           0        5.647299    5.570916    3.494850
    142          1           0        9.634586    0.050459    1.417169
    143          1           0        9.515126   -1.949880   -0.783081
    144          1           0       11.105117    0.918576   -0.070449
    145          1           0        9.701082    1.264822   -1.140415
    146          1           0       10.548708   -0.185337   -1.325345
    147          1           0       10.646212   -2.351901    1.437464
    148          1           0        9.616046   -3.658323    0.883412
    149          1           0        9.301378   -1.647539    2.990499
    150          1           0        8.962502   -3.413369    3.099187
    151          1           0        7.790195   -2.262935    2.314006
    152          1           0        4.968594   -6.280939   -1.405950
    153          1           0        6.591755   -5.518666   -1.384171
    154          1           0        5.561203   -5.349672   -2.861212
    155          1           0        1.102576   -2.815500   -2.917799
    156          1           0       -2.819057   -4.270870   -1.875880
    157          1           0       -2.804552   -2.571063   -1.079393
    158          1           0       -2.234249   -4.072452   -0.309458
 ---------------------------------------------------------------------

 SCF Done:  E(RCAM-B3LYP) =  -4069.73546434     A.U. after   19 cycles

 Excitation energies and oscillator strengths:

 Excited State   1:      Singlet-A      1.6312 eV  760.07 nm  f=0.0131  <S**2>=0.000
     309 -> 315        0.12773
     310 -> 316       -0.10173
     311 -> 313        0.53315
     312 -> 314       -0.43501
 This state for optimization and/or second-order correction.
 Total Energy, E(TD-HF/TD-DFT) =  -4069.67551833
 Copying the excited state density for this state as the 1-particle RhoCI density.

 Excited State   2:      Singlet-A      1.7058 eV  726.86 nm  f=0.6592  <S**2>=0.000
     309 -> 315        0.11614
     310 -> 316        0.14048
     311 -> 313        0.43094
     312 -> 314        0.53018

 Excited State   3:      Singlet-A      2.1029 eV  589.58 nm  f=0.0942  <S**2>=0.000
     309 -> 313        0.64621
     311 -> 315       -0.24219
     312 -> 313       -0.10625

 Excited State   4:      Singlet-A      2.1794 eV  568.89 nm  f=0.1131  <S**2>=0.000
     310 -> 314        0.63579
     312 -> 313        0.10407
     312 -> 316       -0.26849

 Excited State   5:      Singlet-A      2.1894 eV  566.28 nm  f=0.0055  <S**2>=0.000
     312 -> 313        0.68989

 The electronic state is 1-A.
 Alpha  occ. eigenvalues --  -46.87393 -46.86858 -19.26206 -19.24332 -19.19423
 Alpha  occ. eigenvalues --  -19.18992 -19.18515 -19.18299 -19.17668 -19.17526
 Alpha  occ. eigenvalues --  -14.42752 -14.42277 -14.41653 -14.41080 -14.39463
 Alpha  occ. eigenvalues --  -14.39088 -14.38888 -14.38301 -10.39017 -10.37634
 Alpha  occ. eigenvalues --  -10.36045 -10.35201 -10.34561 -10.33665 -10.31905
 Alpha  occ. eigenvalues --  -10.31496 -10.31264 -10.31103 -10.31023 -10.31022
 Alpha  occ. eigenvalues --  -10.30786 -10.30448 -10.30429 -10.30269 -10.30122
 Alpha  occ. eigenvalues --  -10.30059 -10.29914 -10.29620 -10.29512 -10.29266
 Alpha  occ. eigenvalues --  -10.29186 -10.29133 -10.28970 -10.28732 -10.28700
 Alpha  occ. eigenvalues --  -10.28596 -10.28564 -10.28404 -10.28201 -10.28181
 Alpha  occ. eigenvalues --  -10.28084 -10.28067 -10.27980 -10.27942 -10.27891
 Alpha  occ. eigenvalues --  -10.27887 -10.27777 -10.27681 -10.27421 -10.27345
 Alpha  occ. eigenvalues --  -10.27314 -10.27304 -10.27210 -10.27203 -10.27166
 Alpha  occ. eigenvalues --  -10.27154 -10.26989 -10.26791 -10.26632 -10.26494
 Alpha  occ. eigenvalues --  -10.26489 -10.26305 -10.26296 -10.26295 -10.25957
 Alpha  occ. eigenvalues --  -10.25821 -10.25728 -10.25667 -10.25554 -10.25424
 Alpha  occ. eigenvalues --  -10.25306 -10.25215 -10.24924 -10.24554 -10.24528
 Alpha  occ. eigenvalues --  -10.24410  -3.16143  -3.16105  -1.91026  -1.90985
 Alpha  occ. eigenvalues --   -1.90615  -1.90601  -1.90451  -1.90429  -1.16563
 Alpha  occ. eigenvalues --   -1.14869  -1.08824  -1.08063  -1.07823  -1.06774
 Alpha  occ. eigenvalues --   -1.06590  -1.05438  -1.05098  -1.04248  -1.04154
 Alpha  occ. eigenvalues --   -1.03968  -1.03406  -1.03016  -1.02762  -1.01825
 Alpha  occ. eigenvalues --   -0.92349  -0.91559  -0.89980  -0.89568  -0.89243
 Alpha  occ. eigenvalues --   -0.89193  -0.88811  -0.88713  -0.88072  -0.87990
 Alpha  occ. eigenvalues --   -0.87819  -0.87600  -0.87463  -0.86904  -0.85303
 Alpha  occ. eigenvalues --   -0.85149  -0.84424  -0.83590  -0.83504  -0.82983
 Alpha  occ. eigenvalues --   -0.82745  -0.82572  -0.81879  -0.81070  -0.80882
 Alpha  occ. eigenvalues --   -0.79801  -0.79291  -0.78381  -0.77805  -0.77574
 Alpha  occ. eigenvalues --   -0.77226  -0.76608  -0.76239  -0.75347  -0.75242
 Alpha  occ. eigenvalues --   -0.74403  -0.73303  -0.72475  -0.72056  -0.71328
 Alpha  occ. eigenvalues --   -0.70392  -0.69855  -0.69478  -0.69178  -0.68109
 Alpha  occ. eigenvalues --   -0.67742  -0.67494  -0.67233  -0.65625  -0.65257
 Alpha  occ. eigenvalues --   -0.65211  -0.64946  -0.64694  -0.64514  -0.64174
 Alpha  occ. eigenvalues --   -0.63869  -0.62453  -0.61398  -0.60915  -0.60454
 Alpha  occ. eigenvalues --   -0.60100  -0.59685  -0.59404  -0.58917  -0.58668
 Alpha  occ. eigenvalues --   -0.58070  -0.57979  -0.57557  -0.57053  -0.56968
 Alpha  occ. eigenvalues --   -0.56715  -0.56195  -0.56044  -0.55916  -0.55781
 Alpha  occ. eigenvalues --   -0.55486  -0.55209  -0.54886  -0.54737  -0.54311
 Alpha  occ. eigenvalues --   -0.54167  -0.54068  -0.53671  -0.53602  -0.53573
 Alpha  occ. eigenvalues --   -0.53220  -0.53197  -0.53047  -0.52967  -0.52800
 Alpha  occ. eigenvalues --   -0.52509  -0.52273  -0.52068  -0.51839  -0.51559
 Alpha  occ. eigenvalues --   -0.51508  -0.51321  -0.51054  -0.51013  -0.50686
 Alpha  occ. eigenvalues --   -0.50483  -0.50316  -0.50059  -0.49860  -0.49740
 Alpha  occ. eigenvalues --   -0.49663  -0.49452  -0.49343  -0.49197  -0.49066
 Alpha  occ. eigenvalues --   -0.48930  -0.48769  -0.48730  -0.48329  -0.48189
 Alpha  occ. eigenvalues --   -0.48125  -0.47983  -0.47773  -0.47721  -0.47538
 Alpha  occ. eigenvalues --   -0.47136  -0.46988  -0.46787  -0.46568  -0.46464
 Alpha  occ. eigenvalues --   -0.46262  -0.45983  -0.45970  -0.45730  -0.45331
 Alpha  occ. eigenvalues --   -0.45141  -0.44997  -0.44918  -0.44791  -0.44733
 Alpha  occ. eigenvalues --   -0.44628  -0.44377  -0.44324  -0.44128  -0.43936
 Alpha  occ. eigenvalues --   -0.43911  -0.43804  -0.43650  -0.43551  -0.43417
 Alpha  occ. eigenvalues --   -0.43281  -0.43041  -0.42808  -0.42672  -0.42526
 Alpha  occ. eigenvalues --   -0.42350  -0.42278  -0.42246  -0.41959  -0.41829
 Alpha  occ. eigenvalues --   -0.41588  -0.41424  -0.41327  -0.41230  -0.41116
 Alpha  occ. eigenvalues --   -0.40982  -0.40859  -0.40720  -0.40499  -0.40399
 Alpha  occ. eigenvalues --   -0.40351  -0.40313  -0.39887  -0.39690  -0.39361
 Alpha  occ. eigenvalues --   -0.39156  -0.38551  -0.38053  -0.37713  -0.37602
 Alpha  occ. eigenvalues --   -0.37067  -0.37038  -0.36955  -0.36468  -0.36308
 Alpha  occ. eigenvalues --   -0.36131  -0.34907  -0.34000  -0.33982  -0.33615
 Alpha  occ. eigenvalues --   -0.33413  -0.32998  -0.32368  -0.31924  -0.31271
 Alpha  occ. eigenvalues --   -0.31068  -0.30639  -0.30179  -0.29849  -0.29431
 Alpha  occ. eigenvalues --   -0.29074  -0.28983  -0.28809  -0.24201  -0.23725
 Alpha  occ. eigenvalues --   -0.21694  -0.20863
 Alpha virt. eigenvalues --   -0.09283  -0.08503  -0.02173  -0.01436  -0.00585
 Alpha virt. eigenvalues --    0.00213   0.01629   0.02590   0.03453   0.04154
 Alpha virt. eigenvalues --    0.04669   0.05032   0.05178   0.06279   0.06440

 Mulliken charges:
               1
     1  Mg   0.350145
     2  C    0.032618
     3  C   -0.095020
     4  C   -0.039208
     5  C   -0.046547
     6  N   -0.239362
     7  C   -0.058132
     8  C   -0.014305
     9  C   -0.086153
    10  C    0.056604
    11  C    0.104951
    12  C    0.051974
    13  C   -0.072429
    14  H    0.039501
    15  N   -0.423076
    16  C    0.180687
    17  C   -0.177079
    18  C   -0.006387
    19  C    0.147236
    20  C    0.110542
    21  C    0.009932
    22  O   -0.249185
    23  C    0.063119
    24  N   -0.309612
    25  C    0.045410
    26  C   -0.027190
    27  C   -0.020897
    28  C    0.054103
    29  C    0.077012
    30  C    0.041087
    31  C   -0.005124
    32  N   -0.322983
    33  C    0.103594
    34  C   -0.241707
    35  C   -0.037572
    36  C    0.062526
    37  C    0.148404
    38  C    0.025902
    39  O   -0.182646
    40  C   -0.003804
    41  C    0.211744
    42  O   -0.243694
    43  O   -0.306260
    44  C    0.155887
    45  H   -0.018166
    46  H   -0.018183
    47  H   -0.043571
    48  H    0.001844
    49  H   -0.003434
    50  H    0.026742
    51  H    0.016723
    52  H    0.017524
    53  H    0.011936
    54  H    0.049620
    55  H    0.017677
    56  H    0.017350
    57  H    0.007973
    58  H    0.028191
    59  H    0.039577
    60  H    0.039169
    61  H    0.035956
    62  H    0.029799
    63  H    0.013708
    64  H    0.010205
    65  H    0.023314
    66  H    0.013479
    67  H    0.006254
    68  H    0.007021
    69  H    0.007348
    70  H    0.009756
    71  H    0.023523
    72  H    0.017102
    73  H    0.045873
    74  H    0.012438
    75  H    0.048763
    76  H    0.035783
    77  H    0.043364
    78  H    0.045621
    79  H    0.059110
    80  Mg   0.837351
    81  C   -0.014136
    82  C   -0.088925
    83  C   -0.046269
    84  C   -0.065920
    85  N   -0.254030
    86  C   -0.047793
    87  C   -0.025588
    88  C   -0.095335
    89  C    0.043370
    90  C    0.114597
    91  C    0.160121
    92  C   -0.229605
    93  H    0.246566
    94  N   -0.423333
    95  C    0.161923
    96  C   -0.175094
    97  C   -0.008764
    98  C    0.151933
    99  C    0.099171
   100  C    0.014947
   101  O   -0.253943
   102  C    0.061581
   103  N   -0.350349
   104  C    0.037330
   105  C   -0.019567
   106  C   -0.034869
   107  C    0.089540
   108  C    0.073923
   109  C    0.034885
   110  C   -0.007577
   111  N   -0.324275
   112  C    0.079186
   113  C   -0.163500
   114  C    0.003700
   115  C    0.095517
   116  C    0.131333
   117  C    0.042556
   118  O   -0.184811
   119  C    0.007362
   120  C    0.213640
   121  O   -0.244608
   122  O   -0.315366
   123  C    0.255995
   124  H   -0.018077
   125  H   -0.016506
   126  H   -0.040895
   127  H   -0.000944
   128  H    0.000851
   129  H    0.023110
   130  H    0.012795
   131  H    0.021224
   132  H    0.013099
   133  H    0.046798
   134  H    0.139696
   135  H    0.147156
   136  H    0.008940
   137  H    0.025866
   138  H    0.036841
   139  H    0.037998
   140  H    0.035503
   141  H    0.032588
   142  H    0.013796
   143  H    0.012052
   144  H    0.024457
   145  H    0.011527
   146  H    0.005182
   147  H    0.005656
   148  H    0.003579
   149  H    0.010443
   150  H    0.017574
   151  H    0.030656
   152  H    0.047145
   153  H    0.007714
   154  H    0.046318
   155  H    0.030693
   156  H    0.009300
   157  H    0.043758
   158  H    0.047243
 Sum of Mulliken charges =  -0.00000

 Dipole moment (field-independent basis, Debye):
    X=             -2.9395    Y=              7.2924    Z=              1.9126  Tot=              8.0919
 Quadrupole moment (field-independent basis, Debye-Ang):
   XX=           -492.2370   YY=           -543.7875   ZZ=           -472.4314
   XY=            -32.8833   XZ=            -21.1661   YZ=              7.1564

 Normal termination of Gaussian 16 at Thu Sep  9 22:39:56 2021.
