 Gaussian 16, Revision A.03,
 Gaussian 16:  ES64L-G16RevA.03 25-Dec-2016

 -----------------------------------
 #p cam-b3lyp/Def2SVP td=(nstates=5)
 -----------------------------------

 --------------------------------
 TDDFT excited states in gaussian
 --------------------------------
 Symbolic Z-matrix:
 Charge =  0 Multiplicity = 1

                         Standard orientation:
 ---------------------------------------------------------------------
 Center     Atomic      Atomic             Coordinates (Angstroms)
 Number     Number       Type             X           Y           Z
 ---------------------------------------------------------------------
      1         12           0       -3.464431    1.098151   -0.253115
      2          6           0       -4.256132   -1.959554    1.430888
      3          6           0       -4.198316    2.718312    2.658853
      4          6           0       -3.212317    3.833215   -1.838197
      5          6           0       -3.896176   -0.616252   -3.256459
      6          7           0       -4.130012    0.362590    1.725925
      7          6           0       -4.338230   -0.837497    2.258471
      8          6           0       -4.578012   -0.797354    3.797389
      9          6           0       -5.093688    0.705234    3.932693
     10          6           0       -4.405555    1.308259    2.720770
     11          6           0       -6.602655    0.849134    3.762941
     12          6           0       -3.259679   -1.026031    4.610675
     13          6           0       -3.454317   -1.326103    6.099778
     14          1           0       -2.546980   -2.259147    6.750558
     15          7           0       -3.199958    2.941493    0.406428
     16          6           0       -3.543521    3.422589    1.625361
     17          6           0       -3.141097    4.845514    1.630158
     18          6           0       -2.709251    5.200902    0.249832
     19          6           0       -3.052435    3.997759   -0.464345
     20          6           0       -3.143561    5.697151    2.862416
     21          6           0       -2.095813    6.433677   -0.335056
     22          8           0       -2.013250    6.619120   -1.597343
     23          6           0       -1.668626    7.471686    0.620501
     24          7           0       -3.755532    1.610944   -2.255598
     25          6           0       -3.522007    2.854027   -2.690564
     26          6           0       -3.522437    2.917215   -4.189212
     27          6           0       -3.564727    1.403394   -4.695483
     28          6           0       -3.669442    0.697712   -3.320958
     29          6           0       -4.678759    3.700682   -4.825693
     30          6           0       -2.446829    0.956579   -5.670716
     31          6           0       -1.114329    0.949897   -4.955524
     32          7           0       -3.808518   -0.961307   -0.845802
     33          6           0       -3.979623   -1.445791   -2.150667
     34          6           0       -4.292259   -2.882520   -2.040501
     35          6           0       -4.297673   -3.132035   -0.669531
     36          6           0       -4.032758   -1.921942    0.033168
     37          6           0       -4.583833   -3.757409   -3.124007
     38          6           0       -4.489965   -4.134292    0.366018
     39          8           0       -4.646701   -5.356132    0.371843
     40          6           0       -4.591252   -3.390609    1.770476
     41          6           0       -3.690374   -4.114155    2.733912
     42          8           0       -2.451671   -4.103366    2.582707
     43          8           0       -4.402354   -4.500567    3.803637
     44          6           0       -3.561648   -5.198971    4.812398
     45          1           0       -4.625856    3.349459    3.440392
     46          1           0       -3.023873    4.731613   -2.429643
     47          1           0       -3.960022   -1.234055   -4.154065
     48          1           0       -5.342174   -1.486962    4.156444
     49          1           0       -4.734583    1.177984    4.846625
     50          1           0       -7.059429   -0.089070    3.448215
     51          1           0       -6.737862    1.613875    2.997838
     52          1           0       -7.058101    1.248468    4.669516
     53          1           0       -2.712957   -0.085693    4.680822
     54          1           0       -2.659954   -1.816955    4.158905
     55          1           0       -4.490413   -1.582569    6.322578
     56          1           0       -3.276219   -0.407767    6.659367
     57          1           0       -3.666456    5.210304    3.684672
     58          1           0       -3.746737    6.577174    2.640051
     59          1           0       -2.138184    6.003965    3.151231
     60          1           0       -2.527729    7.794723    1.208835
     61          1           0       -1.172514    8.239769    0.028240
     62          1           0       -0.961693    7.033233    1.325451
     63          1           0       -2.615783    3.392942   -4.560815
     64          1           0       -4.488584    1.175797   -5.227800
     65          1           0       -4.352008    4.513544   -5.474688
     66          1           0       -5.315641    4.072571   -4.023589
     67          1           0       -5.381464    3.094819   -5.397140
     68          1           0       -2.362844    1.659481   -6.498859
     69          1           0       -2.614502   -0.034464   -6.092581
     70          1           0       -0.796840    1.989866   -5.022590
     71          1           0       -0.410764    0.293072   -5.468152
     72          1           0       -1.231330    0.712474   -3.897967
     73          1           0       -4.039067   -4.680415   -2.925866
     74          1           0       -4.287953   -3.319618   -4.077106
     75          1           0       -5.665290   -3.848868   -3.024300
     76          1           0       -5.636530   -3.435990    2.074540
     77          1           0       -4.018029   -6.172464    4.992016
     78          1           0       -3.467028   -4.520326    5.660273
     79          1           0       -2.564384   -5.496256    4.486167
     80         12           0        4.348348   -0.221538    0.074945
     81          6           0        1.506983   -2.024996   -1.171330
     82          6           0        2.527559    2.633649   -0.334032
     83          6           0        6.974804    1.430293    0.738780
     84          6           0        6.283216   -3.017886   -0.688233
     85          7           0        2.293656    0.129872   -0.664632
     86          6           0        1.285698   -0.637103   -1.052109
     87          6           0       -0.056804    0.116551   -1.250206
     88          6           0        0.530227    1.587020   -1.518511
     89          6           0        1.852845    1.463466   -0.764781
     90          6           0        0.837937    1.854304   -2.982484
     91          6           0       -0.956451    0.082878    0.034902
     92          6           0       -2.404188    0.528852   -0.181716
     93          1           0       -3.458156   -0.133371    0.581892
     94          7           0        4.567877    1.665141    0.650130
     95          6           0        3.721074    2.690165    0.418736
     96          6           0        4.346096    3.873934    1.028812
     97          6           0        5.708079    3.497223    1.495515
     98          6           0        5.813313    2.159194    0.948971
     99          6           0        3.625261    5.180157    1.194888
    100          6           0        6.749227    4.226003    2.289936
    101          8           0        7.953594    3.796031    2.376290
    102          6           0        6.341479    5.506338    2.886568
    103          7           0        6.371927   -0.635627   -0.161707
    104          6           0        7.308940    0.232587    0.257968
    105          6           0        8.682446   -0.394651    0.236603
    106          6           0        8.440801   -1.948157   -0.056284
    107          6           0        6.908661   -1.933730   -0.250519
    108          6           0        9.656599    0.172134   -0.795957
    109          6           0        9.048080   -2.957917    0.955775
    110          6           0        8.344146   -2.839544    2.288386
    111          7           0        3.968605   -2.238534   -0.600001
    112          6           0        4.925450   -3.238231   -0.881331
    113          6           0        4.192989   -4.402786   -1.419614
    114          6           0        2.852720   -3.988170   -1.435788
    115          6           0        2.759053   -2.651891   -0.961361
    116          6           0        4.778843   -5.623056   -1.859893
    117          6           0        1.497137   -4.373349   -1.756296
    118          8           0        0.952027   -5.416763   -2.113910
    119          6           0        0.580569   -3.075331   -1.718301
    120          6           0       -0.654699   -3.402047   -0.924639
    121          8           0       -0.576203   -3.659032    0.289609
    122          8           0       -1.741431   -3.145595   -1.675380
    123          6           0       -2.991932   -3.443620   -0.927553
    124          1           0        2.129525    3.602852   -0.635846
    125          1           0        7.900296    1.916026    1.056566
    126          1           0        6.803044   -3.963227   -0.857871
    127          1           0       -0.640709   -0.211770   -2.101702
    128          1           0       -0.096523    2.351132   -1.066095
    129          1           0        0.721561    0.967169   -3.587119
    130          1           0        1.863478    2.198659   -3.009413
    131          1           0        0.230755    2.686782   -3.349407
    132          1           0       -0.620551    0.865125    0.727725
    133          1           0       -0.941746   -0.890741    0.484879
    134          1           0       -2.668126    0.569731   -1.245487
    135          1           0       -2.503608    1.562309    0.159004
    136          1           0        2.698636    5.205659    0.608278
    137          1           0        4.255249    5.952961    0.741278
    138          1           0        3.451987    5.435409    2.242502
    139          1           0        6.008412    6.180862    2.101364
    140          1           0        7.191914    5.832191    3.488619
    141          1           0        5.477660    5.329800    3.537156
    142          1           0        9.170362   -0.290021    1.197897
    143          1           0        8.876708   -2.253963   -1.018737
    144          1           0       10.595556    0.549764   -0.348941
    145          1           0        9.153805    0.957533   -1.344484
    146          1           0        9.941900   -0.517204   -1.588817
    147          1           0       10.099903   -2.724677    1.138586
    148          1           0        9.000453   -3.988219    0.619312
    149          1           0        8.856590   -1.998108    2.764281
    150          1           0        8.463807   -3.753078    2.867319
    151          1           0        7.294406   -2.553373    2.154916
    152          1           0        4.161346   -6.422482   -1.472459
    153          1           0        5.808518   -5.714881   -1.520610
    154          1           0        4.713855   -5.490897   -2.943209
    155          1           0        0.346058   -2.809583   -2.749780
    156          1           0       -3.567432   -4.148575   -1.535449
    157          1           0       -3.456806   -2.461620   -0.719425
    158          1           0       -2.900957   -3.991854    0.002824
 ---------------------------------------------------------------------

 SCF Done:  E(RCAM-B3LYP) =  -4068.29380558     A.U. after   24 cycles

 Excitation energies and oscillator strengths:

 Excited State   1:      Singlet-A      0.6145 eV 2017.50 nm  f=0.0044  <S**2>=0.000
     308 -> 314       -0.22612
     310 -> 314       -0.11645
     312 -> 314        0.64862
 This state for optimization and/or second-order correction.
 Total Energy, E(TD-HF/TD-DFT) =  -4068.27122152
 Copying the excited state density for this state as the 1-particle RhoCI density.

 Excited State   2:      Singlet-A      1.3085 eV  947.54 nm  f=0.0004  <S**2>=0.000
     312 -> 313        0.70322

 Excited State   3:      Singlet-A      1.4012 eV  884.86 nm  f=0.0622  <S**2>=0.000
     308 -> 315       -0.10136
     312 -> 315        0.64705
     312 -> 317       -0.21354

 Excited State   4:      Singlet-A      1.6539 eV  749.65 nm  f=0.3430  <S**2>=0.000
     309 -> 316        0.15065
     311 -> 313        0.67983

 Excited State   5:      Singlet-A      2.1872 eV  566.87 nm  f=0.1247  <S**2>=0.000
     309 -> 313        0.57709
     310 -> 313       -0.25251
     311 -> 316       -0.25355

 The electronic state is 1-A.
 Alpha  occ. eigenvalues --  -46.87314 -46.83984 -19.31885 -19.28509 -19.26931
 Alpha  occ. eigenvalues --  -19.21492 -19.21321 -19.18477 -19.18356 -19.15540
 Alpha  occ. eigenvalues --  -14.43070 -14.42690 -14.41899 -14.41086 -14.39023
 Alpha  occ. eigenvalues --  -14.38352 -14.37802 -14.36375 -10.42900 -10.41609
 Alpha  occ. eigenvalues --  -10.41477 -10.39094 -10.38503 -10.35145 -10.35036
 Alpha  occ. eigenvalues --  -10.34653 -10.33268 -10.33229 -10.32494 -10.32320
 Alpha  occ. eigenvalues --  -10.31952 -10.30800 -10.30506 -10.30246 -10.30177
 Alpha  occ. eigenvalues --  -10.30146 -10.30096 -10.29784 -10.29693 -10.29660
 Alpha  occ. eigenvalues --  -10.29510 -10.29507 -10.29208 -10.29164 -10.29074
 Alpha  occ. eigenvalues --  -10.29036 -10.28239 -10.28197 -10.27960 -10.27789
 Alpha  occ. eigenvalues --  -10.27457 -10.27309 -10.27307 -10.27294 -10.27228
 Alpha  occ. eigenvalues --  -10.27204 -10.27178 -10.27175 -10.27045 -10.26918
 Alpha  occ. eigenvalues --  -10.26792 -10.26778 -10.26398 -10.26359 -10.26123
 Alpha  occ. eigenvalues --  -10.26032 -10.25969 -10.25868 -10.25761 -10.25701
 Alpha  occ. eigenvalues --  -10.25656 -10.25281 -10.25207 -10.24764 -10.24755
 Alpha  occ. eigenvalues --  -10.24634 -10.24588 -10.24447 -10.24399 -10.24317
 Alpha  occ. eigenvalues --  -10.24165 -10.24154 -10.23719 -10.23701 -10.23386
 Alpha  occ. eigenvalues --  -10.20989  -3.22776  -3.16064  -2.00814  -1.95610
 Alpha  occ. eigenvalues --   -1.94892  -1.90946  -1.90531  -1.90374  -1.28754
 Alpha  occ. eigenvalues --   -1.20389  -1.18993  -1.16971  -1.09798  -1.09136
 Alpha  occ. eigenvalues --   -1.08745  -1.06726  -1.06522  -1.05079  -1.04117
 Alpha  occ. eigenvalues --   -1.04021  -1.03277  -1.02768  -1.01826  -1.01686
 Alpha  occ. eigenvalues --   -1.00330  -0.97926  -0.92239  -0.92097  -0.90095
 Alpha  occ. eigenvalues --   -0.89334  -0.88704  -0.88206  -0.87967  -0.87844
 Alpha  occ. eigenvalues --   -0.87548  -0.87123  -0.86805  -0.86730  -0.85244
 Alpha  occ. eigenvalues --   -0.84854  -0.84453  -0.84224  -0.83791  -0.83738
 Alpha  occ. eigenvalues --   -0.83183  -0.82780  -0.82548  -0.82113  -0.80970
 Alpha  occ. eigenvalues --   -0.80838  -0.80126  -0.79943  -0.78876  -0.78337
 Alpha  occ. eigenvalues --   -0.77894  -0.77393  -0.77054  -0.76643  -0.75602
 Alpha  occ. eigenvalues --   -0.75459  -0.74811  -0.73599  -0.73031  -0.72359
 Alpha  occ. eigenvalues --   -0.71502  -0.71185  -0.70227  -0.69508  -0.69290
 Alpha  occ. eigenvalues --   -0.68587  -0.68024  -0.67484  -0.67203  -0.67013
 Alpha  occ. eigenvalues --   -0.66130  -0.65620  -0.65027  -0.64781  -0.64488
 Alpha  occ. eigenvalues --   -0.64316  -0.63977  -0.63563  -0.63389  -0.62545
 Alpha  occ. eigenvalues --   -0.61764  -0.61260  -0.60537  -0.60126  -0.60053
 Alpha  occ. eigenvalues --   -0.59464  -0.59054  -0.58721  -0.58532  -0.58097
 Alpha  occ. eigenvalues --   -0.58093  -0.57716  -0.57442  -0.57052  -0.56957
 Alpha  occ. eigenvalues --   -0.56373  -0.56211  -0.55863  -0.55517  -0.55265
 Alpha  occ. eigenvalues --   -0.54985  -0.54846  -0.54686  -0.54097  -0.54068
 Alpha  occ. eigenvalues --   -0.53773  -0.53699  -0.53500  -0.53366  -0.52996
 Alpha  occ. eigenvalues --   -0.52859  -0.52812  -0.52569  -0.52261  -0.52238
 Alpha  occ. eigenvalues --   -0.52103  -0.51773  -0.51606  -0.51417  -0.50836
 Alpha  occ. eigenvalues --   -0.50651  -0.50364  -0.50299  -0.50164  -0.50093
 Alpha  occ. eigenvalues --   -0.49685  -0.49658  -0.49526  -0.49333  -0.49225
 Alpha  occ. eigenvalues --   -0.48951  -0.48812  -0.48672  -0.48552  -0.48229
 Alpha  occ. eigenvalues --   -0.48115  -0.48056  -0.47950  -0.47765  -0.47598
 Alpha  occ. eigenvalues --   -0.47443  -0.47323  -0.47108  -0.46606  -0.46485
 Alpha  occ. eigenvalues --   -0.46363  -0.46272  -0.46014  -0.45892  -0.45694
 Alpha  occ. eigenvalues --   -0.45593  -0.45476  -0.45302  -0.45122  -0.44872
 Alpha  occ. eigenvalues --   -0.44795  -0.44649  -0.44524  -0.44291  -0.44130
 Alpha  occ. eigenvalues --   -0.44036  -0.43875  -0.43836  -0.43606  -0.43520
 Alpha  occ. eigenvalues --   -0.43380  -0.43324  -0.42908  -0.42743  -0.42360
 Alpha  occ. eigenvalues --   -0.42276  -0.42099  -0.42000  -0.41831  -0.41765
 Alpha  occ. eigenvalues --   -0.41519  -0.41041  -0.40938  -0.40772  -0.40703
 Alpha  occ. eigenvalues --   -0.40502  -0.40430  -0.40272  -0.40148  -0.39773
 Alpha  occ. eigenvalues --   -0.39496  -0.39308  -0.39223  -0.38971  -0.38742
 Alpha  occ. eigenvalues --   -0.38543  -0.38238  -0.38093  -0.37834  -0.37667
 Alpha  occ. eigenvalues --   -0.37545  -0.37046  -0.36934  -0.36699  -0.36260
 Alpha  occ. eigenvalues --   -0.36088  -0.36001  -0.35227  -0.34589  -0.33983
 Alpha  occ. eigenvalues --   -0.32905  -0.32757  -0.32418  -0.31630  -0.31031
 Alpha  occ. eigenvalues --   -0.30632  -0.30353  -0.29150  -0.28975  -0.28347
 Alpha  occ. eigenvalues --   -0.27755  -0.26207  -0.24823  -0.23805  -0.23624
 Alpha  occ. eigenvalues --   -0.20725  -0.17244
 Alpha virt. eigenvalues --   -0.08534  -0.07480  -0.04795  -0.01373  -0.00966
 Alpha virt. eigenvalues --    0.00300   0.01676   0.02099   0.02534   0.02634
 Alpha virt. eigenvalues --    0.03525   0.03781   0.04400   0.05393   0.05468

 Mulliken charges:
               1
     1  Mg   0.745033
     2  C    0.021826
     3  C   -0.080353
     4  C   -0.090625
     5  C   -0.134690
     6  N   -0.276887
     7  C   -0.037913
     8  C   -0.021043
     9  C   -0.065417
    10  C    0.033228
    11  C    0.107526
    12  C    0.047671
    13  C   -0.073285
    14  H    0.037569
    15  N   -0.463903
    16  C    0.154687
    17  C   -0.187243
    18  C   -0.029519
    19  C    0.163028
    20  C    0.116446
    21  C   -0.005150
    22  O   -0.271073
    23  C    0.068244
    24  N   -0.382250
    25  C    0.068124
    26  C   -0.017391
    27  C   -0.021729
    28  C    0.098023
    29  C    0.081921
    30  C    0.081359
    31  C   -0.065172
    32  N   -0.374862
    33  C    0.168193
    34  C   -0.521917
    35  C    0.776843
    36  C   -0.172222
    37  C    0.166249
    38  C   -0.130977
    39  O   -0.105537
    40  C    0.059693
    41  C    0.223135
    42  O   -0.222848
    43  O   -0.305243
    44  C    0.154497
    45  H   -0.025040
    46  H   -0.033858
    47  H   -0.063250
    48  H   -0.003452
    49  H   -0.003823
    50  H    0.010304
    51  H    0.022144
    52  H    0.014286
    53  H    0.026348
    54  H    0.044991
    55  H    0.017095
    56  H    0.023936
    57  H   -0.010426
    58  H    0.012210
    59  H    0.021627
    60  H    0.032812
    61  H    0.022102
    62  H    0.020286
    63  H    0.007603
    64  H    0.005072
    65  H    0.018069
    66  H    0.014800
    67  H   -0.005134
    68  H    0.004175
    69  H   -0.006188
    70  H    0.018703
    71  H    0.022217
    72  H    0.044380
    73  H    0.038636
    74  H    0.043471
    75  H    0.044105
    76  H    0.050799
    77  H    0.047483
    78  H    0.054996
    79  H    0.062621
    80  Mg   0.838000
    81  C   -0.020625
    82  C   -0.087137
    83  C   -0.046210
    84  C   -0.064675
    85  N   -0.260582
    86  C   -0.023545
    87  C   -0.052534
    88  C   -0.108179
    89  C    0.056953
    90  C    0.110703
    91  C    0.179003
    92  C   -0.470167
    93  H    0.354616
    94  N   -0.424053
    95  C    0.164324
    96  C   -0.172144
    97  C   -0.007829
    98  C    0.153329
    99  C    0.096681
   100  C    0.015506
   101  O   -0.253577
   102  C    0.061458
   103  N   -0.349696
   104  C    0.038230
   105  C   -0.020083
   106  C   -0.033998
   107  C    0.087047
   108  C    0.073755
   109  C    0.035063
   110  C   -0.007453
   111  N   -0.323089
   112  C    0.076279
   113  C   -0.164146
   114  C    0.000353
   115  C    0.096618
   116  C    0.131673
   117  C    0.045886
   118  O   -0.194021
   119  C   -0.008423
   120  C    0.236147
   121  O   -0.202015
   122  O   -0.240107
   123  C    0.181188
   124  H   -0.007198
   125  H   -0.015950
   126  H   -0.042217
   127  H   -0.009173
   128  H    0.036922
   129  H    0.029173
   130  H   -0.000234
   131  H    0.029780
   132  H    0.004111
   133  H    0.003866
   134  H    0.139792
   135  H   -0.062459
   136  H    0.019040
   137  H    0.027435
   138  H    0.039480
   139  H    0.039693
   140  H    0.035626
   141  H    0.033986
   142  H    0.013832
   143  H    0.011543
   144  H    0.024678
   145  H    0.012217
   146  H    0.005308
   147  H    0.005491
   148  H    0.002749
   149  H    0.010609
   150  H    0.016620
   151  H    0.030447
   152  H    0.043631
   153  H    0.008355
   154  H    0.045309
   155  H    0.038648
   156  H    0.004563
   157  H   -0.028672
   158  H    0.044328
 Sum of Mulliken charges =  -0.00000

 Dipole moment (field-independent basis, Debye):
    X=             -3.6637    Y=             -4.5432    Z=              2.5829  Tot=              6.3824
 Quadrupole moment (field-independent basis, Debye-Ang):
   XX=           -486.8406   YY=           -546.6961   ZZ=           -479.4246
   XY=             12.1680   XZ=            -20.8643   YZ=              7.7630

 Normal termination of Gaussian 16 at Thu Sep  9 01:27:06 2021.
