 Gaussian 16, Revision A.03,
 Gaussian 16:  ES64L-G16RevA.03 25-Dec-2016

 -----------------------------------
 #p cam-b3lyp/Def2SVP td=(nstates=5)
 -----------------------------------

 --------------------------------
 TDDFT excited states in gaussian
 --------------------------------
 Symbolic Z-matrix:
 Charge =  0 Multiplicity = 1

                         Standard orientation:
 ---------------------------------------------------------------------
 Center     Atomic      Atomic             Coordinates (Angstroms)
 Number     Number       Type             X           Y           Z
 ---------------------------------------------------------------------
      1         12           0       -4.224224   -1.003249    0.286755
      2          6           0       -4.554426    1.912956    2.335885
      3          6           0       -5.409648    0.868184   -2.308543
      4          6           0       -4.371979   -3.668528   -1.425282
      5          6           0       -4.161064   -2.879023    3.223275
      6          7           0       -4.864470    1.111771    0.154766
      7          6           0       -4.885718    2.139165    0.998081
      8          6           0       -5.220522    3.496354    0.310099
      9          6           0       -6.004334    2.945856   -0.964494
     10          6           0       -5.364120    1.572859   -1.069030
     11          6           0       -7.501739    2.773109   -0.731173
     12          6           0       -3.933653    4.285627   -0.105529
     13          6           0       -4.160163    5.752487   -0.482849
     14          1           0       -3.140901    6.730691   -0.134180
     15          7           0       -4.334413   -1.265769   -1.668185
     16          6           0       -4.831004   -0.391382   -2.576001
     17          6           0       -4.691166   -1.048281   -3.893427
     18          6           0       -4.248150   -2.450556   -3.657931
     19          6           0       -4.326734   -2.526535   -2.221466
     20          6           0       -4.920020   -0.341091   -5.193910
     21          6           0       -3.831709   -3.551202   -4.581666
     22          8           0       -3.708290   -4.760778   -4.186360
     23          6           0       -3.655490   -3.187639   -5.999344
     24          7           0       -4.482090   -3.009613    0.802160
     25          6           0       -4.449539   -3.970590   -0.127596
     26          6           0       -4.371552   -5.332145    0.496925
     27          6           0       -4.111426   -5.090186    2.053699
     28          6           0       -4.170070   -3.542703    2.065037
     29          6           0       -5.609357   -6.222121    0.318625
     30          6           0       -2.875188   -5.786024    2.676551
     31          6           0       -1.608325   -5.185722    2.109282
     32          7           0       -4.157482   -0.580317    2.414599
     33          6           0       -4.160531   -1.514607    3.460432
     34          6           0       -4.216609   -0.751783    4.720997
     35          6           0       -4.259293    0.581444    4.317846
     36          6           0       -4.258126    0.646320    2.895144
     37          6           0       -4.281234   -1.307526    6.029204
     38          6           0       -4.330480    1.965392    4.757706
     39          8           0       -4.265736    2.532812    5.849189
     40          6           0       -4.647337    2.877865    3.491680
     41          6           0       -3.690691    4.038678    3.517210
     42          8           0       -2.467187    3.863260    3.345066
     43          8           0       -4.384633    5.187047    3.501891
     44          6           0       -3.494295    6.378441    3.496194
     45          1           0       -5.989409    1.287558   -3.133130
     46          1           0       -4.312546   -4.610026   -1.975271
     47          1           0       -4.059276   -3.393412    4.180613
     48          1           0       -5.868808    4.152639    0.890995
     49          1           0       -5.791161    3.532383   -1.857951
     50          1           0       -7.763273    2.934735    0.314484
     51          1           0       -7.725771    1.747598   -1.025504
     52          1           0       -8.074841    3.410293   -1.405212
     53          1           0       -3.569530    3.902910   -1.058946
     54          1           0       -3.175917    4.227429    0.676632
     55          1           0       -5.144961    6.097814   -0.166888
     56          1           0       -4.183385    5.825788   -1.570179
     57          1           0       -5.395464    0.627549   -5.044799
     58          1           0       -5.656749   -0.922959   -5.747415
     59          1           0       -4.005046   -0.253533   -5.779989
     60          1           0       -4.592243   -2.786896   -6.387220
     61          1           0       -3.270527   -4.079331   -6.492840
     62          1           0       -2.924918   -2.381178   -6.068862
     63          1           0       -3.544254   -5.906111    0.081513
     64          1           0       -4.945967   -5.432815    2.665923
     65          1           0       -5.395332   -7.179778   -0.156550
     66          1           0       -6.349450   -5.660036   -0.250247
     67          1           0       -6.156588   -6.433329    1.236964
     68          1           0       -2.869119   -6.845746    2.423768
     69          1           0       -2.836943   -5.703967    3.762854
     70          1           0       -1.478947   -5.729266    1.174053
     71          1           0       -0.769012   -5.362266    2.782778
     72          1           0       -1.743986   -4.133482    1.858535
     73          1           0       -3.592708   -0.725883    6.642060
     74          1           0       -4.012087   -2.363528    6.024561
     75          1           0       -5.332782   -1.145658    6.265641
     76          1           0       -5.683853    3.199382    3.588544
     77          1           0       -3.778717    6.995774    4.348389
     78          1           0       -3.573790    6.819940    2.502632
     79          1           0       -2.442181    6.195010    3.716986
     80         12           0        4.723977   -0.245719   -0.220069
     81          6           0        2.579895    1.884114   -2.155476
     82          6           0        6.900332    2.373444   -0.024745
     83          6           0        6.828773   -2.221675    1.096299
     84          6           0        2.963780   -2.960828   -1.514501
     85          7           0        4.638734    1.812198   -1.026301
     86          6           0        3.746775    2.528281   -1.694105
     87          6           0        4.089322    4.037971   -1.808483
     88          6           0        5.681306    3.938058   -1.622766
     89          6           0        5.752031    2.646847   -0.810094
     90          6           0        6.427183    3.721757   -2.928991
     91          6           0        3.430085    4.888642   -0.666650
     92          6           0        3.465702    6.402129   -0.889926
     93          1           0        2.333055    7.200489   -0.429289
     94          7           0        6.349711    0.137755    0.851614
     95          6           0        7.097096    1.261088    0.822774
     96          6           0        8.192716    1.040044    1.779289
     97          6           0        8.124635   -0.369080    2.253056
     98          6           0        7.088376   -0.889609    1.383980
     99          6           0        9.122894    2.133530    2.218002
    100          6           0        8.877646   -1.126563    3.304438
    101          8           0        8.820506   -2.404513    3.384490
    102          6           0        9.756968   -0.336399    4.178464
    103          7           0        5.016272   -2.298590   -0.370413
    104          6           0        5.970424   -2.915519    0.348552
    105          6           0        5.813955   -4.416291    0.288567
    106          6           0        4.406500   -4.673290   -0.425995
    107          6           0        4.016932   -3.214244   -0.749774
    108          6           0        6.911065   -5.170007   -0.462866
    109          6           0        3.382837   -5.560335    0.334209
    110          6           0        2.907425   -4.847871    1.579903
    111          7           0        2.959493   -0.518177   -1.436783
    112          6           0        2.411711   -1.740740   -1.883276
    113          6           0        1.281446   -1.411271   -2.775678
    114          6           0        1.264357   -0.008647   -2.804940
    115          6           0        2.322687    0.499983   -2.004497
    116          6           0        0.466256   -2.351082   -3.467304
    117          6           0        0.598247    1.157250   -3.339434
    118          8           0       -0.416207    1.347474   -4.009087
    119          6           0        1.498413    2.433458   -3.043863
    120          6           0        0.609363    3.508977   -2.482277
    121          8           0        0.058086    3.360341   -1.377462
    122          8           0        0.729437    4.617620   -3.235177
    123          6           0       -0.125148    5.716329   -2.711394
    124          1           0        7.750417    3.052664   -0.094624
    125          1           0        7.459068   -2.947605    1.615175
    126          1           0        2.303895   -3.750686   -1.879664
    127          1           0        3.854128    4.485826   -2.766543
    128          1           0        6.064707    4.774359   -1.043996
    129          1           0        5.752451    3.552242   -3.754917
    130          1           0        7.054913    2.854890   -2.769220
    131          1           0        7.108373    4.556642   -3.116820
    132          1           0        4.049909    4.817309    0.236392
    133          1           0        2.420071    4.572960   -0.491026
    134          1           0        3.722315    6.660219   -1.924572
    135          1           0        4.283493    6.820997   -0.298502
    136          1           0        9.034030    3.018799    1.576283
    137          1           0       10.143062    1.774039    2.045138
    138          1           0        9.010552    2.383163    3.275235
    139          1           0       10.493032    0.186621    3.572560
    140          1           0       10.139342   -1.039502    4.920977
    141          1           0        9.155863    0.432401    4.676675
    142          1           0        5.785659   -4.842256    1.283991
    143          1           0        4.527229   -5.187772   -1.390657
    144          1           0        7.410535   -5.941825    0.152681
    145          1           0        7.631329   -4.449916   -0.827872
    146          1           0        6.589401   -5.660302   -1.380108
    147          1           0        3.858273   -6.485800    0.668325
    148          1           0        2.522865   -5.838500   -0.265838
    149          1           0        3.694701   -5.069535    2.306633
    150          1           0        1.947405   -5.243844    1.904886
    151          1           0        2.892689   -3.761955    1.430812
    152          1           0       -0.555948   -2.012103   -3.363856
    153          1           0        0.594637   -3.356212   -3.071057
    154          1           0        0.870977   -2.253580   -4.478221
    155          1           0        1.959918    2.733983   -3.985279
    156          1           0       -0.769721    6.039838   -3.534523
    157          1           0        0.573805    6.465621   -2.294529
    158          1           0       -0.858885    5.463453   -1.955005
 ---------------------------------------------------------------------

 SCF Done:  E(RCAM-B3LYP) =  -4069.81347690     A.U. after   19 cycles

 Excitation energies and oscillator strengths:

 Excited State   1:      Singlet-A      1.6433 eV  754.50 nm  f=0.1859  <S**2>=0.000
     309 -> 315       -0.12344
     310 -> 316        0.10921
     311 -> 313        0.50971
     312 -> 314        0.45991
 This state for optimization and/or second-order correction.
 Total Energy, E(TD-HF/TD-DFT) =  -4069.75308780
 Copying the excited state density for this state as the 1-particle RhoCI density.

 Excited State   2:      Singlet-A      1.7025 eV  728.25 nm  f=0.5628  <S**2>=0.000
     309 -> 315        0.12030
     310 -> 316        0.13316
     311 -> 313       -0.45861
     312 -> 314        0.50791

 Excited State   3:      Singlet-A      2.1772 eV  569.47 nm  f=0.0067  <S**2>=0.000
     309 -> 313        0.52546
     310 -> 314        0.37509
     311 -> 315        0.21706
     312 -> 316       -0.15295

 Excited State   4:      Singlet-A      2.1947 eV  564.92 nm  f=0.1637  <S**2>=0.000
     309 -> 313       -0.37083
     310 -> 314        0.51983
     311 -> 315       -0.16202
     312 -> 316       -0.22776

 Excited State   5:      Singlet-A      2.2596 eV  548.70 nm  f=0.0001  <S**2>=0.000
     312 -> 313        0.70474

 The electronic state is 1-A.
 Alpha  occ. eigenvalues --  -46.87566 -46.87148 -19.26465 -19.25790 -19.19246
 Alpha  occ. eigenvalues --  -19.18631 -19.18441 -19.18318 -19.18154 -19.17623
 Alpha  occ. eigenvalues --  -14.42405 -14.41802 -14.41276 -14.40865 -14.39265
 Alpha  occ. eigenvalues --  -14.38768 -14.38522 -14.37963 -10.39147 -10.38507
 Alpha  occ. eigenvalues --  -10.35307 -10.34953 -10.34315 -10.33842 -10.31937
 Alpha  occ. eigenvalues --  -10.31298 -10.31245 -10.30943 -10.30770 -10.30324
 Alpha  occ. eigenvalues --  -10.30297 -10.30245 -10.30035 -10.29962 -10.29934
 Alpha  occ. eigenvalues --  -10.29820 -10.29648 -10.29417 -10.29340 -10.29333
 Alpha  occ. eigenvalues --  -10.29064 -10.28645 -10.28632 -10.28580 -10.28342
 Alpha  occ. eigenvalues --  -10.28194 -10.28102 -10.28076 -10.27940 -10.27724
 Alpha  occ. eigenvalues --  -10.27587 -10.27499 -10.27415 -10.27410 -10.27395
 Alpha  occ. eigenvalues --  -10.27379 -10.27285 -10.27183 -10.27129 -10.27094
 Alpha  occ. eigenvalues --  -10.27092 -10.27084 -10.26991 -10.26796 -10.26654
 Alpha  occ. eigenvalues --  -10.26600 -10.26561 -10.26318 -10.26008 -10.25991
 Alpha  occ. eigenvalues --  -10.25945 -10.25884 -10.25861 -10.25830 -10.25715
 Alpha  occ. eigenvalues --  -10.25711 -10.25451 -10.25371 -10.25321 -10.25114
 Alpha  occ. eigenvalues --  -10.24826 -10.24616 -10.24599 -10.24553 -10.24238
 Alpha  occ. eigenvalues --  -10.24236  -3.16314  -3.15886  -1.91196  -1.90785
 Alpha  occ. eigenvalues --   -1.90766  -1.90623  -1.90354  -1.90197  -1.16749
 Alpha  occ. eigenvalues --   -1.16123  -1.08762  -1.08089  -1.07019  -1.06882
 Alpha  occ. eigenvalues --   -1.06735  -1.06075  -1.04414  -1.03938  -1.03581
 Alpha  occ. eigenvalues --   -1.03175  -1.02958  -1.02628  -1.02035  -1.01810
 Alpha  occ. eigenvalues --   -0.91949  -0.91377  -0.89409  -0.89076  -0.89072
 Alpha  occ. eigenvalues --   -0.88564  -0.88130  -0.87840  -0.87708  -0.87598
 Alpha  occ. eigenvalues --   -0.87307  -0.87050  -0.87038  -0.86636  -0.84924
 Alpha  occ. eigenvalues --   -0.84400  -0.83797  -0.83554  -0.82848  -0.82593
 Alpha  occ. eigenvalues --   -0.82426  -0.82092  -0.81604  -0.81071  -0.80406
 Alpha  occ. eigenvalues --   -0.80041  -0.78555  -0.78177  -0.77062  -0.76863
 Alpha  occ. eigenvalues --   -0.76713  -0.76429  -0.75811  -0.75380  -0.74740
 Alpha  occ. eigenvalues --   -0.74446  -0.72616  -0.72211  -0.71523  -0.71130
 Alpha  occ. eigenvalues --   -0.69659  -0.69551  -0.68761  -0.68310  -0.67545
 Alpha  occ. eigenvalues --   -0.67112  -0.67081  -0.66623  -0.65216  -0.64720
 Alpha  occ. eigenvalues --   -0.64688  -0.64607  -0.64304  -0.64127  -0.64105
 Alpha  occ. eigenvalues --   -0.63774  -0.62298  -0.61789  -0.60260  -0.59869
 Alpha  occ. eigenvalues --   -0.59721  -0.59187  -0.58931  -0.58434  -0.58382
 Alpha  occ. eigenvalues --   -0.57947  -0.57572  -0.57174  -0.57030  -0.56796
 Alpha  occ. eigenvalues --   -0.56141  -0.55903  -0.55734  -0.55459  -0.55409
 Alpha  occ. eigenvalues --   -0.55205  -0.54977  -0.54900  -0.54461  -0.54068
 Alpha  occ. eigenvalues --   -0.53838  -0.53282  -0.53156  -0.53099  -0.52857
 Alpha  occ. eigenvalues --   -0.52775  -0.52643  -0.52588  -0.52390  -0.52294
 Alpha  occ. eigenvalues --   -0.52183  -0.52060  -0.51783  -0.51583  -0.51395
 Alpha  occ. eigenvalues --   -0.51170  -0.50997  -0.50673  -0.50386  -0.49956
 Alpha  occ. eigenvalues --   -0.49898  -0.49790  -0.49555  -0.49421  -0.49329
 Alpha  occ. eigenvalues --   -0.49165  -0.49082  -0.48953  -0.48646  -0.48566
 Alpha  occ. eigenvalues --   -0.48523  -0.48349  -0.48264  -0.48097  -0.47980
 Alpha  occ. eigenvalues --   -0.47893  -0.47540  -0.47155  -0.47049  -0.46732
 Alpha  occ. eigenvalues --   -0.46632  -0.46485  -0.46285  -0.46202  -0.46028
 Alpha  occ. eigenvalues --   -0.45982  -0.45808  -0.45774  -0.45653  -0.45327
 Alpha  occ. eigenvalues --   -0.45139  -0.44769  -0.44481  -0.44399  -0.44118
 Alpha  occ. eigenvalues --   -0.44073  -0.44008  -0.43984  -0.43885  -0.43667
 Alpha  occ. eigenvalues --   -0.43581  -0.43531  -0.43456  -0.43323  -0.42988
 Alpha  occ. eigenvalues --   -0.42961  -0.42867  -0.42829  -0.42530  -0.42454
 Alpha  occ. eigenvalues --   -0.42266  -0.42188  -0.41880  -0.41651  -0.41549
 Alpha  occ. eigenvalues --   -0.41379  -0.41159  -0.41005  -0.40932  -0.40638
 Alpha  occ. eigenvalues --   -0.40612  -0.40610  -0.40408  -0.40387  -0.40292
 Alpha  occ. eigenvalues --   -0.40129  -0.40107  -0.39567  -0.39325  -0.39103
 Alpha  occ. eigenvalues --   -0.38258  -0.38028  -0.37573  -0.37200  -0.37182
 Alpha  occ. eigenvalues --   -0.37124  -0.36819  -0.36810  -0.36650  -0.36206
 Alpha  occ. eigenvalues --   -0.36154  -0.35666  -0.34180  -0.33889  -0.33686
 Alpha  occ. eigenvalues --   -0.33180  -0.33103  -0.32585  -0.31190  -0.30900
 Alpha  occ. eigenvalues --   -0.30851  -0.30447  -0.30050  -0.29485  -0.29262
 Alpha  occ. eigenvalues --   -0.29160  -0.28834  -0.28716  -0.23956  -0.23463
 Alpha  occ. eigenvalues --   -0.21040  -0.20520
 Alpha virt. eigenvalues --   -0.08725  -0.08162  -0.01597  -0.01173   0.00036
 Alpha virt. eigenvalues --    0.00537   0.02216   0.02743   0.03273   0.04059
 Alpha virt. eigenvalues --    0.04798   0.05087   0.05238   0.05662   0.06094

 Mulliken charges:
               1
     1  Mg   0.844133
     2  C    0.000504
     3  C   -0.087074
     4  C   -0.049313
     5  C   -0.065574
     6  N   -0.256744
     7  C   -0.048881
     8  C   -0.016637
     9  C   -0.089082
    10  C    0.050373
    11  C    0.105247
    12  C    0.054679
    13  C   -0.073580
    14  H    0.029237
    15  N   -0.433474
    16  C    0.176020
    17  C   -0.170058
    18  C   -0.005885
    19  C    0.146681
    20  C    0.111425
    21  C    0.010005
    22  O   -0.253350
    23  C    0.061745
    24  N   -0.341185
    25  C    0.041783
    26  C   -0.027876
    27  C   -0.023609
    28  C    0.074044
    29  C    0.076708
    30  C    0.037880
    31  C   -0.013413
    32  N   -0.310245
    33  C    0.080065
    34  C   -0.171244
    35  C    0.007321
    36  C    0.083400
    37  C    0.127602
    38  C    0.045782
    39  O   -0.190919
    40  C   -0.006068
    41  C    0.211602
    42  O   -0.253478
    43  O   -0.305561
    44  C    0.159009
    45  H   -0.018897
    46  H   -0.019447
    47  H   -0.043732
    48  H   -0.001690
    49  H   -0.003799
    50  H    0.024478
    51  H    0.015871
    52  H    0.015040
    53  H    0.021314
    54  H    0.051177
    55  H    0.016899
    56  H    0.014975
    57  H    0.005524
    58  H    0.022822
    59  H    0.049436
    60  H    0.037006
    61  H    0.032406
    62  H    0.036860
    63  H    0.013682
    64  H    0.008689
    65  H    0.021578
    66  H    0.012859
    67  H    0.004013
    68  H    0.004400
    69  H    0.003956
    70  H    0.005793
    71  H    0.023424
    72  H    0.032760
    73  H    0.046274
    74  H    0.007743
    75  H    0.044661
    76  H    0.033650
    77  H    0.040980
    78  H    0.045188
    79  H    0.053100
    80  Mg   0.840516
    81  C   -0.015655
    82  C   -0.087698
    83  C   -0.045317
    84  C   -0.065014
    85  N   -0.254767
    86  C   -0.049067
    87  C   -0.015845
    88  C   -0.090700
    89  C    0.046644
    90  C    0.114511
    91  C    0.062132
    92  C   -0.077600
    93  H    0.034296
    94  N   -0.423422
    95  C    0.163847
    96  C   -0.174419
    97  C   -0.007414
    98  C    0.152523
    99  C    0.099418
   100  C    0.015978
   101  O   -0.253139
   102  C    0.060960
   103  N   -0.350068
   104  C    0.037734
   105  C   -0.020078
   106  C   -0.033986
   107  C    0.088683
   108  C    0.073751
   109  C    0.033698
   110  C   -0.009559
   111  N   -0.323736
   112  C    0.077541
   113  C   -0.163440
   114  C   -0.000542
   115  C    0.097077
   116  C    0.126850
   117  C    0.043026
   118  O   -0.193938
   119  C    0.001074
   120  C    0.208905
   121  O   -0.246570
   122  O   -0.305844
   123  C    0.151682
   124  H   -0.019881
   125  H   -0.015545
   126  H   -0.039024
   127  H   -0.001866
   128  H   -0.004133
   129  H    0.021787
   130  H    0.014387
   131  H    0.016009
   132  H    0.015491
   133  H    0.040515
   134  H    0.019504
   135  H    0.019812
   136  H    0.008747
   137  H    0.025925
   138  H    0.040527
   139  H    0.038003
   140  H    0.036426
   141  H    0.034646
   142  H    0.014554
   143  H    0.012603
   144  H    0.024977
   145  H    0.011368
   146  H    0.005681
   147  H    0.005485
   148  H    0.004887
   149  H    0.010125
   150  H    0.018794
   151  H    0.030959
   152  H    0.048905
   153  H    0.014503
   154  H    0.043722
   155  H    0.033871
   156  H    0.040458
   157  H    0.050527
   158  H    0.053235
 Sum of Mulliken charges =  -0.00000

 Dipole moment (field-independent basis, Debye):
    X=              1.9615    Y=              3.1141    Z=             -4.0404  Tot=              5.4653
 Quadrupole moment (field-independent basis, Debye-Ang):
   XX=           -476.4827   YY=           -467.0506   ZZ=           -530.3892
   XY=             21.2026   XZ=              8.8471   YZ=            -24.6399

 Normal termination of Gaussian 16 at Thu Sep  9 20:33:13 2021.
