 Gaussian 16, Revision A.03,
 Gaussian 16:  ES64L-G16RevA.03 25-Dec-2016

 -----------------------------------
 #p cam-b3lyp/Def2SVP td=(nstates=5)
 -----------------------------------

 --------------------------------
 TDDFT excited states in gaussian
 --------------------------------
 Symbolic Z-matrix:
 Charge =  0 Multiplicity = 1

                         Standard orientation:
 ---------------------------------------------------------------------
 Center     Atomic      Atomic             Coordinates (Angstroms)
 Number     Number       Type             X           Y           Z
 ---------------------------------------------------------------------
      1         12           0        5.557303    0.315223    0.632392
      2          6           0        5.786562   -2.765328   -1.175884
      3          6           0        6.710266    1.876197   -2.174226
      4          6           0        5.795769    2.975686    2.341688
      5          6           0        5.523370   -1.576246    3.559310
      6          7           0        6.137713   -0.454916   -1.360259
      7          6           0        6.122424   -1.648778   -1.944751
      8          6           0        6.423919   -1.592724   -3.472276
      9          6           0        7.233844   -0.220188   -3.518800
     10          6           0        6.634168    0.457173   -2.299172
     11          6           0        8.733581   -0.389976   -3.298654
     12          6           0        5.118470   -1.517064   -4.333560
     13          6           0        5.305972   -1.786990   -5.829333
     14          1           0        4.256192   -2.490179   -6.551022
     15          7           0        5.691346    2.200265    0.056632
     16          6           0        6.170243    2.653480   -1.126813
     17          6           0        6.060341    4.127169   -1.073484
     18          6           0        5.655766    4.503528    0.309544
     19          6           0        5.724462    3.226886    0.973507
     20          6           0        6.279704    5.012173   -2.261927
     21          6           0        5.278812    5.808657    0.936183
     22          8           0        5.186826    5.953442    2.203128
     23          6           0        5.104120    6.950774    0.020709
     24          7           0        5.868277    0.673971    2.665180
     25          6           0        5.871088    1.919120    3.153626
     26          6           0        5.826952    1.917587    4.652956
     27          6           0        5.546963    0.406187    5.085422
     28          6           0        5.561107   -0.247450    3.681560
     29          6           0        7.091221    2.424925    5.360233
     30          6           0        4.326016    0.152531    6.004860
     31          6           0        3.047254    0.444155    5.251985
     32          7           0        5.460639   -1.794512    1.133112
     33          6           0        5.481722   -2.358168    2.417059
     34          6           0        5.505339   -3.822456    2.245681
     35          6           0        5.513146   -4.009841    0.864858
     36          6           0        5.522036   -2.742623    0.214958
     37          6           0        5.574917   -4.783066    3.292973
     38          6           0        5.540927   -4.985650   -0.212584
     39          8           0        5.450797   -6.212690   -0.273763
     40          6           0        5.842079   -4.218897   -1.575384
     41          6           0        4.852355   -4.705154   -2.598766
     42          8           0        3.635871   -4.451880   -2.483081
     43          8           0        5.513183   -5.181325   -3.665120
     44          6           0        4.589122   -5.653163   -4.730781
     45          1           0        7.284648    2.440902   -2.911203
     46          1           0        5.767970    3.867832    2.970767
     47          1           0        5.428362   -2.231609    4.427023
     48          1           0        7.048229   -2.406124   -3.842466
     49          1           0        7.011429    0.353283   -4.418458
     50          1           0        8.981604   -1.413306   -3.017225
     51          1           0        8.989388    0.298947   -2.493396
     52          1           0        9.293799   -0.052469   -4.171020
     53          1           0        4.773472   -0.483885   -4.373302
     54          1           0        4.356191   -2.189584   -3.938627
     55          1           0        6.277780   -2.236931   -6.034396
     56          1           0        5.336189   -0.828805   -6.348147
     57          1           0        6.725908    4.465285   -3.091601
     58          1           0        7.037428    5.742730   -1.979350
     59          1           0        5.367536    5.526816   -2.564294
     60          1           0        6.032211    7.118999   -0.526005
     61          1           0        4.749034    7.777222    0.635320
     62          1           0        4.351328    6.693608   -0.725025
     63          1           0        5.019964    2.549797    5.021069
     64          1           0        6.385831   -0.024818    5.632424
     65          1           0        6.908736    3.258744    6.038578
     66          1           0        7.819628    2.694674    4.596068
     67          1           0        7.636573    1.666547    5.921367
     68          1           0        4.352458    0.822351    6.863690
     69          1           0        4.276337   -0.868898    6.382308
     70          1           0        2.941355    1.522946    5.360743
     71          1           0        2.207738   -0.078817    5.711249
     72          1           0        3.154778    0.232929    4.187885
     73          1           0        4.864884   -5.568457    3.034162
     74          1           0        5.336213   -4.335364    4.257435
     75          1           0        6.619373   -5.085841    3.220203
     76          1           0        6.868100   -4.460672   -1.850967
     77          1           0        4.848575   -6.690073   -4.944636
     78          1           0        4.664242   -4.934166   -5.546751
     79          1           0        3.540889   -5.757333   -4.448478
     80         12           0       -4.994140    0.710325   -0.176544
     81          6           0       -7.705314   -1.598034    0.270678
     82          6           0       -7.237942    2.834341   -1.621711
     83          6           0       -2.557219    2.572412   -0.989878
     84          6           0       -2.818160   -1.980397    0.236799
     85          7           0       -7.163616    0.528798   -0.567277
     86          6           0       -8.099534   -0.368841   -0.297755
     87          6           0       -9.548981    0.107499   -0.583689
     88          6           0       -9.219874    1.235451   -1.678353
     89          6           0       -7.797233    1.586417   -1.247564
     90          6           0       -9.170003    0.698786   -3.099208
     91          6           0      -10.237453    0.722105    0.685290
     92          6           0      -11.749428    0.923605    0.562558
     93          1           0      -12.576928    0.722909    1.748906
     94          7           0       -4.960130    2.622309   -0.707340
     95          6           0       -5.967148    3.331830   -1.258512
     96          6           0       -5.432223    4.684221   -1.479994
     97          6           0       -3.977407    4.670313   -1.166910
     98          6           0       -3.766275    3.251914   -0.957987
     99          6           0       -6.297307    5.847919   -1.868389
    100          6           0       -2.944162    5.752746   -1.083526
    101          8           0       -1.691783    5.485424   -1.029570
    102          6           0       -3.436102    7.136021   -1.161068
    103          7           0       -2.988974    0.319947   -0.562894
    104          6           0       -2.132033    1.317396   -0.843390
    105          6           0       -0.702064    0.833076   -0.811761
    106          6           0       -0.763285   -0.648047   -0.211683
    107          6           0       -2.294035   -0.803718   -0.077649
    108          6           0        0.021392    0.806983   -2.157987
    109          6           0        0.121106   -0.940955    1.031189
    110          6           0       -0.390130   -0.164111    2.223053
    111          7           0       -5.181316   -1.371700    0.369513
    112          6           0       -4.145018   -2.326909    0.457635
    113          6           0       -4.777356   -3.629520    0.750522
    114          6           0       -6.150400   -3.343752    0.789996
    115          6           0       -6.360508   -1.964569    0.519430
    116          6           0       -4.096584   -4.871492    0.892547
    117          6           0       -7.470578   -3.897298    0.988527
    118          8           0       -7.910069   -4.993609    1.333045
    119          6           0       -8.544896   -2.816745    0.536164
    120          6           0       -9.592669   -2.725054    1.611468
    121          8           0       -9.302284   -2.295681    2.741926
    122          8           0      -10.802560   -2.951896    1.068277
    123          6           0      -11.875978   -2.860849    2.093601
    124          1           0       -7.807954    3.478277   -2.292031
    125          1           0       -1.672728    3.191446   -1.157017
    126          1           0       -2.201131   -2.848881    0.476941
    127          1           0      -10.199062   -0.646668   -1.010761
    128          1           0       -9.874838    2.095822   -1.568172
    129          1           0       -9.247708   -0.377961   -3.126145
    130          1           0       -8.218052    1.019595   -3.501586
    131          1           0       -9.935126    1.183552   -3.712331
    132          1           0       -9.917159    1.766072    0.796164
    133          1           0      -10.020541    0.136736    1.557592
    134          1           0      -12.169060    0.383135   -0.294621
    135          1           0      -11.942173    1.975223    0.336769
    136          1           0       -7.293998    5.519285   -2.187765
    137          1           0       -5.855227    6.288614   -2.768509
    138          1           0       -6.349767    6.612085   -1.089947
    139          1           0       -3.971731    7.276902   -2.096865
    140          1           0       -2.561124    7.767157   -0.993899
    141          1           0       -4.162133    7.294789   -0.355909
    142          1           0       -0.098502    1.451950   -0.159209
    143          1           0       -0.434093   -1.398747   -0.945115
    144          1           0        0.953133    1.403547   -2.164409
    145          1           0       -0.661436    1.160036   -2.919321
    146          1           0        0.281743   -0.185007   -2.523190
    147          1           0        1.145048   -0.601944    0.855777
    148          1           0        0.170025   -1.993862    1.288053
    149          1           0        0.063023    0.822468    2.087399
    150          1           0       -0.060035   -0.625799    3.151452
    151          1           0       -1.477781   -0.037001    2.172854
    152          1           0       -4.532370   -5.369290    1.748578
    153          1           0       -3.025812   -4.725779    1.018951
    154          1           0       -4.337083   -5.336603   -0.067196
    155          1           0       -8.962587   -3.148421   -0.415202
    156          1           0      -12.429333   -3.804493    2.061498
    157          1           0      -12.438726   -1.938588    1.855908
    158          1           0      -11.573949   -2.828082    3.133874
 ---------------------------------------------------------------------

 SCF Done:  E(RCAM-B3LYP) =  -4069.81257375     A.U. after   19 cycles

 Excitation energies and oscillator strengths:

 Excited State   1:      Singlet-A      1.6535 eV  749.81 nm  f=0.0044  <S**2>=0.000
     309 -> 315       -0.11194
     310 -> 316        0.12564
     311 -> 313       -0.45508
     312 -> 314        0.51503
 This state for optimization and/or second-order correction.
 Total Energy, E(TD-HF/TD-DFT) =  -4069.75180747
 Copying the excited state density for this state as the 1-particle RhoCI density.

 Excited State   2:      Singlet-A      1.6976 eV  730.36 nm  f=0.7085  <S**2>=0.000
     309 -> 315        0.13533
     310 -> 316        0.11826
     311 -> 313        0.51312
     312 -> 314        0.45333

 Excited State   3:      Singlet-A      2.1839 eV  567.71 nm  f=0.1106  <S**2>=0.000
     310 -> 314        0.64288
     312 -> 316       -0.27148

 Excited State   4:      Singlet-A      2.1969 eV  564.37 nm  f=0.0923  <S**2>=0.000
     309 -> 313        0.64025
     311 -> 315       -0.28011

 Excited State   5:      Singlet-A      2.4724 eV  501.48 nm  f=0.0000  <S**2>=0.000
     312 -> 313        0.70640

 The electronic state is 1-A.
 Alpha  occ. eigenvalues --  -46.87899 -46.87461 -19.26405 -19.26216 -19.19169
 Alpha  occ. eigenvalues --  -19.19018 -19.18736 -19.18586 -19.18236 -19.17874
 Alpha  occ. eigenvalues --  -14.42522 -14.42306 -14.41515 -14.41140 -14.39465
 Alpha  occ. eigenvalues --  -14.39161 -14.38676 -14.38397 -10.39219 -10.38945
 Alpha  occ. eigenvalues --  -10.35361 -10.35269 -10.34462 -10.34051 -10.31785
 Alpha  occ. eigenvalues --  -10.31639 -10.31488 -10.31113 -10.30962 -10.30858
 Alpha  occ. eigenvalues --  -10.30645 -10.30566 -10.30237 -10.30191 -10.30153
 Alpha  occ. eigenvalues --  -10.29986 -10.29906 -10.29669 -10.29662 -10.29291
 Alpha  occ. eigenvalues --  -10.29239 -10.29203 -10.28824 -10.28622 -10.28573
 Alpha  occ. eigenvalues --  -10.28544 -10.28425 -10.28226 -10.28183 -10.27988
 Alpha  occ. eigenvalues --  -10.27837 -10.27806 -10.27785 -10.27606 -10.27530
 Alpha  occ. eigenvalues --  -10.27479 -10.27474 -10.27470 -10.27429 -10.27333
 Alpha  occ. eigenvalues --  -10.27293 -10.27281 -10.27243 -10.27144 -10.27107
 Alpha  occ. eigenvalues --  -10.26883 -10.26810 -10.26563 -10.26332 -10.26287
 Alpha  occ. eigenvalues --  -10.26214 -10.26213 -10.26075 -10.25898 -10.25888
 Alpha  occ. eigenvalues --  -10.25775 -10.25673 -10.25545 -10.25445 -10.25138
 Alpha  occ. eigenvalues --  -10.24890 -10.24836 -10.24745 -10.24678 -10.24490
 Alpha  occ. eigenvalues --  -10.24437  -3.16633  -3.16211  -1.91516  -1.91100
 Alpha  occ. eigenvalues --   -1.91094  -1.90942  -1.90682  -1.90519  -1.16757
 Alpha  occ. eigenvalues --   -1.16508  -1.08702  -1.08483  -1.07129  -1.06844
 Alpha  occ. eigenvalues --   -1.06802  -1.06784  -1.04649  -1.04308  -1.03820
 Alpha  occ. eigenvalues --   -1.03462  -1.03296  -1.02825  -1.02475  -1.01906
 Alpha  occ. eigenvalues --   -0.92042  -0.91797  -0.89567  -0.89260  -0.89238
 Alpha  occ. eigenvalues --   -0.88989  -0.88329  -0.87957  -0.87927  -0.87732
 Alpha  occ. eigenvalues --   -0.87567  -0.87483  -0.87251  -0.86962  -0.85040
 Alpha  occ. eigenvalues --   -0.84833  -0.83979  -0.83620  -0.82922  -0.82773
 Alpha  occ. eigenvalues --   -0.82666  -0.82486  -0.81661  -0.81418  -0.80643
 Alpha  occ. eigenvalues --   -0.80265  -0.78808  -0.78450  -0.77262  -0.77000
 Alpha  occ. eigenvalues --   -0.76954  -0.76701  -0.75986  -0.75667  -0.74939
 Alpha  occ. eigenvalues --   -0.74571  -0.72826  -0.72483  -0.71725  -0.71382
 Alpha  occ. eigenvalues --   -0.69948  -0.69460  -0.68919  -0.68657  -0.67683
 Alpha  occ. eigenvalues --   -0.67412  -0.67254  -0.67054  -0.65357  -0.65104
 Alpha  occ. eigenvalues --   -0.64920  -0.64679  -0.64564  -0.64465  -0.64316
 Alpha  occ. eigenvalues --   -0.63947  -0.62383  -0.62094  -0.60445  -0.60156
 Alpha  occ. eigenvalues --   -0.59869  -0.59625  -0.59045  -0.58786  -0.58559
 Alpha  occ. eigenvalues --   -0.58225  -0.57671  -0.57378  -0.57347  -0.57023
 Alpha  occ. eigenvalues --   -0.56350  -0.56062  -0.56005  -0.55726  -0.55520
 Alpha  occ. eigenvalues --   -0.55398  -0.55293  -0.55015  -0.54595  -0.54260
 Alpha  occ. eigenvalues --   -0.53965  -0.53755  -0.53334  -0.53230  -0.53040
 Alpha  occ. eigenvalues --   -0.52984  -0.52963  -0.52726  -0.52723  -0.52535
 Alpha  occ. eigenvalues --   -0.52477  -0.52112  -0.51976  -0.51651  -0.51634
 Alpha  occ. eigenvalues --   -0.51508  -0.51258  -0.50998  -0.50498  -0.50332
 Alpha  occ. eigenvalues --   -0.50055  -0.49913  -0.49817  -0.49634  -0.49531
 Alpha  occ. eigenvalues --   -0.49334  -0.49251  -0.49148  -0.49036  -0.48923
 Alpha  occ. eigenvalues --   -0.48660  -0.48504  -0.48415  -0.48386  -0.48197
 Alpha  occ. eigenvalues --   -0.48136  -0.47724  -0.47409  -0.47319  -0.46931
 Alpha  occ. eigenvalues --   -0.46852  -0.46616  -0.46492  -0.46412  -0.46383
 Alpha  occ. eigenvalues --   -0.46224  -0.46056  -0.45895  -0.45857  -0.45616
 Alpha  occ. eigenvalues --   -0.45237  -0.44987  -0.44643  -0.44512  -0.44355
 Alpha  occ. eigenvalues --   -0.44272  -0.44180  -0.44141  -0.44022  -0.43963
 Alpha  occ. eigenvalues --   -0.43862  -0.43782  -0.43565  -0.43439  -0.43369
 Alpha  occ. eigenvalues --   -0.43201  -0.43079  -0.42793  -0.42768  -0.42709
 Alpha  occ. eigenvalues --   -0.42692  -0.42318  -0.42067  -0.41762  -0.41737
 Alpha  occ. eigenvalues --   -0.41590  -0.41479  -0.41275  -0.41192  -0.40927
 Alpha  occ. eigenvalues --   -0.40805  -0.40772  -0.40615  -0.40589  -0.40516
 Alpha  occ. eigenvalues --   -0.40290  -0.40227  -0.40094  -0.39481  -0.39121
 Alpha  occ. eigenvalues --   -0.38516  -0.38104  -0.37823  -0.37497  -0.37368
 Alpha  occ. eigenvalues --   -0.37334  -0.37041  -0.37005  -0.36818  -0.36603
 Alpha  occ. eigenvalues --   -0.36268  -0.35993  -0.34356  -0.34051  -0.33906
 Alpha  occ. eigenvalues --   -0.33709  -0.33251  -0.32971  -0.31281  -0.31145
 Alpha  occ. eigenvalues --   -0.31081  -0.30777  -0.30102  -0.29777  -0.29482
 Alpha  occ. eigenvalues --   -0.29377  -0.29149  -0.29013  -0.24150  -0.23832
 Alpha  occ. eigenvalues --   -0.21183  -0.20914
 Alpha virt. eigenvalues --   -0.08817  -0.08599  -0.01801  -0.01491  -0.00056
 Alpha virt. eigenvalues --    0.00128   0.02103   0.02194   0.02470   0.03426
 Alpha virt. eigenvalues --    0.04646   0.04908   0.04968   0.05315   0.06037

 Mulliken charges:
               1
     1  Mg   0.830356
     2  C   -0.002725
     3  C   -0.093561
     4  C   -0.045141
     5  C   -0.063500
     6  N   -0.256297
     7  C   -0.054112
     8  C   -0.013618
     9  C   -0.086987
    10  C    0.046317
    11  C    0.104708
    12  C    0.053100
    13  C   -0.071928
    14  H    0.035921
    15  N   -0.434065
    16  C    0.168596
    17  C   -0.176100
    18  C   -0.002695
    19  C    0.148891
    20  C    0.109910
    21  C    0.014695
    22  O   -0.249019
    23  C    0.061268
    24  N   -0.339964
    25  C    0.040987
    26  C   -0.028401
    27  C   -0.023993
    28  C    0.073399
    29  C    0.076074
    30  C    0.035520
    31  C   -0.006474
    32  N   -0.310452
    33  C    0.078604
    34  C   -0.170915
    35  C    0.008066
    36  C    0.080574
    37  C    0.127573
    38  C    0.045345
    39  O   -0.188569
    40  C   -0.005540
    41  C    0.213422
    42  O   -0.259507
    43  O   -0.304327
    44  C    0.157612
    45  H   -0.017156
    46  H   -0.016006
    47  H   -0.041865
    48  H    0.001058
    49  H   -0.003666
    50  H    0.025601
    51  H    0.016715
    52  H    0.016988
    53  H    0.011277
    54  H    0.042542
    55  H    0.018266
    56  H    0.018520
    57  H    0.005594
    58  H    0.027025
    59  H    0.042238
    60  H    0.036170
    61  H    0.036545
    62  H    0.035848
    63  H    0.017324
    64  H    0.009701
    65  H    0.023742
    66  H    0.012631
    67  H    0.004923
    68  H    0.007088
    69  H    0.004627
    70  H    0.010470
    71  H    0.019531
    72  H    0.027021
    73  H    0.046891
    74  H    0.009190
    75  H    0.046327
    76  H    0.035573
    77  H    0.043514
    78  H    0.046670
    79  H    0.053108
    80  Mg   0.837475
    81  C   -0.017299
    82  C   -0.088314
    83  C   -0.045496
    84  C   -0.064188
    85  N   -0.254620
    86  C   -0.049773
    87  C   -0.015102
    88  C   -0.090425
    89  C    0.045628
    90  C    0.114544
    91  C    0.062605
    92  C   -0.077650
    93  H    0.034485
    94  N   -0.423290
    95  C    0.162647
    96  C   -0.175284
    97  C   -0.008497
    98  C    0.152078
    99  C    0.099623
   100  C    0.015337
   101  O   -0.254481
   102  C    0.061367
   103  N   -0.350093
   104  C    0.037495
   105  C   -0.020910
   106  C   -0.037481
   107  C    0.088067
   108  C    0.070750
   109  C    0.032626
   110  C   -0.009421
   111  N   -0.324247
   112  C    0.078351
   113  C   -0.162459
   114  C    0.002067
   115  C    0.096458
   116  C    0.131306
   117  C    0.042519
   118  O   -0.187941
   119  C    0.000904
   120  C    0.211204
   121  O   -0.251176
   122  O   -0.305644
   123  C    0.152133
   124  H   -0.020460
   125  H   -0.016561
   126  H   -0.036084
   127  H   -0.000892
   128  H   -0.004773
   129  H    0.022353
   130  H    0.014319
   131  H    0.015681
   132  H    0.013873
   133  H    0.037633
   134  H    0.020629
   135  H    0.019357
   136  H    0.008414
   137  H    0.025126
   138  H    0.039245
   139  H    0.037654
   140  H    0.035247
   141  H    0.034208
   142  H    0.013155
   143  H    0.021074
   144  H    0.023964
   145  H    0.009834
   146  H    0.011700
   147  H    0.008586
   148  H    0.010113
   149  H    0.009956
   150  H    0.018957
   151  H    0.028872
   152  H    0.045529
   153  H    0.011541
   154  H    0.047593
   155  H    0.034771
   156  H    0.043710
   157  H    0.049286
   158  H    0.053438
 Sum of Mulliken charges =  -0.00000

 Dipole moment (field-independent basis, Debye):
    X=              1.1639    Y=              6.3085    Z=             -5.1634  Tot=              8.2348
 Quadrupole moment (field-independent basis, Debye-Ang):
   XX=           -450.4076   YY=           -545.8319   ZZ=           -478.3502
   XY=            -29.8567   XZ=              7.4407   YZ=            -10.9565

 Normal termination of Gaussian 16 at Sat Sep 11 02:42:50 2021.
