 Gaussian 16, Revision A.03,
 Gaussian 16:  ES64L-G16RevA.03 25-Dec-2016

 -----------------------------------
 #p cam-b3lyp/Def2SVP td=(nstates=5)
 -----------------------------------

 --------------------------------
 TDDFT excited states in gaussian
 --------------------------------
 Symbolic Z-matrix:
 Charge =  0 Multiplicity = 1

                         Standard orientation:
 ---------------------------------------------------------------------
 Center     Atomic      Atomic             Coordinates (Angstroms)
 Number     Number       Type             X           Y           Z
 ---------------------------------------------------------------------
      1         12           0       -6.506942    0.612175    0.549125
      2          6           0       -6.958370   -1.953453   -1.905663
      3          6           0       -7.172824   -1.747823    2.921903
      4          6           0       -6.562010    2.944211    2.697425
      5          6           0       -6.999808    2.934721   -2.002056
      6          7           0       -6.987948   -1.543680    0.402262
      7          6           0       -7.071304   -2.419825   -0.594028
      8          6           0       -7.214748   -3.893817   -0.110141
      9          6           0       -7.831822   -3.625343    1.335245
     10          6           0       -7.269507   -2.237123    1.585389
     11          6           0       -9.355075   -3.546909    1.342424
     12          6           0       -5.833798   -4.625900   -0.016538
     13          6           0       -5.910017   -6.148363    0.130604
     14          1           0       -4.895686   -6.966175   -0.517210
     15          7           0       -6.339726    0.545979    2.516485
     16          6           0       -6.639885   -0.502666    3.319936
     17          6           0       -6.345673   -0.056918    4.698859
     18          6           0       -6.030599    1.397857    4.649322
     19          6           0       -6.327577    1.697107    3.271777
     20          6           0       -6.333289   -0.981349    5.877427
     21          6           0       -5.549777    2.367112    5.682514
     22          8           0       -5.562035    3.630635    5.487750
     23          6           0       -5.141437    1.796549    6.978955
     24          7           0       -6.962790    2.645584    0.426304
     25          6           0       -6.851244    3.443483    1.493965
     26          6           0       -6.952016    4.889426    1.107917
     27          6           0       -6.913028    4.924634   -0.488013
     28          6           0       -6.876693    3.399950   -0.756877
     29          6           0       -8.202010    5.629103    1.604308
     30          6           0       -5.829308    5.815555   -1.145456
     31          6           0       -4.457145    5.243122   -0.868714
     32          7           0       -6.732937    0.544758   -1.608519
     33          6           0       -6.950176    1.631487   -2.467880
     34          6           0       -7.146668    1.079653   -3.821002
     35          6           0       -7.045904   -0.299750   -3.650886
     36          6           0       -6.828069   -0.592537   -2.274254
     37          6           0       -7.440432    1.831148   -4.992920
     38          6           0       -7.096136   -1.595724   -4.307988
     39          8           0       -7.160235   -1.972260   -5.479144
     40          6           0       -7.163025   -2.724017   -3.186245
     41          6           0       -6.150865   -3.778796   -3.541609
     42          8           0       -4.928625   -3.528660   -3.511140
     43          8           0       -6.762205   -4.970093   -3.628879
     44          6           0       -5.808915   -6.065678   -3.949950
     45          1           0       -7.595697   -2.342869    3.733716
     46          1           0       -6.479496    3.786429    3.387569
     47          1           0       -7.074341    3.603390   -2.861579
     48          1           0       -7.900651   -4.501363   -0.700776
     49          1           0       -7.451557   -4.327520    2.076910
     50          1           0       -9.759448   -3.559959    0.330380
     51          1           0       -9.595711   -2.605339    1.836420
     52          1           0       -9.780381   -4.331285    1.969039
     53          1           0       -5.355677   -4.371787    0.929447
     54          1           0       -5.206572   -4.377459   -0.873387
     55          1           0       -6.907665   -6.521830   -0.102056
     56          1           0       -5.765858   -6.397528    1.181953
     57          1           0       -6.764728   -1.950640    5.630689
     58          1           0       -7.013632   -0.561858    6.618285
     59          1           0       -5.337341   -1.083000    6.308805
     60          1           0       -5.983030    1.259397    7.416832
     61          1           0       -4.743040    2.626936    7.560838
     62          1           0       -4.360123    1.055384    6.808157
     63          1           0       -6.109096    5.458106    1.498450
     64          1           0       -7.849319    5.288205   -0.912098
     65          1           0       -7.979125    6.512572    2.203065
     66          1           0       -8.812481    4.921115    2.164102
     67          1           0       -8.892390    5.937506    0.819655
     68          1           0       -5.851207    6.817272   -0.717636
     69          1           0       -5.948862    5.913103   -2.224549
     70          1           0       -4.223359    5.638067    0.119312
     71          1           0       -3.740507    5.597448   -1.610398
     72          1           0       -4.488327    4.156514   -0.786271
     73          1           0       -6.816543    1.417284   -5.785035
     74          1           0       -7.239581    2.891828   -4.843853
     75          1           0       -8.503432    1.619500   -5.107338
     76          1           0       -8.180435   -3.113811   -3.193987
     77          1           0       -6.178717   -6.559897   -4.848408
     78          1           0       -5.711486   -6.666596   -3.045621
     79          1           0       -4.815039   -5.759152   -4.277960
     80         12           0        6.670485    0.543070   -0.699741
     81          6           0        6.666915   -2.217539    1.593312
     82          6           0        6.055247    2.570690    1.973243
     83          6           0        6.220643    2.930541   -2.740580
     84          6           0        6.145389   -1.762608   -3.259793
     85          7           0        6.415654    0.114153    1.455107
     86          6           0        6.496519   -0.964921    2.218897
     87          6           0        6.469122   -0.676965    3.743992
     88          6           0        5.710210    0.737827    3.707979
     89          6           0        6.109076    1.193524    2.305862
     90          6           0        4.196688    0.610288    3.756241
     91          6           0        7.908977   -0.541113    4.352579
     92          6           0        7.966028   -0.567695    5.881558
     93          1           0        9.110307   -1.207948    6.524355
     94          7           0        6.693031    2.505590   -0.405507
     95          6           0        6.442173    3.158281    0.748764
     96          6           0        6.565507    4.590481    0.436089
     97          6           0        6.747438    4.735744   -1.033771
     98          6           0        6.535297    3.367679   -1.462116
     99          6           0        6.586007    5.655448    1.493848
    100          6           0        7.048267    5.913611   -1.910319
    101          8           0        6.927347    5.852762   -3.184882
    102          6           0        7.398340    7.167190   -1.226586
    103          7           0        6.034906    0.605899   -2.678239
    104          6           0        5.977553    1.769652   -3.349306
    105          6           0        5.760855    1.537862   -4.825688
    106          6           0        5.926912   -0.037943   -5.042109
    107          6           0        6.131581   -0.474702   -3.574882
    108          6           0        4.408450    1.987461   -5.378189
    109          6           0        6.965605   -0.497189   -6.101772
    110          6           0        8.363033   -0.157496   -5.635746
    111          7           0        6.627104   -1.610448   -0.868691
    112          6           0        6.363951   -2.369830   -2.029793
    113          6           0        6.330478   -3.789655   -1.623109
    114          6           0        6.555413   -3.755875   -0.238645
    115          6           0        6.697532   -2.408681    0.190716
    116          6           0        6.066755   -4.894653   -2.480755
    117          6           0        6.694366   -4.552881    0.958925
    118          8           0        6.752752   -5.758309    1.198255
    119          6           0        6.646829   -3.584731    2.218618
    120          6           0        7.783597   -3.954341    3.131662
    121          8           0        8.962618   -3.795931    2.769116
    122          8           0        7.295102   -4.227232    4.355293
    123          6           0        8.385874   -4.588535    5.299489
    124          1           0        5.637867    3.264805    2.703225
    125          1           0        6.164091    3.709365   -3.504590
    126          1           0        6.084735   -2.549047   -4.015110
    127          1           0        5.900887   -1.388887    4.330559
    128          1           0        6.106873    1.418008    4.457223
    129          1           0        3.876694   -0.418792    3.687393
    130          1           0        3.826539    1.178813    2.913151
    131          1           0        3.804937    1.105770    4.649189
    132          1           0        8.281194    0.474873    4.168305
    133          1           0        8.563649   -1.291260    3.953450
    134          1           0        7.027708   -0.925074    6.322904
    135          1           0        8.058298    0.459278    6.243274
    136          1           0        6.266667    5.262173    2.466862
    137          1           0        5.812791    6.384564    1.228539
    138          1           0        7.548306    6.167969    1.556944
    139          1           0        6.583871    7.458836   -0.567775
    140          1           0        7.665893    7.867883   -2.019881
    141          1           0        8.270078    6.985764   -0.588011
    142          1           0        6.510792    2.054109   -5.412363
    143          1           0        4.989806   -0.503694   -5.380819
    144          1           0        4.495765    2.710411   -6.211123
    145          1           0        3.831656    2.410427   -4.566442
    146          1           0        3.761864    1.184015   -5.726911
    147          1           0        6.812127    0.040775   -7.040481
    148          1           0        6.913977   -1.557402   -6.326028
    149          1           0        8.472884    0.890900   -5.928823
    150          1           0        9.097034   -0.786124   -6.135848
    151          1           0        8.435552   -0.203597   -4.542919
    152          1           0        6.781354   -5.665388   -2.224208
    153          1           0        6.144589   -4.612120   -3.528558
    154          1           0        5.037262   -5.123726   -2.192766
    155          1           0        5.676423   -3.718539    2.698197
    156          1           0        8.135273   -5.568532    5.717220
    157          1           0        8.459621   -3.742634    6.008552
    158          1           0        9.367042   -4.781363    4.881667
 ---------------------------------------------------------------------

 SCF Done:  E(RCAM-B3LYP) =  -4069.81188614     A.U. after   19 cycles

 Excitation energies and oscillator strengths:

 Excited State   1:      Singlet-A      1.6742 eV  740.56 nm  f=0.3510  <S**2>=0.000
     310 -> 316        0.16559
     311 -> 313       -0.20271
     312 -> 314        0.65539
 This state for optimization and/or second-order correction.
 Total Energy, E(TD-HF/TD-DFT) =  -4069.75036029
 Copying the excited state density for this state as the 1-particle RhoCI density.

 Excited State   2:      Singlet-A      1.6794 eV  738.27 nm  f=0.3800  <S**2>=0.000
     309 -> 315        0.16731
     311 -> 313        0.65503
     312 -> 314        0.20274
     309 <- 315        0.10020

 Excited State   3:      Singlet-A      2.1856 eV  567.28 nm  f=0.1016  <S**2>=0.000
     310 -> 314        0.64250
     312 -> 316       -0.27289

 Excited State   4:      Singlet-A      2.1919 eV  565.66 nm  f=0.0974  <S**2>=0.000
     309 -> 313        0.64074
     311 -> 315       -0.27766

 Excited State   5:      Singlet-A      2.6503 eV  467.81 nm  f=0.0000  <S**2>=0.000
     312 -> 313        0.70710

 The electronic state is 1-A.
 Alpha  occ. eigenvalues --  -46.87853 -46.87558 -19.26320 -19.26305 -19.19119
 Alpha  occ. eigenvalues --  -19.19049 -19.18905 -19.18624 -19.18219 -19.17977
 Alpha  occ. eigenvalues --  -14.42501 -14.42400 -14.41507 -14.41249 -14.39463
 Alpha  occ. eigenvalues --  -14.39252 -14.38642 -14.38499 -10.39109 -10.39046
 Alpha  occ. eigenvalues --  -10.35540 -10.35302 -10.34437 -10.34156 -10.31744
 Alpha  occ. eigenvalues --  -10.31686 -10.31450 -10.31217 -10.30959 -10.30936
 Alpha  occ. eigenvalues --  -10.30622 -10.30568 -10.30295 -10.30270 -10.30263
 Alpha  occ. eigenvalues --  -10.30023 -10.29979 -10.29779 -10.29691 -10.29332
 Alpha  occ. eigenvalues --  -10.29316 -10.29304 -10.28775 -10.28657 -10.28627
 Alpha  occ. eigenvalues --  -10.28524 -10.28421 -10.28311 -10.28146 -10.28070
 Alpha  occ. eigenvalues --  -10.27904 -10.27850 -10.27778 -10.27648 -10.27571
 Alpha  occ. eigenvalues --  -10.27564 -10.27546 -10.27516 -10.27455 -10.27390
 Alpha  occ. eigenvalues --  -10.27378 -10.27370 -10.27369 -10.27230 -10.27199
 Alpha  occ. eigenvalues --  -10.26985 -10.26715 -10.26644 -10.26522 -10.26337
 Alpha  occ. eigenvalues --  -10.26262 -10.26249 -10.26076 -10.26001 -10.25958
 Alpha  occ. eigenvalues --  -10.25893 -10.25820 -10.25740 -10.25500 -10.25213
 Alpha  occ. eigenvalues --  -10.24889 -10.24848 -10.24778 -10.24760 -10.24613
 Alpha  occ. eigenvalues --  -10.24583  -3.16596  -3.16308  -1.91478  -1.91190
 Alpha  occ. eigenvalues --   -1.91064  -1.90907  -1.90778  -1.90615  -1.16655
 Alpha  occ. eigenvalues --   -1.16611  -1.08674  -1.08588  -1.07309  -1.06904
 Alpha  occ. eigenvalues --   -1.06877  -1.06671  -1.04632  -1.04401  -1.03817
 Alpha  occ. eigenvalues --   -1.03562  -1.03292  -1.02931  -1.02468  -1.02008
 Alpha  occ. eigenvalues --   -0.92022  -0.91898  -0.89580  -0.89380  -0.89218
 Alpha  occ. eigenvalues --   -0.89079  -0.88348  -0.88094  -0.87923  -0.87721
 Alpha  occ. eigenvalues --   -0.87693  -0.87587  -0.87345  -0.87028  -0.85019
 Alpha  occ. eigenvalues --   -0.84923  -0.83997  -0.83753  -0.83049  -0.82835
 Alpha  occ. eigenvalues --   -0.82694  -0.82574  -0.81623  -0.81528  -0.80646
 Alpha  occ. eigenvalues --   -0.80362  -0.78860  -0.78540  -0.77269  -0.77056
 Alpha  occ. eigenvalues --   -0.76969  -0.76814  -0.75961  -0.75764  -0.74954
 Alpha  occ. eigenvalues --   -0.74681  -0.72829  -0.72598  -0.71722  -0.71480
 Alpha  occ. eigenvalues --   -0.69970  -0.69631  -0.68916  -0.68749  -0.67698
 Alpha  occ. eigenvalues --   -0.67509  -0.67258  -0.67130  -0.65323  -0.65198
 Alpha  occ. eigenvalues --   -0.64902  -0.64677  -0.64666  -0.64572  -0.64328
 Alpha  occ. eigenvalues --   -0.64088  -0.62335  -0.62210  -0.60510  -0.60238
 Alpha  occ. eigenvalues --   -0.59844  -0.59717  -0.59040  -0.58894  -0.58557
 Alpha  occ. eigenvalues --   -0.58332  -0.57627  -0.57485  -0.57366  -0.57134
 Alpha  occ. eigenvalues --   -0.56365  -0.56114  -0.56009  -0.55827  -0.55582
 Alpha  occ. eigenvalues --   -0.55392  -0.55375  -0.55144  -0.54569  -0.54393
 Alpha  occ. eigenvalues --   -0.53927  -0.53842  -0.53361  -0.53271  -0.53132
 Alpha  occ. eigenvalues --   -0.53063  -0.52962  -0.52826  -0.52817  -0.52588
 Alpha  occ. eigenvalues --   -0.52502  -0.52281  -0.51966  -0.51782  -0.51659
 Alpha  occ. eigenvalues --   -0.51588  -0.51244  -0.51114  -0.50653  -0.50384
 Alpha  occ. eigenvalues --   -0.50093  -0.49984  -0.49894  -0.49745  -0.49566
 Alpha  occ. eigenvalues --   -0.49406  -0.49267  -0.49132  -0.49124  -0.49027
 Alpha  occ. eigenvalues --   -0.48635  -0.48532  -0.48503  -0.48482  -0.48265
 Alpha  occ. eigenvalues --   -0.48245  -0.47747  -0.47507  -0.47353  -0.47018
 Alpha  occ. eigenvalues --   -0.46848  -0.46611  -0.46589  -0.46477  -0.46415
 Alpha  occ. eigenvalues --   -0.46213  -0.46170  -0.45980  -0.45862  -0.45741
 Alpha  occ. eigenvalues --   -0.45261  -0.45084  -0.44625  -0.44566  -0.44436
 Alpha  occ. eigenvalues --   -0.44392  -0.44204  -0.44127  -0.44072  -0.44047
 Alpha  occ. eigenvalues --   -0.43978  -0.43860  -0.43536  -0.43483  -0.43432
 Alpha  occ. eigenvalues --   -0.43297  -0.43077  -0.42871  -0.42808  -0.42748
 Alpha  occ. eigenvalues --   -0.42697  -0.42439  -0.42060  -0.41867  -0.41755
 Alpha  occ. eigenvalues --   -0.41581  -0.41569  -0.41376  -0.41189  -0.40918
 Alpha  occ. eigenvalues --   -0.40895  -0.40892  -0.40642  -0.40626  -0.40616
 Alpha  occ. eigenvalues --   -0.40376  -0.40256  -0.40168  -0.39505  -0.39299
 Alpha  occ. eigenvalues --   -0.38524  -0.38231  -0.37775  -0.37588  -0.37377
 Alpha  occ. eigenvalues --   -0.37300  -0.37157  -0.37115  -0.36750  -0.36713
 Alpha  occ. eigenvalues --   -0.36236  -0.36117  -0.34340  -0.34155  -0.33808
 Alpha  occ. eigenvalues --   -0.33805  -0.33241  -0.33075  -0.31434  -0.31182
 Alpha  occ. eigenvalues --   -0.31091  -0.30875  -0.30076  -0.29883  -0.29514
 Alpha  occ. eigenvalues --   -0.29379  -0.29231  -0.29115  -0.24135  -0.23934
 Alpha  occ. eigenvalues --   -0.21184  -0.21015
 Alpha virt. eigenvalues --   -0.08833  -0.08693  -0.01809  -0.01579  -0.00125
 Alpha virt. eigenvalues --    0.00060   0.02145   0.02299   0.03056   0.03319
 Alpha virt. eigenvalues --    0.04678   0.04820   0.05067   0.05213   0.06164

 Mulliken charges:
               1
     1  Mg   0.838651
     2  C   -0.002911
     3  C   -0.093935
     4  C   -0.046125
     5  C   -0.063984
     6  N   -0.256816
     7  C   -0.052289
     8  C   -0.014015
     9  C   -0.087000
    10  C    0.046294
    11  C    0.104778
    12  C    0.053388
    13  C   -0.072157
    14  H    0.036969
    15  N   -0.433103
    16  C    0.168272
    17  C   -0.177182
    18  C   -0.004297
    19  C    0.148651
    20  C    0.110134
    21  C    0.011858
    22  O   -0.250024
    23  C    0.062666
    24  N   -0.341165
    25  C    0.041276
    26  C   -0.028124
    27  C   -0.023988
    28  C    0.074861
    29  C    0.076175
    30  C    0.035149
    31  C   -0.004499
    32  N   -0.310521
    33  C    0.080493
    34  C   -0.169681
    35  C    0.008407
    36  C    0.082992
    37  C    0.127312
    38  C    0.046128
    39  O   -0.188264
    40  C   -0.005306
    41  C    0.212911
    42  O   -0.257169
    43  O   -0.304760
    44  C    0.157648
    45  H   -0.017446
    46  H   -0.017115
    47  H   -0.041397
    48  H    0.001078
    49  H   -0.003784
    50  H    0.025515
    51  H    0.016343
    52  H    0.016853
    53  H    0.011253
    54  H    0.044125
    55  H    0.017844
    56  H    0.018190
    57  H    0.006186
    58  H    0.026823
    59  H    0.039232
    60  H    0.037690
    61  H    0.035051
    62  H    0.031005
    63  H    0.016160
    64  H    0.009593
    65  H    0.023027
    66  H    0.012632
    67  H    0.004883
    68  H    0.006286
    69  H    0.004983
    70  H    0.008217
    71  H    0.018465
    72  H    0.028958
    73  H    0.047592
    74  H    0.009186
    75  H    0.046150
    76  H    0.035311
    77  H    0.043030
    78  H    0.046724
    79  H    0.053659
    80  Mg   0.838146
    81  C   -0.016996
    82  C   -0.087906
    83  C   -0.045380
    84  C   -0.063996
    85  N   -0.254550
    86  C   -0.049873
    87  C   -0.015115
    88  C   -0.090486
    89  C    0.045742
    90  C    0.114375
    91  C    0.062604
    92  C   -0.077682
    93  H    0.034544
    94  N   -0.423523
    95  C    0.162935
    96  C   -0.174620
    97  C   -0.007821
    98  C    0.152163
    99  C    0.099364
   100  C    0.015491
   101  O   -0.253157
   102  C    0.061231
   103  N   -0.349966
   104  C    0.037843
   105  C   -0.020097
   106  C   -0.034937
   107  C    0.088888
   108  C    0.073244
   109  C    0.034662
   110  C   -0.007626
   111  N   -0.324111
   112  C    0.078422
   113  C   -0.162820
   114  C    0.002096
   115  C    0.096320
   116  C    0.131486
   117  C    0.042318
   118  O   -0.188471
   119  C    0.000941
   120  C    0.211159
   121  O   -0.251013
   122  O   -0.305790
   123  C    0.152107
   124  H   -0.019681
   125  H   -0.015479
   126  H   -0.039999
   127  H   -0.001188
   128  H   -0.004544
   129  H    0.022059
   130  H    0.015107
   131  H    0.015903
   132  H    0.013989
   133  H    0.037615
   134  H    0.020377
   135  H    0.019574
   136  H    0.008720
   137  H    0.026188
   138  H    0.039546
   139  H    0.038217
   140  H    0.036215
   141  H    0.033765
   142  H    0.014134
   143  H    0.013745
   144  H    0.024886
   145  H    0.011938
   146  H    0.007321
   147  H    0.006473
   148  H    0.003788
   149  H    0.010804
   150  H    0.017685
   151  H    0.029838
   152  H    0.045550
   153  H    0.008775
   154  H    0.047493
   155  H    0.034598
   156  H    0.043491
   157  H    0.049375
   158  H    0.053576
 Sum of Mulliken charges =  -0.00000

 Dipole moment (field-independent basis, Debye):
    X=             -3.5006    Y=              1.8359    Z=              5.9927  Tot=              7.1790
 Quadrupole moment (field-independent basis, Debye-Ang):
   XX=           -519.2925   YY=           -505.3554   ZZ=           -493.5247
   XY=             38.0522   XZ=             -9.7493   YZ=             -5.9150

 Normal termination of Gaussian 16 at Sat Sep 11 11:29:43 2021.
