 Gaussian 16, Revision A.03,
 Gaussian 16:  ES64L-G16RevA.03 25-Dec-2016

 -----------------------------------
 #p cam-b3lyp/Def2SVP td=(nstates=5)
 -----------------------------------

 --------------------------------
 TDDFT excited states in gaussian
 --------------------------------
 Symbolic Z-matrix:
 Charge =  0 Multiplicity = 1

                         Standard orientation:
 ---------------------------------------------------------------------
 Center     Atomic      Atomic             Coordinates (Angstroms)
 Number     Number       Type             X           Y           Z
 ---------------------------------------------------------------------
      1         12           0        4.260793   -1.267845    0.093184
      2          6           0        5.034898    1.597221   -1.907909
      3          6           0        5.827362    0.304347    2.684927
      4          6           0        3.991208   -3.960301    1.746855
      5          6           0        3.788408   -3.030336   -2.876015
      6          7           0        5.262860    0.700199    0.245853
      7          6           0        5.438525    1.729092   -0.577368
      8          6           0        6.023906    2.990081    0.125916
      9          6           0        6.735982    2.280384    1.363363
     10          6           0        5.869832    1.036980    1.461621
     11          6           0        8.173197    1.856556    1.078258
     12          6           0        4.906425    3.979855    0.598478
     13          6           0        5.395436    5.375352    0.996989
     14          1           0        4.552449    6.523836    0.700836
     15          7           0        4.379328   -1.594234    2.037989
     16          6           0        5.046205   -0.842121    2.946221
     17          6           0        4.831813   -1.497528    4.254333
     18          6           0        4.144976   -2.795449    4.005834
     19          6           0        4.168131   -2.848000    2.566362
     20          6           0        5.217250   -0.873421    5.560349
     21          6           0        3.569856   -3.829962    4.920794
     22          8           0        3.226585   -4.989574    4.506019
     23          6           0        3.500110   -3.476878    6.350308
     24          7           0        4.150733   -3.275027   -0.469616
     25          6           0        3.977967   -4.238729    0.441655
     26          6           0        3.646428   -5.550121   -0.206629
     27          6           0        3.388084   -5.227928   -1.749095
     28          6           0        3.714805   -3.714247   -1.731936
     29          6           0        4.715029   -6.645370   -0.086076
     30          6           0        2.032356   -5.683151   -2.345075
     31          6           0        0.906005   -4.886682   -1.725341
     32          7           0        4.208008   -0.786737   -2.022660
     33          6           0        4.018578   -1.680995   -3.086189
     34          6           0        4.170580   -0.908200   -4.332684
     35          6           0        4.456126    0.386951   -3.905024
     36          6           0        4.506849    0.415495   -2.482033
     37          6           0        4.100159   -1.433883   -5.652962
     38          6           0        4.754509    1.748154   -4.319696
     39          8           0        4.758399    2.345287   -5.397152
     40          6           0        5.261315    2.559976   -3.046936
     41          6           0        4.520960    3.869320   -3.018627
     42          8           0        3.291015    3.904410   -2.810375
     43          8           0        5.404321    4.879260   -3.003270
     44          6           0        4.735447    6.206438   -2.945306
     45          1           0        6.494543    0.596143    3.498356
     46          1           0        3.784539   -4.890679    2.279885
     47          1           0        3.571387   -3.495220   -3.839466
     48          1           0        6.759680    3.538349   -0.462697
     49          1           0        6.653712    2.872484    2.274610
     50          1           0        8.428934    1.996462    0.028045
     51          1           0        8.223636    0.800709    1.344971
     52          1           0        8.867435    2.367709    1.745740
     53          1           0        4.508598    3.642364    1.555502
     54          1           0        4.128128    4.073446   -0.159691
     55          1           0        6.415885    5.552517    0.656101
     56          1           0        5.462066    5.416339    2.084224
     57          1           0        5.849569    0.001552    5.414950
     58          1           0        5.856954   -1.587832    6.078137
     59          1           0        4.348574   -0.643241    6.177398
     60          1           0        4.502988   -3.254404    6.715397
     61          1           0        2.980070   -4.300378    6.838421
     62          1           0        2.923326   -2.557972    6.459306
     63          1           0        2.744055   -5.982178    0.224041
     64          1           0        4.132452   -5.694640   -2.394673
     65          1           0        4.351244   -7.562991    0.376890
     66          1           0        5.557571   -6.234478    0.469425
     67          1           0        5.190730   -6.925241   -1.025649
     68          1           0        1.849161   -6.731754   -2.113090
     69          1           0        1.978006   -5.568601   -3.427745
     70          1           0        0.710734   -5.422754   -0.797264
     71          1           0        0.029911   -4.898180   -2.374601
     72          1           0        1.229820   -3.880486   -1.458508
     73          1           0        3.506171   -0.726566   -6.231625
     74          1           0        3.651579   -2.427022   -5.660333
     75          1           0        5.156651   -1.450899   -5.920150
     76          1           0        6.334778    2.699261   -3.171030
     77          1           0        5.098543    6.786209   -3.793988
     78          1           0        4.918874    6.602518   -1.946366
     79          1           0        3.661603    6.213743   -3.135422
     80         12           0       -4.410374    1.014610    0.905470
     81          6           0       -5.055432   -1.295262   -1.764264
     82          6           0       -3.160661    3.149106   -1.443301
     83          6           0       -3.419128    2.880727    3.272427
     84          6           0       -4.633198   -1.679838    3.104555
     85          7           0       -4.191043    0.836718   -1.288269
     86          6           0       -4.527847   -0.062191   -2.200895
     87          6           0       -4.360366    0.416733   -3.667909
     88          6           0       -3.250425    1.551617   -3.425135
     89          6           0       -3.569749    1.899063   -1.972559
     90          6           0       -1.826628    1.024186   -3.488183
     91          6           0       -5.683682    1.023410   -4.253386
     92          6           0       -5.682055    1.226465   -5.770134
     93          1           0       -6.928740    1.018467   -6.501560
     94          7           0       -3.890894    2.929987    0.899385
     95          6           0       -3.425555    3.643587   -0.147284
     96          6           0       -3.171252    4.997119    0.369846
     97          6           0       -3.368357    4.980446    1.844828
     98          6           0       -3.550806    3.560606    2.070357
     99          6           0       -2.859901    6.163757   -0.522037
    100          6           0       -3.376848    6.061790    2.882533
    101          8           0       -3.330004    5.793503    4.134986
    102          6           0       -3.347323    7.445796    2.387401
    103          7           0       -3.864349    0.625738    2.873457
    104          6           0       -3.523484    1.624560    3.706581
    105          6           0       -3.438954    1.139339    5.134101
    106          6           0       -4.032432   -0.345637    5.118960
    107          6           0       -4.285942   -0.501403    3.603419
    108          6           0       -2.039656    1.121638    5.748939
    109          6           0       -5.199659   -0.647070    6.098440
    110          6           0       -6.433161    0.122255    5.683715
    111          7           0       -4.956058   -1.070838    0.759888
    112          6           0       -4.955899   -2.027113    1.798938
    113          6           0       -5.289408   -3.331288    1.190388
    114          6           0       -5.439052   -3.045101   -0.174969
    115          6           0       -5.194826   -1.664081   -0.404379
    116          6           0       -5.369214   -4.574502    1.878989
    117          6           0       -5.737659   -3.599262   -1.475898
    118          8           0       -6.108729   -4.697569   -1.887913
    119          6           0       -5.378536   -2.515240   -2.581492
    120          6           0       -6.533802   -2.430029   -3.540978
    121          8           0       -7.640539   -2.008174   -3.161780
    122          8           0       -6.086400   -2.652722   -4.790221
    123          6           0       -7.193875   -2.567815   -5.779212
    124          1           0       -2.541629    3.797677   -2.063823
    125          1           0       -3.186648    3.500394    4.141586
    126          1           0       -4.818258   -2.550181    3.737746
    127          1           0       -3.981111   -0.334321   -4.350458
    128          1           0       -3.417529    2.411583   -4.068489
    129          1           0       -1.798969   -0.052317   -3.568868
    130          1           0       -1.352401    1.347129   -2.570656
    131          1           0       -1.278991    1.513319   -4.298848
    132          1           0       -5.775651    2.066467   -3.924282
    133          1           0       -6.532337    0.432264   -3.968864
    134          1           0       -4.857230    0.691791   -6.256703
    135          1           0       -5.478978    2.279620   -5.979038
    136          1           0       -2.618124    5.837705   -1.541173
    137          1           0       -1.930536    6.610077   -0.151971
    138          1           0       -3.644965    6.922865   -0.512069
    139          1           0       -2.457685    7.593032    1.779692
    140          1           0       -3.448936    8.075395    3.273495
    141          1           0       -4.208326    7.599678    1.727390
    142          1           0       -4.045780    1.753649    5.787934
    143          1           0       -3.270471   -1.091712    5.388428
    144          1           0       -1.963507    1.717763    6.677868
    145          1           0       -1.336918    1.479987    5.008482
    146          1           0       -1.648639    0.131925    5.978629
    147          1           0       -4.946111   -0.307434    7.105678
    148          1           0       -5.445063   -1.701648    6.166421
    149          1           0       -6.268500    1.109470    6.125745
    150          1           0       -7.329595   -0.345622    6.085629
    151          1           0       -6.469844    0.250244    4.595633
    152          1           0       -6.253765   -5.077647    1.511668
    153          1           0       -5.411592   -4.430145    2.956549
    154          1           0       -4.428485   -5.033235    1.562976
    155          1           0       -4.461001   -2.840508   -3.073348
    156          1           0       -7.199490   -3.510951   -6.334339
    157          1           0       -7.007313   -1.643741   -6.358029
    158          1           0       -8.207225   -2.541967   -5.395935
 ---------------------------------------------------------------------

 SCF Done:  E(RCAM-B3LYP) =  -4069.81273884     A.U. after   19 cycles

 Excitation energies and oscillator strengths:

 Excited State   1:      Singlet-A      1.6686 eV  743.03 nm  f=0.3025  <S**2>=0.000
     310 -> 316        0.14036
     311 -> 313        0.38723
     312 -> 314        0.56627
 This state for optimization and/or second-order correction.
 Total Energy, E(TD-HF/TD-DFT) =  -4069.75141800
 Copying the excited state density for this state as the 1-particle RhoCI density.

 Excited State   2:      Singlet-A      1.6788 eV  738.53 nm  f=0.3695  <S**2>=0.000
     309 -> 315        0.14449
     311 -> 313        0.56575
     312 -> 314       -0.38718

 Excited State   3:      Singlet-A      2.1849 eV  567.46 nm  f=0.1009  <S**2>=0.000
     310 -> 314        0.64259
     312 -> 316       -0.27066

 Excited State   4:      Singlet-A      2.1923 eV  565.55 nm  f=0.0963  <S**2>=0.000
     309 -> 313        0.64089
     311 -> 315       -0.27737

 Excited State   5:      Singlet-A      2.3348 eV  531.02 nm  f=0.0000  <S**2>=0.000
     312 -> 313        0.70707

 The electronic state is 1-A.
 Alpha  occ. eigenvalues --  -46.87927 -46.87426 -19.26591 -19.26175 -19.19349
 Alpha  occ. eigenvalues --  -19.18979 -19.18943 -19.18559 -19.18378 -19.17858
 Alpha  occ. eigenvalues --  -14.42582 -14.42228 -14.41568 -14.41141 -14.39533
 Alpha  occ. eigenvalues --  -14.39117 -14.38734 -14.38372 -10.39391 -10.38907
 Alpha  occ. eigenvalues --  -10.35575 -10.35238 -10.34600 -10.34035 -10.32009
 Alpha  occ. eigenvalues --  -10.31595 -10.31552 -10.31047 -10.31006 -10.30749
 Alpha  occ. eigenvalues --  -10.30718 -10.30647 -10.30304 -10.30193 -10.30111
 Alpha  occ. eigenvalues --  -10.30043 -10.29927 -10.29777 -10.29712 -10.29380
 Alpha  occ. eigenvalues --  -10.29196 -10.29186 -10.28897 -10.28703 -10.28514
 Alpha  occ. eigenvalues --  -10.28374 -10.28363 -10.28250 -10.28165 -10.27944
 Alpha  occ. eigenvalues --  -10.27855 -10.27768 -10.27725 -10.27695 -10.27590
 Alpha  occ. eigenvalues --  -10.27554 -10.27548 -10.27507 -10.27387 -10.27373
 Alpha  occ. eigenvalues --  -10.27348 -10.27278 -10.27250 -10.27247 -10.27174
 Alpha  occ. eigenvalues --  -10.26866 -10.26853 -10.26538 -10.26395 -10.26356
 Alpha  occ. eigenvalues --  -10.26284 -10.26174 -10.26136 -10.26030 -10.26022
 Alpha  occ. eigenvalues --  -10.25712 -10.25651 -10.25482 -10.25394 -10.25355
 Alpha  occ. eigenvalues --  -10.24996 -10.24911 -10.24653 -10.24646 -10.24624
 Alpha  occ. eigenvalues --  -10.24488  -3.16670  -3.16176  -1.91551  -1.91138
 Alpha  occ. eigenvalues --   -1.91058  -1.90980  -1.90647  -1.90484  -1.16941
 Alpha  occ. eigenvalues --   -1.16467  -1.08849  -1.08471  -1.07343  -1.06964
 Alpha  occ. eigenvalues --   -1.06816  -1.06764  -1.04718  -1.04227  -1.03884
 Alpha  occ. eigenvalues --   -1.03427  -1.03369  -1.02821  -1.02544  -1.01885
 Alpha  occ. eigenvalues --   -0.92138  -0.91757  -0.89610  -0.89327  -0.89313
 Alpha  occ. eigenvalues --   -0.88776  -0.88367  -0.88067  -0.88030  -0.87803
 Alpha  occ. eigenvalues --   -0.87570  -0.87416  -0.87404  -0.86901  -0.85125
 Alpha  occ. eigenvalues --   -0.84694  -0.84018  -0.83744  -0.83078  -0.82796
 Alpha  occ. eigenvalues --   -0.82758  -0.82379  -0.81791  -0.81385  -0.80760
 Alpha  occ. eigenvalues --   -0.80222  -0.78933  -0.78402  -0.77340  -0.77087
 Alpha  occ. eigenvalues --   -0.76905  -0.76639  -0.76087  -0.75531  -0.74997
 Alpha  occ. eigenvalues --   -0.74645  -0.72909  -0.72462  -0.71804  -0.71332
 Alpha  occ. eigenvalues --   -0.69953  -0.69613  -0.69016  -0.68540  -0.67789
 Alpha  occ. eigenvalues --   -0.67388  -0.67366  -0.66943  -0.65438  -0.65016
 Alpha  occ. eigenvalues --   -0.64987  -0.64762  -0.64543  -0.64411  -0.64363
 Alpha  occ. eigenvalues --   -0.64024  -0.62513  -0.62083  -0.60562  -0.60141
 Alpha  occ. eigenvalues --   -0.59946  -0.59477  -0.59127  -0.58768  -0.58652
 Alpha  occ. eigenvalues --   -0.58210  -0.57805  -0.57438  -0.57352  -0.57055
 Alpha  occ. eigenvalues --   -0.56469  -0.56205  -0.55968  -0.55672  -0.55669
 Alpha  occ. eigenvalues --   -0.55476  -0.55236  -0.55088  -0.54683  -0.54328
 Alpha  occ. eigenvalues --   -0.54041  -0.53565  -0.53435  -0.53378  -0.53098
 Alpha  occ. eigenvalues --   -0.53020  -0.52910  -0.52891  -0.52660  -0.52480
 Alpha  occ. eigenvalues --   -0.52408  -0.52261  -0.52089  -0.51773  -0.51677
 Alpha  occ. eigenvalues --   -0.51380  -0.51346  -0.50982  -0.50687  -0.50265
 Alpha  occ. eigenvalues --   -0.50111  -0.50037  -0.49774  -0.49666  -0.49645
 Alpha  occ. eigenvalues --   -0.49382  -0.49249  -0.49228  -0.48952  -0.48780
 Alpha  occ. eigenvalues --   -0.48776  -0.48606  -0.48563  -0.48300  -0.48225
 Alpha  occ. eigenvalues --   -0.48133  -0.47828  -0.47430  -0.47348  -0.46919
 Alpha  occ. eigenvalues --   -0.46901  -0.46707  -0.46502  -0.46474  -0.46306
 Alpha  occ. eigenvalues --   -0.46241  -0.46054  -0.46013  -0.45908  -0.45602
 Alpha  occ. eigenvalues --   -0.45291  -0.45063  -0.44760  -0.44627  -0.44309
 Alpha  occ. eigenvalues --   -0.44286  -0.44209  -0.44197  -0.44175  -0.43897
 Alpha  occ. eigenvalues --   -0.43824  -0.43712  -0.43697  -0.43507  -0.43349
 Alpha  occ. eigenvalues --   -0.43171  -0.43131  -0.42957  -0.42742  -0.42732
 Alpha  occ. eigenvalues --   -0.42684  -0.42380  -0.42114  -0.41851  -0.41765
 Alpha  occ. eigenvalues --   -0.41669  -0.41449  -0.41273  -0.41189  -0.40991
 Alpha  occ. eigenvalues --   -0.40948  -0.40719  -0.40654  -0.40522  -0.40444
 Alpha  occ. eigenvalues --   -0.40379  -0.40257  -0.39942  -0.39473  -0.39285
 Alpha  occ. eigenvalues --   -0.38552  -0.38178  -0.37901  -0.37420  -0.37415
 Alpha  occ. eigenvalues --   -0.37378  -0.37062  -0.36961  -0.36915  -0.36596
 Alpha  occ. eigenvalues --   -0.36347  -0.36018  -0.34427  -0.34070  -0.34021
 Alpha  occ. eigenvalues --   -0.33671  -0.33333  -0.32941  -0.31472  -0.31174
 Alpha  occ. eigenvalues --   -0.31117  -0.30738  -0.30241  -0.29764  -0.29593
 Alpha  occ. eigenvalues --   -0.29479  -0.29109  -0.28991  -0.24217  -0.23797
 Alpha  occ. eigenvalues --   -0.21261  -0.20878
 Alpha virt. eigenvalues --   -0.08914  -0.08561  -0.01875  -0.01462  -0.00200
 Alpha virt. eigenvalues --    0.00200   0.02030   0.02398   0.02842   0.03500
 Alpha virt. eigenvalues --    0.04581   0.04809   0.05021   0.05354   0.06011

 Mulliken charges:
               1
     1  Mg   0.839020
     2  C   -0.003711
     3  C   -0.093774
     4  C   -0.045566
     5  C   -0.063907
     6  N   -0.256936
     7  C   -0.052383
     8  C   -0.014193
     9  C   -0.087152
    10  C    0.046616
    11  C    0.104707
    12  C    0.053388
    13  C   -0.071560
    14  H    0.034595
    15  N   -0.433252
    16  C    0.168844
    17  C   -0.176857
    18  C   -0.003796
    19  C    0.149063
    20  C    0.110074
    21  C    0.012191
    22  O   -0.249082
    23  C    0.062497
    24  N   -0.341274
    25  C    0.041662
    26  C   -0.028382
    27  C   -0.024062
    28  C    0.075022
    29  C    0.076046
    30  C    0.034956
    31  C   -0.004744
    32  N   -0.310105
    33  C    0.079840
    34  C   -0.170830
    35  C    0.007637
    36  C    0.082219
    37  C    0.127650
    38  C    0.044590
    39  O   -0.189775
    40  C   -0.004871
    41  C    0.213168
    42  O   -0.260097
    43  O   -0.303913
    44  C    0.158373
    45  H   -0.017211
    46  H   -0.016305
    47  H   -0.041250
    48  H    0.000752
    49  H   -0.003518
    50  H    0.025437
    51  H    0.016676
    52  H    0.017048
    53  H    0.012463
    54  H    0.042532
    55  H    0.018039
    56  H    0.019158
    57  H    0.006356
    58  H    0.027173
    59  H    0.039939
    60  H    0.037813
    61  H    0.035700
    62  H    0.030966
    63  H    0.017258
    64  H    0.009622
    65  H    0.023820
    66  H    0.012321
    67  H    0.005074
    68  H    0.007695
    69  H    0.004639
    70  H    0.009574
    71  H    0.020006
    72  H    0.027501
    73  H    0.045780
    74  H    0.009547
    75  H    0.046428
    76  H    0.035611
    77  H    0.043265
    78  H    0.047159
    79  H    0.050953
    80  Mg   0.837423
    81  C   -0.016847
    82  C   -0.086267
    83  C   -0.046325
    84  C   -0.064887
    85  N   -0.254799
    86  C   -0.049441
    87  C   -0.015232
    88  C   -0.090119
    89  C    0.044431
    90  C    0.113221
    91  C    0.062433
    92  C   -0.077555
    93  H    0.033346
    94  N   -0.423735
    95  C    0.162246
    96  C   -0.172592
    97  C   -0.008885
    98  C    0.152903
    99  C    0.099142
   100  C    0.015124
   101  O   -0.254552
   102  C    0.061403
   103  N   -0.350138
   104  C    0.037520
   105  C   -0.019551
   106  C   -0.034896
   107  C    0.088647
   108  C    0.074359
   109  C    0.034971
   110  C   -0.007536
   111  N   -0.323983
   112  C    0.077971
   113  C   -0.163421
   114  C    0.001909
   115  C    0.096051
   116  C    0.131651
   117  C    0.041676
   118  O   -0.189200
   119  C    0.001243
   120  C    0.211359
   121  O   -0.251164
   122  O   -0.305728
   123  C    0.152172
   124  H   -0.013150
   125  H   -0.017009
   126  H   -0.040869
   127  H   -0.001151
   128  H   -0.003675
   129  H    0.019435
   130  H    0.019039
   131  H    0.023662
   132  H    0.013693
   133  H    0.036709
   134  H    0.021320
   135  H    0.020258
   136  H    0.011573
   137  H    0.026604
   138  H    0.038651
   139  H    0.038109
   140  H    0.035237
   141  H    0.034052
   142  H    0.013875
   143  H    0.012220
   144  H    0.023531
   145  H    0.011156
   146  H    0.003896
   147  H    0.005099
   148  H    0.003744
   149  H    0.010429
   150  H    0.017572
   151  H    0.030700
   152  H    0.045267
   153  H    0.008266
   154  H    0.046884
   155  H    0.034136
   156  H    0.043140
   157  H    0.050008
   158  H    0.053286
 Sum of Mulliken charges =  -0.00000

 Dipole moment (field-independent basis, Debye):
    X=              5.5009    Y=              3.3477    Z=              2.0681  Tot=              6.7634
 Quadrupole moment (field-independent basis, Debye-Ang):
   XX=           -520.0681   YY=           -506.1995   ZZ=           -493.5210
   XY=            -10.9227   XZ=             26.2189   YZ=              0.3608

 Normal termination of Gaussian 16 at Sat Sep  4 00:53:48 2021.
