 Gaussian 16, Revision A.03,
 Gaussian 16:  ES64L-G16RevA.03 25-Dec-2016

 -----------------------------------
 #p cam-b3lyp/Def2SVP td=(nstates=5)
 -----------------------------------

 --------------------------------
 TDDFT excited states in gaussian
 --------------------------------
 Symbolic Z-matrix:
 Charge =  0 Multiplicity = 1

                         Standard orientation:
 ---------------------------------------------------------------------
 Center     Atomic      Atomic             Coordinates (Angstroms)
 Number     Number       Type             X           Y           Z
 ---------------------------------------------------------------------
      1         12           0       16.051526   -0.642020    0.406501
      2          6           0       16.288122    2.363666   -1.522771
      3          6           0       16.867010    1.226620    3.142600
      4          6           0       16.294285   -3.345849    2.045707
      5          6           0       16.377611   -2.409230   -2.579516
      6          7           0       16.495667    1.512805    0.651687
      7          6           0       16.493993    2.568193   -0.156597
      8          6           0       16.656671    3.922801    0.595698
      9          6           0       17.383604    3.393781    1.912401
     10          6           0       16.857447    1.969375    1.924710
     11          6           0       18.903882    3.354831    1.795175
     12          6           0       15.278448    4.586672    0.929622
     13          6           0       15.348243    6.052705    1.366920
     14          1           0       14.278900    6.954617    0.966413
     15          7           0       16.031861   -0.964906    2.355400
     16          6           0       16.379633   -0.085582    3.325518
     17          6           0       16.194931   -0.799004    4.607546
     18          6           0       15.893538   -2.223865    4.296054
     19          6           0       16.089546   -2.241096    2.868938
     20          6           0       16.260656   -0.122660    5.942457
     21          6           0       15.502723   -3.388008    5.150552
     22          8           0       15.514635   -4.588587    4.711188
     23          6           0       15.186504   -3.091829    6.559568
     24          7           0       16.519879   -2.600020   -0.145329
     25          6           0       16.497920   -3.593329    0.750125
     26          6           0       16.585785   -4.933197    0.081564
     27          6           0       16.427398   -4.657653   -1.483281
     28          6           0       16.353683   -3.111264   -1.444331
     29          6           0       17.877847   -5.722896    0.332486
     30          6           0       15.307514   -5.431034   -2.223660
     31          6           0       13.953621   -4.959166   -1.742605
     32          7           0       16.113987   -0.149521   -1.706456
     33          6           0       16.278349   -1.041921   -2.775699
     34          6           0       16.366350   -0.232038   -4.004688
     35          6           0       16.263022    1.084677   -3.560357
     36          6           0       16.145931    1.097793   -2.141058
     37          6           0       16.579731   -0.732849   -5.319257
     38          6           0       16.249045    2.484731   -3.952160
     39          8           0       16.220695    3.083850   -5.028146
     40          6           0       16.387234    3.374082   -2.638468
     41          6           0       15.339342    4.451388   -2.706618
     42          8           0       14.125761    4.168620   -2.638580
     43          8           0       15.928853    5.652235   -2.601804
     44          6           0       14.941776    6.764387   -2.632613
     45          1           0       17.342911    1.662740    4.023088
     46          1           0       16.273411   -4.308279    2.561199
     47          1           0       16.394928   -2.895386   -3.556657
     48          1           0       17.289326    4.651331    0.088337
     49          1           0       17.052204    3.927864    2.802710
     50          1           0       19.230898    3.575337    0.779124
     51          1           0       19.191612    2.341569    2.076252
     52          1           0       19.366148    4.012746    2.531541
     53          1           0       14.875667    4.140780    1.839022
     54          1           0       14.591472    4.493890    0.087730
     55          1           0       16.321292    6.490005    1.141411
     56          1           0       15.280670    6.088357    2.454285
     57          1           0       16.661321    0.886950    5.860599
     58          1           0       16.999452   -0.660791    6.536010
     59          1           0       15.298847   -0.132805    6.455442
     60          1           0       16.052475   -2.628769    7.033085
     61          1           0       14.842393   -4.029717    6.994084
     62          1           0       14.386214   -2.352026    6.593857
     63          1           0       15.781092   -5.588673    0.412087
     64          1           0       17.333240   -4.907277   -2.036284
     65          1           0       17.710610   -6.711585    0.760541
     66          1           0       18.520588   -5.122070    0.975279
     67          1           0       18.510772   -5.854502   -0.544728
     68          1           0       15.372849   -6.496020   -2.003474
     69          1           0       15.346749   -5.313256   -3.306637
     70          1           0       13.799225   -5.545023   -0.837196
     71          1           0       13.187345   -5.180523   -2.486267
     72          1           0       13.978589   -3.909033   -1.450915
     73          1           0       15.893437   -0.188785   -5.968075
     74          1           0       16.402684   -1.807068   -5.367330
     75          1           0       17.628661   -0.475568   -5.465567
     76          1           0       17.396702    3.784060   -2.642229
     77          1           0       15.237399    7.433637   -3.440664
     78          1           0       14.905764    7.174790   -1.623318
     79          1           0       13.929602    6.502103   -2.942534
     80         12           0      -15.686979   -0.696612   -0.240079
     81          6           0      -18.151550    1.753704    0.654843
     82          6           0      -13.675650    1.890295   -1.187227
     83          6           0      -13.678799   -2.832635   -1.453362
     84          6           0      -18.254565   -3.052189   -0.306583
     85          7           0      -15.986663    1.494749   -0.219933
     86          6           0      -16.939544    2.313447    0.199681
     87          6           0      -16.542839    3.814176    0.202728
     88          6           0      -15.383922    3.758796   -0.907548
     89          6           0      -14.958126    2.301205   -0.743929
     90          6           0      -15.898454    3.949888   -2.324620
     91          6           0      -15.984895    4.282122    1.592596
     92          6           0      -15.868235    5.798609    1.761192
     93          1           0      -16.131039    6.374902    3.076974
     94          7           0      -13.769455   -0.527341   -0.722813
     95          6           0      -13.111351    0.602193   -1.057953
     96          6           0      -11.727948    0.191905   -1.344320
     97          6           0      -11.663048   -1.294501   -1.310868
     98          6           0      -13.069717   -1.616854   -1.178693
     99          6           0      -10.610461    1.175794   -1.535683
    100          6           0      -10.524719   -2.265484   -1.397960
    101          8           0      -10.720970   -3.517938   -1.586802
    102          6           0       -9.170796   -1.694497   -1.349133
    103          7           0      -15.957536   -2.610488   -1.005718
    104          6           0      -14.909370   -3.344339   -1.418919
    105          6           0      -15.311844   -4.778317   -1.668167
    106          6           0      -16.801700   -4.910955   -1.102183
    107          6           0      -17.045987   -3.443722   -0.686320
    108          6           0      -15.279293   -5.234484   -3.126678
    109          6           0      -17.059816   -6.028793   -0.055053
    110          6           0      -16.328823   -5.711361    1.229577
    111          7           0      -17.783174   -0.727667    0.282461
    112          6           0      -18.678886   -1.811491    0.151685
    113          6           0      -20.019068   -1.316529    0.527654
    114          6           0      -19.812476    0.037567    0.831366
    115          6           0      -18.444108    0.368473    0.637561
    116          6           0      -21.221994   -2.077295    0.509946
    117          6           0      -20.442805    1.264859    1.261622
    118          8           0      -21.566728    1.572004    1.656856
    119          6           0      -19.419414    2.461547    1.044855
    120          6           0      -19.401443    3.290455    2.299890
    121          8           0      -18.970892    2.814923    3.365307
    122          8           0      -19.689753    4.567347    1.988780
    123          6           0      -19.673246    5.430811    3.199553
    124          1           0      -13.056596    2.610385   -1.723073
    125          1           0      -13.008302   -3.635180   -1.769316
    126          1           0      -19.089547   -3.749042   -0.207204
    127          1           0      -17.327209    4.492018   -0.112027
    128          1           0      -14.563729    4.426166   -0.656011
    129          1           0      -16.977440    3.973605   -2.361698
    130          1           0      -15.518788    3.109744   -2.891230
    131          1           0      -15.450148    4.841954   -2.771355
    132          1           0      -14.925909    4.002939    1.665703
    133          1           0      -16.568202    3.873194    2.394567
    134          1           0      -16.420595    6.343245    0.985813
    135          1           0      -14.826465    6.086514    1.600409
    136          1           0      -10.991154    2.195873   -1.669524
    137          1           0      -10.133709    0.936106   -2.492300
    138          1           0       -9.860654    1.120878   -0.743575
    139          1           0       -9.048554   -0.984829   -2.163927
    140          1           0       -8.493083   -2.550293   -1.334763
    141          1           0       -9.064053   -1.126387   -0.418290
    142          1           0      -14.668105   -5.460404   -1.126456
    143          1           0      -17.522891   -5.135174   -1.901839
    144          1           0      -14.630623   -6.114943   -3.294244
    145          1           0      -14.955882   -4.402124   -3.737511
    146          1           0      -16.250049   -5.473737   -3.557488
    147          1           0      -16.660820   -6.981472   -0.411930
    148          1           0      -18.111473   -6.181622    0.163270
    149          1           0      -15.316376   -6.077271    1.034277
    150          1           0      -16.782934   -6.235261    2.068241
    151          1           0      -16.263205   -4.628638    1.387842
    152          1           0      -21.754830   -1.838500    1.420750
    153          1           0      -21.017200   -3.143300    0.436078
    154          1           0      -21.687593   -1.684870   -0.398077
    155          1           0      -19.762000    3.033255    0.181520
    156          1           0      -20.646359    5.928988    3.249990
    157          1           0      -18.781511    6.076838    3.093630
    158          1           0      -19.636782    4.939706    4.164929
 ---------------------------------------------------------------------

 SCF Done:  E(RCAM-B3LYP) =  -4069.81178731     A.U. after   19 cycles

 Excitation energies and oscillator strengths:

 Excited State   1:      Singlet-A      1.6756 eV  739.94 nm  f=0.3745  <S**2>=0.000
     310 -> 316        0.17278
     312 -> 313        0.68263
     310 <- 316        0.10414
 This state for optimization and/or second-order correction.
 Total Energy, E(TD-HF/TD-DFT) =  -4069.75021052
 Copying the excited state density for this state as the 1-particle RhoCI density.

 Excited State   2:      Singlet-A      1.6799 eV  738.05 nm  f=0.4072  <S**2>=0.000
     309 -> 315        0.17471
     311 -> 314        0.68229
     309 <- 315        0.10463

 Excited State   3:      Singlet-A      2.1862 eV  567.11 nm  f=0.0953  <S**2>=0.000
     310 -> 313        0.64209
     312 -> 316       -0.27304

 Excited State   4:      Singlet-A      2.1926 eV  565.47 nm  f=0.1048  <S**2>=0.000
     309 -> 314        0.64033
     311 -> 315       -0.27819

 Excited State   5:      Singlet-A      3.0659 eV  404.39 nm  f=0.0000  <S**2>=0.000
     312 -> 314        0.70710

 The electronic state is 1-A.
 Alpha  occ. eigenvalues --  -46.87805 -46.87659 -19.26353 -19.26301 -19.19163
 Alpha  occ. eigenvalues --  -19.19036 -19.18821 -19.18707 -19.18181 -19.18052
 Alpha  occ. eigenvalues --  -14.42496 -14.42459 -14.41458 -14.41358 -14.39412
 Alpha  occ. eigenvalues --  -14.39350 -14.38599 -14.38596 -10.39095 -10.39093
 Alpha  occ. eigenvalues --  -10.35454 -10.35383 -10.34401 -10.34229 -10.31760
 Alpha  occ. eigenvalues --  -10.31698 -10.31415 -10.31308 -10.31021 -10.30918
 Alpha  occ. eigenvalues --  -10.30579 -10.30516 -10.30397 -10.30360 -10.30214
 Alpha  occ. eigenvalues --  -10.30139 -10.29929 -10.29895 -10.29640 -10.29434
 Alpha  occ. eigenvalues --  -10.29399 -10.29263 -10.28760 -10.28718 -10.28655
 Alpha  occ. eigenvalues --  -10.28554 -10.28403 -10.28374 -10.28139 -10.28127
 Alpha  occ. eigenvalues --  -10.28000 -10.27802 -10.27736 -10.27667 -10.27593
 Alpha  occ. eigenvalues --  -10.27518 -10.27507 -10.27488 -10.27483 -10.27464
 Alpha  occ. eigenvalues --  -10.27456 -10.27456 -10.27413 -10.27375 -10.27170
 Alpha  occ. eigenvalues --  -10.27051 -10.26718 -10.26693 -10.26414 -10.26401
 Alpha  occ. eigenvalues --  -10.26244 -10.26190 -10.26138 -10.26028 -10.26024
 Alpha  occ. eigenvalues --  -10.25934 -10.25854 -10.25854 -10.25440 -10.25396
 Alpha  occ. eigenvalues --  -10.24872 -10.24842 -10.24796 -10.24732 -10.24693
 Alpha  occ. eigenvalues --  -10.24689  -3.16548  -3.16409  -1.91430  -1.91292
 Alpha  occ. eigenvalues --   -1.91016  -1.90880  -1.90859  -1.90717  -1.16649
 Alpha  occ. eigenvalues --   -1.16646  -1.08659  -1.08639  -1.07222  -1.06959
 Alpha  occ. eigenvalues --   -1.06948  -1.06658  -1.04590  -1.04494  -1.03769
 Alpha  occ. eigenvalues --   -1.03662  -1.03243  -1.03038  -1.02420  -1.02110
 Alpha  occ. eigenvalues --   -0.91987  -0.91982  -0.89527  -0.89494  -0.89199
 Alpha  occ. eigenvalues --   -0.89150  -0.88294  -0.88220  -0.87880  -0.87794
 Alpha  occ. eigenvalues --   -0.87683  -0.87682  -0.87281  -0.87114  -0.84999
 Alpha  occ. eigenvalues --   -0.84993  -0.83944  -0.83876  -0.82973  -0.82925
 Alpha  occ. eigenvalues --   -0.82659  -0.82650  -0.81598  -0.81597  -0.80607
 Alpha  occ. eigenvalues --   -0.80442  -0.78805  -0.78632  -0.77228  -0.77143
 Alpha  occ. eigenvalues --   -0.76945  -0.76898  -0.75934  -0.75838  -0.74906
 Alpha  occ. eigenvalues --   -0.74802  -0.72783  -0.72698  -0.71681  -0.71580
 Alpha  occ. eigenvalues --   -0.69914  -0.69757  -0.68883  -0.68826  -0.67650
 Alpha  occ. eigenvalues --   -0.67600  -0.67230  -0.67197  -0.65297  -0.65271
 Alpha  occ. eigenvalues --   -0.64864  -0.64770  -0.64653  -0.64631  -0.64277
 Alpha  occ. eigenvalues --   -0.64203  -0.62311  -0.62280  -0.60450  -0.60336
 Alpha  occ. eigenvalues --   -0.59814  -0.59795  -0.58997  -0.58992  -0.58513
 Alpha  occ. eigenvalues --   -0.58425  -0.57597  -0.57555  -0.57318  -0.57235
 Alpha  occ. eigenvalues --   -0.56319  -0.56203  -0.55992  -0.55887  -0.55529
 Alpha  occ. eigenvalues --   -0.55449  -0.55349  -0.55248  -0.54534  -0.54489
 Alpha  occ. eigenvalues --   -0.53912  -0.53906  -0.53307  -0.53232  -0.53226
 Alpha  occ. eigenvalues --   -0.53140  -0.52926  -0.52902  -0.52764  -0.52661
 Alpha  occ. eigenvalues --   -0.52445  -0.52401  -0.51925  -0.51886  -0.51656
 Alpha  occ. eigenvalues --   -0.51627  -0.51206  -0.51201  -0.50578  -0.50467
 Alpha  occ. eigenvalues --   -0.50038  -0.49977  -0.49926  -0.49865  -0.49524
 Alpha  occ. eigenvalues --   -0.49484  -0.49224  -0.49200  -0.49107  -0.49104
 Alpha  occ. eigenvalues --   -0.48604  -0.48558  -0.48469  -0.48454  -0.48376
 Alpha  occ. eigenvalues --   -0.48333  -0.47704  -0.47592  -0.47305  -0.47115
 Alpha  occ. eigenvalues --   -0.46806  -0.46708  -0.46566  -0.46552  -0.46368
 Alpha  occ. eigenvalues --   -0.46269  -0.46172  -0.46086  -0.45834  -0.45824
 Alpha  occ. eigenvalues --   -0.45209  -0.45208  -0.44589  -0.44515  -0.44514
 Alpha  occ. eigenvalues --   -0.44475  -0.44153  -0.44126  -0.44098  -0.44076
 Alpha  occ. eigenvalues --   -0.44029  -0.43935  -0.43554  -0.43507  -0.43395
 Alpha  occ. eigenvalues --   -0.43385  -0.43037  -0.42931  -0.42902  -0.42711
 Alpha  occ. eigenvalues --   -0.42665  -0.42552  -0.42019  -0.41964  -0.41714
 Alpha  occ. eigenvalues --   -0.41669  -0.41544  -0.41458  -0.41150  -0.40989
 Alpha  occ. eigenvalues --   -0.40879  -0.40830  -0.40719  -0.40695  -0.40579
 Alpha  occ. eigenvalues --   -0.40493  -0.40246  -0.40225  -0.39448  -0.39426
 Alpha  occ. eigenvalues --   -0.38477  -0.38350  -0.37760  -0.37654  -0.37328
 Alpha  occ. eigenvalues --   -0.37274  -0.37265  -0.37198  -0.36773  -0.36726
 Alpha  occ. eigenvalues --   -0.36217  -0.36203  -0.34295  -0.34253  -0.33864
 Alpha  occ. eigenvalues --   -0.33785  -0.33196  -0.33175  -0.31351  -0.31266
 Alpha  occ. eigenvalues --   -0.31045  -0.30971  -0.30041  -0.29957  -0.29458
 Alpha  occ. eigenvalues --   -0.29331  -0.29324  -0.29211  -0.24090  -0.24035
 Alpha  occ. eigenvalues --   -0.21136  -0.21116
 Alpha virt. eigenvalues --   -0.08790  -0.08783  -0.01758  -0.01682  -0.00066
 Alpha virt. eigenvalues --   -0.00025   0.02190   0.02207   0.03110   0.03227
 Alpha virt. eigenvalues --    0.04708   0.04730   0.05083   0.05163   0.06164

 Mulliken charges:
               1
     1  Mg   0.838671
     2  C   -0.002994
     3  C   -0.094105
     4  C   -0.045851
     5  C   -0.063945
     6  N   -0.256768
     7  C   -0.052482
     8  C   -0.014011
     9  C   -0.086986
    10  C    0.046296
    11  C    0.104804
    12  C    0.053471
    13  C   -0.071782
    14  H    0.036034
    15  N   -0.433135
    16  C    0.168430
    17  C   -0.177146
    18  C   -0.003978
    19  C    0.148723
    20  C    0.110181
    21  C    0.012310
    22  O   -0.249579
    23  C    0.062463
    24  N   -0.341118
    25  C    0.041237
    26  C   -0.028171
    27  C   -0.023989
    28  C    0.074837
    29  C    0.076161
    30  C    0.035130
    31  C   -0.004512
    32  N   -0.310446
    33  C    0.080372
    34  C   -0.169733
    35  C    0.008342
    36  C    0.082968
    37  C    0.127318
    38  C    0.046094
    39  O   -0.188506
    40  C   -0.005336
    41  C    0.212872
    42  O   -0.257150
    43  O   -0.304780
    44  C    0.157720
    45  H   -0.017584
    46  H   -0.016795
    47  H   -0.041490
    48  H    0.000924
    49  H   -0.004033
    50  H    0.025471
    51  H    0.016470
    52  H    0.016671
    53  H    0.011209
    54  H    0.044080
    55  H    0.017886
    56  H    0.017969
    57  H    0.005874
    58  H    0.026864
    59  H    0.039577
    60  H    0.037362
    61  H    0.035712
    62  H    0.031504
    63  H    0.016588
    64  H    0.009469
    65  H    0.023253
    66  H    0.012550
    67  H    0.004765
    68  H    0.006403
    69  H    0.004719
    70  H    0.008816
    71  H    0.018143
    72  H    0.028951
    73  H    0.047520
    74  H    0.009120
    75  H    0.046009
    76  H    0.035153
    77  H    0.042919
    78  H    0.046404
    79  H    0.053617
    80  Mg   0.837811
    81  C   -0.016847
    82  C   -0.087778
    83  C   -0.045502
    84  C   -0.064876
    85  N   -0.254578
    86  C   -0.049848
    87  C   -0.015099
    88  C   -0.090510
    89  C    0.045781
    90  C    0.114363
    91  C    0.062522
    92  C   -0.077899
    93  H    0.034862
    94  N   -0.423494
    95  C    0.162920
    96  C   -0.174569
    97  C   -0.007754
    98  C    0.152130
    99  C    0.099337
   100  C    0.015590
   101  O   -0.253133
   102  C    0.061184
   103  N   -0.350055
   104  C    0.037535
   105  C   -0.019851
   106  C   -0.034792
   107  C    0.088891
   108  C    0.073641
   109  C    0.034730
   110  C   -0.007672
   111  N   -0.324080
   112  C    0.078407
   113  C   -0.163168
   114  C    0.002224
   115  C    0.096167
   116  C    0.131493
   117  C    0.042356
   118  O   -0.187941
   119  C    0.000923
   120  C    0.211267
   121  O   -0.251036
   122  O   -0.305629
   123  C    0.152033
   124  H   -0.019586
   125  H   -0.015520
   126  H   -0.040488
   127  H   -0.000660
   128  H   -0.004286
   129  H    0.022438
   130  H    0.014448
   131  H    0.016329
   132  H    0.013935
   133  H    0.037658
   134  H    0.020788
   135  H    0.019627
   136  H    0.008795
   137  H    0.026277
   138  H    0.039880
   139  H    0.038347
   140  H    0.036517
   141  H    0.033899
   142  H    0.014427
   143  H    0.012400
   144  H    0.025186
   145  H    0.011667
   146  H    0.005661
   147  H    0.006274
   148  H    0.003622
   149  H    0.010957
   150  H    0.017911
   151  H    0.030097
   152  H    0.045972
   153  H    0.008495
   154  H    0.046912
   155  H    0.035008
   156  H    0.043888
   157  H    0.049506
   158  H    0.053565
 Sum of Mulliken charges =  -0.00000

 Dipole moment (field-independent basis, Debye):
    X=              5.0376    Y=              2.9066    Z=              1.6643  Tot=              6.0494
 Quadrupole moment (field-independent basis, Debye-Ang):
   XX=           -564.0722   YY=           -470.0680   ZZ=           -518.7321
   XY=              7.0444   XZ=            114.1295   YZ=             32.3646

 Normal termination of Gaussian 16 at Sun Sep 12 09:40:25 2021.
