 Gaussian 16, Revision A.03,
 Gaussian 16:  ES64L-G16RevA.03 25-Dec-2016

 -----------------------------------
 #p cam-b3lyp/Def2SVP td=(nstates=5)
 -----------------------------------

 --------------------------------
 TDDFT excited states in gaussian
 --------------------------------
 Symbolic Z-matrix:
 Charge =  0 Multiplicity = 1

                         Standard orientation:
 ---------------------------------------------------------------------
 Center     Atomic      Atomic             Coordinates (Angstroms)
 Number     Number       Type             X           Y           Z
 ---------------------------------------------------------------------
      1         12           0        4.747873   -0.023199    0.019081
      2          6           0        4.409833   -3.410281   -1.087998
      3          6           0        5.579435    0.785925   -3.189796
      4          6           0        5.492301    2.878745    1.058872
      5          6           0        5.005848   -1.265290    3.265051
      6          7           0        4.934539   -1.245116   -1.817416
      7          6           0        4.719490   -2.521588   -2.119978
      8          6           0        4.779880   -2.812665   -3.649357
      9          6           0        5.692830   -1.586826   -4.103052
     10          6           0        5.356815   -0.609031   -2.990876
     11          6           0        7.186993   -1.889747   -4.055948
     12          6           0        3.367060   -2.754489   -4.321880
     13          6           0        3.290951   -3.342053   -5.734087
     14          1           0        2.081283   -4.043606   -6.136423
     15          7           0        4.958916    1.675880   -0.966536
     16          6           0        5.283911    1.818741   -2.273921
     17          6           0        5.317261    3.274964   -2.528841
     18          6           0        5.171723    3.969564   -1.219473
     19          6           0        5.228871    2.854875   -0.308659
     20          6           0        5.425229    3.867983   -3.900125
     21          6           0        5.017764    5.410399   -0.847422
     22          8           0        5.140380    5.818466    0.357991
     23          6           0        4.804542    6.356401   -1.957674
     24          7           0        5.406938    0.698625    1.863597
     25          6           0        5.599183    2.007033    2.063830
     26          6           0        5.792331    2.314082    3.519286
     27          6           0        5.448876    0.966872    4.304663
     28          6           0        5.182178    0.046108    3.088384
     29          6           0        7.192962    2.796308    3.921407
     30          6           0        4.370536    1.054821    5.413656
     31          6           0        3.020562    1.341536    4.795220
     32          7           0        4.541462   -1.960346    0.976108
     33          6           0        4.714008   -2.251030    2.337139
     34          6           0        4.578026   -3.711491    2.487571
     35          6           0        4.350813   -4.173741    1.192757
     36          6           0        4.371326   -3.074804    0.287103
     37          6           0        4.725076   -4.441670    3.699862
     38          6           0        4.119978   -5.343235    0.360377
     39          8           0        3.910952   -6.537028    0.580965
     40          6           0        4.270174   -4.910333   -1.164702
     41          6           0        3.091514   -5.469390   -1.914051
     42          8           0        1.936430   -5.051892   -1.693048
     43          8           0        3.530014   -6.228123   -2.930213
     44          6           0        2.410549   -6.789704   -3.732445
     45          1           0        6.078866    1.115790   -4.102867
     46          1           0        5.644790    3.876280    1.476137
     47          1           0        4.990255   -1.715133    4.259461
     48          1           0        5.261934   -3.753895   -3.914187
     49          1           0        5.383857   -1.184407   -5.067581
     50          1           0        7.382952   -2.857442   -3.594335
     51          1           0        7.627830   -1.088572   -3.462420
     52          1           0        7.630618   -1.806317   -5.048426
     53          1           0        3.114784   -1.716556   -4.538934
     54          1           0        2.619139   -3.235429   -3.690503
     55          1           0        4.173579   -3.938972   -5.965529
     56          1           0        3.325240   -2.519510   -6.448543
     57          1           0        5.683664    3.114496   -4.643102
     58          1           0        6.280861    4.542869   -3.888702
     59          1           0        4.526983    4.417915   -4.181302
     60          1           0        5.646038    6.296426   -2.648208
     61          1           0        4.626987    7.326982   -1.495834
     62          1           0        3.923369    6.047285   -2.520639
     63          1           0        5.113964    3.101041    3.846305
     64          1           0        6.321211    0.556598    4.813959
     65          1           0        7.195856    3.765942    4.419913
     66          1           0        7.812938    2.815312    3.025550
     67          1           0        7.749359    2.106469    4.555411
     68          1           0        4.592564    1.876166    6.094128
     69          1           0        4.289085    0.144604    6.007896
     70          1           0        3.030958    2.424734    4.679436
     71          1           0        2.220343    1.028325    5.466607
     72          1           0        2.939250    0.908031    3.798251
     73          1           0        3.915142   -5.170838    3.716919
     74          1           0        4.683008   -3.782556    4.566696
     75          1           0        5.713306   -4.877666    3.554380
     76          1           0        5.213766   -5.325819   -1.517019
     77          1           0        2.538336   -7.872136   -3.748126
     78          1           0        2.420496   -6.265144   -4.688030
     79          1           0        1.414955   -6.706333   -3.295202
     80         12           0       -4.154447    1.254128    0.489294
     81          6           0       -6.546034   -1.414635    0.296634
     82          6           0       -5.556537    2.515649   -2.352779
     83          6           0       -1.786104    3.362538    0.375514
     84          6           0       -2.260055   -0.781256    2.590283
     85          7           0       -5.830300    0.551452   -0.771672
     86          6           0       -6.704603   -0.441729   -0.712204
     87          6           0       -7.858636   -0.345485   -1.745880
     88          6           0       -7.123287    0.568135   -2.842894
     89          6           0       -6.128192    1.287472   -1.934585
     90          6           0       -6.340075   -0.235162   -3.867893
     91          6           0       -9.127277    0.368684   -1.160630
     92          6           0      -10.394305    0.224034   -2.006483
     93          1           0      -11.679371    0.113147   -1.321798
     94          7           0       -4.013296    2.975476   -0.488259
     95          6           0       -4.671389    3.329396   -1.612053
     96          6           0       -4.204024    4.684696   -1.942052
     97          6           0       -3.094733    5.037119   -1.014699
     98          6           0       -2.903610    3.769653   -0.338624
     99          6           0       -4.854405    5.536228   -2.993397
    100          6           0       -2.323806    6.301601   -0.784555
    101          8           0       -1.243046    6.315385   -0.095642
    102          6           0       -2.820349    7.505541   -1.466811
    103          7           0       -2.194739    1.212046    1.182191
    104          6           0       -1.391345    2.282003    1.049254
    105          6           0       -0.128637    2.120297    1.861549
    106          6           0       -0.361055    0.819650    2.762604
    107          6           0       -1.742666    0.384250    2.226905
    108          6           0        1.162404    1.959234    1.059262
    109          6           0       -0.181667    0.984980    4.296607
    110          6           0       -1.271330    1.874307    4.850781
    111          7           0       -4.422720   -0.657985    1.458793
    112          6           0       -3.492550   -1.338653    2.274614
    113          6           0       -4.083392   -2.651320    2.606640
    114          6           0       -5.316174   -2.652534    1.936767
    115          6           0       -5.473069   -1.435375    1.220241
    116          6           0       -3.465748   -3.667736    3.388650
    117          6           0       -6.515767   -3.411082    1.664226
    118          8           0       -6.980775   -4.476021    2.068469
    119          6           0       -7.309742   -2.695585    0.487763
    120          6           0       -8.754132   -2.595969    0.895596
    121          8           0       -9.091135   -1.886633    1.859900
    122          8           0       -9.519117   -3.176721   -0.046694
    123          6           0      -10.961148   -3.093574    0.307485
    124          1           0       -5.771894    2.871634   -3.360637
    125          1           0       -0.984982    4.100634    0.458600
    126          1           0       -1.775040   -1.433186    3.319965
    127          1           0       -8.153917   -1.290246   -2.186352
    128          1           0       -7.812696    1.278678   -3.291464
    129          1           0       -6.310271   -1.285590   -3.619202
    130          1           0       -5.341597    0.182074   -3.868067
    131          1           0       -6.740380   -0.059295   -4.870465
    132          1           0       -8.985338    1.455503   -1.219204
    133          1           0       -9.322042    0.038749   -0.158714
    134          1           0      -10.295027   -0.560197   -2.766798
    135          1           0      -10.532593    1.141285   -2.584015
    136          1           0       -5.536465    4.949490   -3.621032
    137          1           0       -4.063038    5.857689   -3.679154
    138          1           0       -5.341970    6.420339   -2.577105
    139          1           0       -2.836201    7.331764   -2.540133
    140          1           0       -2.192675    8.324013   -1.109034
    141          1           0       -3.858139    7.678265   -1.160606
    142          1           0        0.026054    2.973950    2.509958
    143          1           0        0.343409    0.014894    2.505841
    144          1           0        1.927296    2.719602    1.305927
    145          1           0        0.916589    1.994814    0.006247
    146          1           0        1.645053    0.987737    1.151135
    147          1           0        0.766330    1.482469    4.515599
    148          1           0       -0.183318    0.043462    4.835630
    149          1           0       -0.888527    2.881442    4.660445
    150          1           0       -1.405110    1.697708    5.916119
    151          1           0       -2.200089    1.761271    4.279577
    152          1           0       -4.225540   -4.051783    4.056279
    153          1           0       -2.610347   -3.281359    3.938902
    154          1           0       -3.166563   -4.364798    2.601352
    155          1           0       -7.178785   -3.299867   -0.410725
    156          1           0      -11.351803   -4.115818    0.298488
    157          1           0      -11.404459   -2.378580   -0.410844
    158          1           0      -11.212797   -2.779851    1.313822
 ---------------------------------------------------------------------

 SCF Done:  E(RCAM-B3LYP) =  -4069.80695606     A.U. after   19 cycles

 Excitation energies and oscillator strengths:

 Excited State   1:      Singlet-A      1.6443 eV  754.03 nm  f=0.0017  <S**2>=0.000
     309 -> 315       -0.11321
     310 -> 316        0.12101
     311 -> 313       -0.46799
     312 -> 314        0.50379
 This state for optimization and/or second-order correction.
 Total Energy, E(TD-HF/TD-DFT) =  -4069.74652952
 Copying the excited state density for this state as the 1-particle RhoCI density.

 Excited State   2:      Singlet-A      1.7055 eV  726.97 nm  f=0.6893  <S**2>=0.000
     309 -> 315        0.13369
     310 -> 316        0.12285
     311 -> 313        0.50132
     312 -> 314        0.46558

 Excited State   3:      Singlet-A      2.1816 eV  568.32 nm  f=0.0748  <S**2>=0.000
     309 -> 313       -0.21804
     310 -> 314        0.60615
     312 -> 316       -0.25306

 Excited State   4:      Singlet-A      2.1972 eV  564.29 nm  f=0.1182  <S**2>=0.000
     309 -> 313        0.60174
     310 -> 314        0.21397
     311 -> 315       -0.26484

 Excited State   5:      Singlet-A      2.3302 eV  532.07 nm  f=0.0001  <S**2>=0.000
     312 -> 313        0.70600

 The electronic state is 1-A.
 Alpha  occ. eigenvalues --  -46.87913 -46.87420 -19.26320 -19.26173 -19.19064
 Alpha  occ. eigenvalues --  -19.18975 -19.18746 -19.18525 -19.18226 -19.17816
 Alpha  occ. eigenvalues --  -14.42544 -14.42264 -14.41561 -14.41118 -14.39473
 Alpha  occ. eigenvalues --  -14.39121 -14.38697 -14.38349 -10.39126 -10.38900
 Alpha  occ. eigenvalues --  -10.35372 -10.35210 -10.34449 -10.33992 -10.31700
 Alpha  occ. eigenvalues --  -10.31602 -10.31508 -10.31064 -10.30970 -10.30827
 Alpha  occ. eigenvalues --  -10.30670 -10.30612 -10.30321 -10.30140 -10.30099
 Alpha  occ. eigenvalues --  -10.30068 -10.29891 -10.29701 -10.29645 -10.29332
 Alpha  occ. eigenvalues --  -10.29209 -10.29147 -10.28811 -10.28594 -10.28538
 Alpha  occ. eigenvalues --  -10.28521 -10.28436 -10.28188 -10.28185 -10.27951
 Alpha  occ. eigenvalues --  -10.27861 -10.27817 -10.27766 -10.27696 -10.27636
 Alpha  occ. eigenvalues --  -10.27625 -10.27490 -10.27486 -10.27440 -10.27318
 Alpha  occ. eigenvalues --  -10.27252 -10.27233 -10.27232 -10.27221 -10.27217
 Alpha  occ. eigenvalues --  -10.26826 -10.26760 -10.26535 -10.26468 -10.26300
 Alpha  occ. eigenvalues --  -10.26299 -10.26224 -10.26150 -10.25944 -10.25846
 Alpha  occ. eigenvalues --  -10.25658 -10.25552 -10.25495 -10.25473 -10.25460
 Alpha  occ. eigenvalues --  -10.25177 -10.24913 -10.24906 -10.24626 -10.24461
 Alpha  occ. eigenvalues --  -10.24428  -3.16624  -3.16170  -1.91508  -1.91094
 Alpha  occ. eigenvalues --   -1.91052  -1.90935  -1.90641  -1.90478  -1.16671
 Alpha  occ. eigenvalues --   -1.16464  -1.08684  -1.08422  -1.07135  -1.06784
 Alpha  occ. eigenvalues --   -1.06758  -1.06686  -1.04666  -1.04267  -1.03864
 Alpha  occ. eigenvalues --   -1.03426  -1.03326  -1.02795  -1.02510  -1.01872
 Alpha  occ. eigenvalues --   -0.92054  -0.91753  -0.89721  -0.89263  -0.89225
 Alpha  occ. eigenvalues --   -0.88955  -0.88466  -0.87997  -0.87958  -0.87763
 Alpha  occ. eigenvalues --   -0.87517  -0.87452  -0.87282  -0.86923  -0.85054
 Alpha  occ. eigenvalues --   -0.84804  -0.84192  -0.83658  -0.83002  -0.82759
 Alpha  occ. eigenvalues --   -0.82677  -0.82461  -0.81659  -0.81378  -0.80662
 Alpha  occ. eigenvalues --   -0.80229  -0.78846  -0.78410  -0.77377  -0.77042
 Alpha  occ. eigenvalues --   -0.76927  -0.76702  -0.76006  -0.75630  -0.75068
 Alpha  occ. eigenvalues --   -0.74663  -0.72893  -0.72453  -0.71767  -0.71398
 Alpha  occ. eigenvalues --   -0.70459  -0.69396  -0.68936  -0.68618  -0.67708
 Alpha  occ. eigenvalues --   -0.67388  -0.67253  -0.67018  -0.65399  -0.65092
 Alpha  occ. eigenvalues --   -0.64980  -0.64781  -0.64553  -0.64483  -0.64383
 Alpha  occ. eigenvalues --   -0.63897  -0.62377  -0.62072  -0.60498  -0.60136
 Alpha  occ. eigenvalues --   -0.59877  -0.59587  -0.59090  -0.58767  -0.58597
 Alpha  occ. eigenvalues --   -0.58204  -0.57655  -0.57411  -0.57329  -0.57028
 Alpha  occ. eigenvalues --   -0.56377  -0.56033  -0.55981  -0.55711  -0.55628
 Alpha  occ. eigenvalues --   -0.55502  -0.55250  -0.55042  -0.54702  -0.54268
 Alpha  occ. eigenvalues --   -0.53966  -0.53723  -0.53444  -0.53234  -0.53056
 Alpha  occ. eigenvalues --   -0.53010  -0.52940  -0.52800  -0.52713  -0.52685
 Alpha  occ. eigenvalues --   -0.52502  -0.52093  -0.52001  -0.51649  -0.51556
 Alpha  occ. eigenvalues --   -0.51469  -0.51315  -0.51002  -0.50557  -0.50331
 Alpha  occ. eigenvalues --   -0.50214  -0.49936  -0.49792  -0.49703  -0.49513
 Alpha  occ. eigenvalues --   -0.49299  -0.49270  -0.49156  -0.48994  -0.48893
 Alpha  occ. eigenvalues --   -0.48681  -0.48574  -0.48426  -0.48354  -0.48221
 Alpha  occ. eigenvalues --   -0.48144  -0.47776  -0.47399  -0.47364  -0.46985
 Alpha  occ. eigenvalues --   -0.46938  -0.46627  -0.46505  -0.46453  -0.46361
 Alpha  occ. eigenvalues --   -0.46273  -0.46050  -0.45926  -0.45891  -0.45597
 Alpha  occ. eigenvalues --   -0.45420  -0.45096  -0.44683  -0.44573  -0.44329
 Alpha  occ. eigenvalues --   -0.44293  -0.44275  -0.44152  -0.44044  -0.43999
 Alpha  occ. eigenvalues --   -0.43900  -0.43739  -0.43602  -0.43477  -0.43420
 Alpha  occ. eigenvalues --   -0.43256  -0.43097  -0.42990  -0.42739  -0.42728
 Alpha  occ. eigenvalues --   -0.42640  -0.42366  -0.42111  -0.41796  -0.41681
 Alpha  occ. eigenvalues --   -0.41595  -0.41423  -0.41241  -0.41157  -0.40990
 Alpha  occ. eigenvalues --   -0.40815  -0.40762  -0.40709  -0.40547  -0.40489
 Alpha  occ. eigenvalues --   -0.40320  -0.40263  -0.40060  -0.39487  -0.38991
 Alpha  occ. eigenvalues --   -0.38610  -0.38123  -0.37812  -0.37474  -0.37459
 Alpha  occ. eigenvalues --   -0.37332  -0.37017  -0.36986  -0.36733  -0.36555
 Alpha  occ. eigenvalues --   -0.36246  -0.35927  -0.34382  -0.34001  -0.33821
 Alpha  occ. eigenvalues --   -0.33666  -0.33274  -0.32933  -0.31297  -0.31106
 Alpha  occ. eigenvalues --   -0.31083  -0.30743  -0.30088  -0.29718  -0.29497
 Alpha  occ. eigenvalues --   -0.29393  -0.29102  -0.28953  -0.24184  -0.23791
 Alpha  occ. eigenvalues --   -0.21222  -0.20878
 Alpha virt. eigenvalues --   -0.08848  -0.08554  -0.01847  -0.01471  -0.00068
 Alpha virt. eigenvalues --    0.00174   0.02120   0.02458   0.03195   0.03521
 Alpha virt. eigenvalues --    0.04620   0.04935   0.05048   0.05360   0.06055

 Mulliken charges:
               1
     1  Mg   0.816853
     2  C   -0.001854
     3  C   -0.093281
     4  C   -0.051819
     5  C   -0.063851
     6  N   -0.256154
     7  C   -0.052714
     8  C   -0.013841
     9  C   -0.086959
    10  C    0.047224
    11  C    0.104781
    12  C    0.053360
    13  C   -0.071780
    14  H    0.036104
    15  N   -0.430923
    16  C    0.170460
    17  C   -0.177131
    18  C   -0.002149
    19  C    0.149266
    20  C    0.110369
    21  C    0.015856
    22  O   -0.248596
    23  C    0.061650
    24  N   -0.337603
    25  C    0.042911
    26  C   -0.027963
    27  C   -0.028334
    28  C    0.072680
    29  C    0.076410
    30  C    0.079589
    31  C   -0.062045
    32  N   -0.307275
    33  C    0.076126
    34  C   -0.170850
    35  C    0.008218
    36  C    0.081764
    37  C    0.127625
    38  C    0.046007
    39  O   -0.188037
    40  C   -0.005586
    41  C    0.212957
    42  O   -0.257086
    43  O   -0.304802
    44  C    0.157496
    45  H   -0.017361
    46  H   -0.016991
    47  H   -0.043307
    48  H    0.001092
    49  H   -0.003932
    50  H    0.025682
    51  H    0.016562
    52  H    0.016860
    53  H    0.011344
    54  H    0.044354
    55  H    0.017990
    56  H    0.017797
    57  H    0.005494
    58  H    0.027164
    59  H    0.040814
    60  H    0.035661
    61  H    0.037916
    62  H    0.034351
    63  H    0.015962
    64  H    0.010257
    65  H    0.023880
    66  H    0.013542
    67  H    0.004985
    68  H    0.005040
    69  H    0.002166
    70  H    0.017269
    71  H    0.038394
    72  H    0.033333
    73  H    0.047183
    74  H    0.008240
    75  H    0.046477
    76  H    0.035428
    77  H    0.043312
    78  H    0.046254
    79  H    0.054090
    80  Mg   0.838628
    81  C   -0.017089
    82  C   -0.088373
    83  C   -0.047352
    84  C   -0.062503
    85  N   -0.254532
    86  C   -0.049288
    87  C   -0.015136
    88  C   -0.090542
    89  C    0.045739
    90  C    0.114617
    91  C    0.062641
    92  C   -0.077558
    93  H    0.034388
    94  N   -0.423081
    95  C    0.162503
    96  C   -0.175968
    97  C   -0.008646
    98  C    0.151588
    99  C    0.100014
   100  C    0.014085
   101  O   -0.252834
   102  C    0.061331
   103  N   -0.349784
   104  C    0.037570
   105  C   -0.013101
   106  C   -0.037446
   107  C    0.092144
   108  C    0.047293
   109  C    0.015047
   110  C   -0.003339
   111  N   -0.324606
   112  C    0.078550
   113  C   -0.160893
   114  C    0.002431
   115  C    0.096888
   116  C    0.131771
   117  C    0.043084
   118  O   -0.187565
   119  C    0.000706
   120  C    0.211106
   121  O   -0.251313
   122  O   -0.305566
   123  C    0.152186
   124  H   -0.020929
   125  H   -0.015184
   126  H   -0.038624
   127  H   -0.000794
   128  H   -0.005043
   129  H    0.022898
   130  H    0.014368
   131  H    0.015115
   132  H    0.013798
   133  H    0.037636
   134  H    0.020601
   135  H    0.019209
   136  H    0.008148
   137  H    0.024208
   138  H    0.039081
   139  H    0.036768
   140  H    0.035937
   141  H    0.033956
   142  H    0.014232
   143  H    0.017510
   144  H    0.042133
   145  H    0.015872
   146  H    0.012987
   147  H    0.013916
   148  H    0.001796
   149  H    0.008996
   150  H    0.014451
   151  H    0.027712
   152  H    0.044876
   153  H    0.008473
   154  H    0.052076
   155  H    0.035436
   156  H    0.043706
   157  H    0.049147
   158  H    0.053360
 Sum of Mulliken charges =  -0.00000

 Dipole moment (field-independent basis, Debye):
    X=              2.3981    Y=              4.3442    Z=             -7.2129  Tot=              8.7549
 Quadrupole moment (field-independent basis, Debye-Ang):
   XX=           -483.2716   YY=           -556.1694   ZZ=           -456.5286
   XY=            -24.1341   XZ=             27.0703   YZ=             -2.0913

 Normal termination of Gaussian 16 at Fri Sep 10 06:08:03 2021.
