 Gaussian 16, Revision A.03,
 Gaussian 16:  ES64L-G16RevA.03 25-Dec-2016

 -----------------------------------
 #p cam-b3lyp/Def2SVP td=(nstates=5)
 -----------------------------------

 --------------------------------
 TDDFT excited states in gaussian
 --------------------------------
 Symbolic Z-matrix:
 Charge =  0 Multiplicity = 1

                         Standard orientation:
 ---------------------------------------------------------------------
 Center     Atomic      Atomic             Coordinates (Angstroms)
 Number     Number       Type             X           Y           Z
 ---------------------------------------------------------------------
      1         12           0       15.827123   -0.637128    0.447188
      2          6           0       16.133994    1.973488   -1.982365
      3          6           0       16.794426    1.639696    2.797393
      4          6           0       16.003437   -3.023013    2.528796
      5          6           0       15.997245   -2.909500   -2.189674
      6          7           0       16.366386    1.505064    0.302778
      7          6           0       16.385869    2.402834   -0.677426
      8          6           0       16.625048    3.858784   -0.177048
      9          6           0       17.365715    3.534242    1.197027
     10          6           0       16.781795    2.159071    1.468814
     11          6           0       18.879263    3.406457    1.057941
     12          6           0       15.285154    4.632535    0.063208
     13          6           0       15.427440    6.147557    0.235884
     14          1           0       14.385531    7.013760   -0.294649
     15          7           0       15.848119   -0.615058    2.422517
     16          6           0       16.258590    0.402801    3.216723
     17          6           0       16.080181   -0.067741    4.607206
     18          6           0       15.711764   -1.509865    4.555819
     19          6           0       15.867310   -1.783821    3.150069
     20          6           0       16.210680    0.826677    5.801667
     21          6           0       15.297070   -2.488748    5.608410
     22          8           0       15.247282   -3.746710    5.385636
     23          6           0       15.032467   -1.938068    6.949968
     24          7           0       16.198858   -2.680477    0.237012
     25          6           0       16.160744   -3.500950    1.292642
     26          6           0       16.174726   -4.939229    0.867088
     27          6           0       15.984577   -4.933014   -0.718333
     28          6           0       15.975816   -3.401673   -0.948959
     29          6           0       17.439566   -5.731172    1.226277
     30          6           0       14.813678   -5.771626   -1.289424
     31          6           0       13.494239   -5.162280   -0.871243
     32          7           0       15.851325   -0.522813   -1.720158
     33          6           0       15.949073   -1.594041   -2.619930
     34          6           0       16.036346   -1.014994   -3.973132
     35          6           0       15.999759    0.362231   -3.763946
     36          6           0       15.922647    0.627194   -2.366756
     37          6           0       16.192413   -1.745882   -5.183867
     38          6           0       16.032702    1.672019   -4.394205
     39          8           0       15.999310    2.075619   -5.557598
     40          6           0       16.243772    2.768994   -3.259338
     41          6           0       15.239724    3.864540   -3.493809
     42          8           0       14.017862    3.653354   -3.353032
     43          8           0       15.880941    5.037272   -3.612475
     44          6           0       14.940104    6.170826   -3.817502
     45          1           0       17.312105    2.200159    3.578310
     46          1           0       15.957162   -3.879213    3.204975
     47          1           0       15.967436   -3.558403   -3.066880
     48          1           0       17.272925    4.458503   -0.816592
     49          1           0       17.081402    4.229470    1.986676
     50          1           0       19.186842    3.431876    0.012633
     51          1           0       19.132626    2.445476    1.506065
     52          1           0       19.388482    4.160670    1.658471
     53          1           0       14.889654    4.370300    1.044470
     54          1           0       14.571891    4.426123   -0.735526
     55          1           0       16.411082    6.494314   -0.082105
     56          1           0       15.391525    6.374734    1.301389
     57          1           0       16.650228    1.787415    5.536478
     58          1           0       16.942799    0.366917    6.465241
     59          1           0       15.263842    0.949587    6.327712
     60          1           0       15.929578   -1.439580    7.317731
     61          1           0       14.662124   -2.769513    7.548629
     62          1           0       14.264630   -1.167975    6.870394
     63          1           0       15.353140   -5.490008    1.323230
     64          1           0       16.863694   -5.315879   -1.237217
     65          1           0       17.243605   -6.621753    1.823914
     66          1           0       18.124091   -5.057588    1.741059
     67          1           0       18.041995   -6.041899    0.373081
     68          1           0       14.841100   -6.783969   -0.887733
     69          1           0       14.827741   -5.845819   -2.376875
     70          1           0       13.340934   -5.574184    0.125585
     71          1           0       12.699190   -5.474493   -1.549204
     72          1           0       13.570567   -4.079665   -0.768266
     73          1           0       15.511446   -1.292279   -5.903934
     74          1           0       15.969945   -2.802929   -5.039768
     75          1           0       17.246610   -1.565893   -5.393933
     76          1           0       17.268800    3.125770   -3.354995
     77          1           0       15.240596    6.675271   -4.735910
     78          1           0       14.949006    6.751647   -2.895021
     79          1           0       13.909781    5.904931   -4.056405
     80         12           0      -15.890429    0.626116    0.454361
     81          6           0      -15.952326   -1.898899   -2.095061
     82          6           0      -16.637601   -1.832202    2.697799
     83          6           0      -16.287114    2.884942    2.647020
     84          6           0      -16.283707    2.992052   -2.074145
     85          7           0      -16.226467   -1.546514    0.211393
     86          6           0      -16.163144   -2.404801   -0.795424
     87          6           0      -16.255418   -3.896433   -0.375789
     88          6           0      -17.029594   -3.706593    1.018297
     89          6           0      -16.580268   -2.286474    1.355993
     90          6           0      -18.542148   -3.706818    0.871607
     91          6           0      -14.843001   -4.546412   -0.164594
     92          6           0      -14.847190   -6.072866   -0.056587
     93          1           0      -13.721917   -6.813602   -0.620097
     94          7           0      -15.903874    0.504917    2.435195
     95          6           0      -16.208975   -0.576826    3.182202
     96          6           0      -16.090777   -0.144496    4.583376
     97          6           0      -15.851650    1.324229    4.602516
     98          6           0      -16.029542    1.638575    3.199090
     99          6           0      -16.125937   -1.104518    5.736876
    100          6           0      -15.530288    2.288536    5.703905
    101          8           0      -15.599067    3.556551    5.530038
    102          6           0      -15.223450    1.704546    7.017787
    103          7           0      -16.446613    2.625751    0.334078
    104          6           0      -16.491215    3.398257    1.433687
    105          6           0      -16.645466    4.855876    1.070425
    106          6           0      -16.451476    4.926261   -0.515452
    107          6           0      -16.300657    3.419458   -0.819071
    108          6           0      -17.979972    5.498097    1.448636
    109          6           0      -15.365422    5.900118   -1.049081
    110          6           0      -13.992156    5.411611   -0.647972
    111          7           0      -15.900498    0.606623   -1.706093
    112          6           0      -16.107365    1.705842   -2.568066
    113          6           0      -16.139721    1.177517   -3.947289
    114          6           0      -15.971106   -0.206334   -3.789128
    115          6           0      -15.862952   -0.520800   -2.407496
    116          6           0      -16.355115    1.944315   -5.127003
    117          6           0      -15.870666   -1.473853   -4.476169
    118          8           0      -15.807145   -1.820330   -5.655011
    119          6           0      -15.980751   -2.640721   -3.402542
    120          6           0      -14.877179   -3.626370   -3.672982
    121          8           0      -13.686562   -3.297566   -3.528280
    122          8           0      -15.411117   -4.849275   -3.845600
    123          6           0      -14.354865   -5.863401   -4.105782
    124          1           0      -17.092516   -2.481490    3.446372
    125          1           0      -16.322440    3.716101    3.355127
    126          1           0      -16.304251    3.677082   -2.924426
    127          1           0      -16.837991   -4.520712   -1.042611
    128          1           0      -16.671793   -4.408030    1.767507
    129          1           0      -18.846450   -3.716282   -0.164476
    130          1           0      -18.885041   -2.803203    1.358393
    131          1           0      -18.975588   -4.536778    1.436964
    132          1           0      -14.476176   -4.288182    0.837158
    133          1           0      -14.163616   -4.240621   -0.936323
    134          1           0      -15.798045   -6.506985   -0.388803
    135          1           0      -14.782182   -6.346214    0.999384
    136          1           0      -16.479317   -2.095140    5.425124
    137          1           0      -16.896765   -0.746169    6.427733
    138          1           0      -15.173339   -1.159786    6.268069
    139          1           0      -16.067301    1.106195    7.352998
    140          1           0      -14.932827    2.545334    7.650621
    141          1           0      -14.375953    1.018978    6.906620
    142          1           0      -15.878934    5.455967    1.545197
    143          1           0      -17.368408    5.259007   -1.023741
    144          1           0      -17.868107    6.387328    2.097348
    145          1           0      -18.594122    4.749796    1.931756
    146          1           0      -18.602075    5.799768    0.607698
    147          1           0      -15.487605    6.887771   -0.597674
    148          1           0      -15.394955    6.032132   -2.125517
    149          1           0      -13.883505    5.791232    0.372414
    150          1           0      -13.230950    5.825497   -1.306229
    151          1           0      -13.963103    4.316977   -0.597275
    152          1           0      -15.641989    1.593308   -5.861005
    153          1           0      -16.238663    3.009069   -4.935907
    154          1           0      -17.392468    1.677670   -5.346254
    155          1           0      -16.967934   -3.091995   -3.509233
    156          1           0      -14.610001   -6.355587   -5.049368
    157          1           0      -14.320114   -6.497669   -3.200118
    158          1           0      -13.355385   -5.502737   -4.318878
 ---------------------------------------------------------------------

 SCF Done:  E(RCAM-B3LYP) =  -4069.81175091     A.U. after   19 cycles

 Excitation energies and oscillator strengths:

 Excited State   1:      Singlet-A      1.6753 eV  740.06 nm  f=0.2132  <S**2>=0.000
     310 -> 316        0.16858
     311 -> 313        0.66651
     312 -> 314       -0.16260
     310 <- 316        0.10163
 This state for optimization and/or second-order correction.
 Total Energy, E(TD-HF/TD-DFT) =  -4069.75018342
 Copying the excited state density for this state as the 1-particle RhoCI density.

 Excited State   2:      Singlet-A      1.6801 eV  737.95 nm  f=0.5643  <S**2>=0.000
     309 -> 315        0.17059
     311 -> 313        0.16255
     312 -> 314        0.66614
     309 <- 315        0.10213

 Excited State   3:      Singlet-A      2.1861 eV  567.15 nm  f=0.0956  <S**2>=0.000
     310 -> 313        0.64213
     311 -> 316       -0.27295

 Excited State   4:      Singlet-A      2.1925 eV  565.49 nm  f=0.1046  <S**2>=0.000
     309 -> 314        0.64036
     312 -> 315       -0.27813

 Excited State   5:      Singlet-A      3.0595 eV  405.24 nm  f=0.0000  <S**2>=0.000
     312 -> 313        0.70711

 The electronic state is 1-A.
 Alpha  occ. eigenvalues --  -46.87756 -46.87661 -19.26343 -19.26239 -19.19155
 Alpha  occ. eigenvalues --  -19.18974 -19.18777 -19.18716 -19.18128 -19.18050
 Alpha  occ. eigenvalues --  -14.42498 -14.42410 -14.41409 -14.41360 -14.39362
 Alpha  occ. eigenvalues --  -14.39352 -14.38600 -14.38546 -10.39085 -10.39034
 Alpha  occ. eigenvalues --  -10.35411 -10.35394 -10.34347 -10.34227 -10.31748
 Alpha  occ. eigenvalues --  -10.31632 -10.31364 -10.31309 -10.31023 -10.30868
 Alpha  occ. eigenvalues --  -10.30529 -10.30467 -10.30398 -10.30360 -10.30168
 Alpha  occ. eigenvalues --  -10.30142 -10.29895 -10.29881 -10.29590 -10.29437
 Alpha  occ. eigenvalues --  -10.29401 -10.29215 -10.28718 -10.28708 -10.28649
 Alpha  occ. eigenvalues --  -10.28494 -10.28405 -10.28324 -10.28140 -10.28076
 Alpha  occ. eigenvalues --  -10.28001 -10.27753 -10.27687 -10.27669 -10.27544
 Alpha  occ. eigenvalues --  -10.27520 -10.27484 -10.27468 -10.27465 -10.27462
 Alpha  occ. eigenvalues --  -10.27443 -10.27412 -10.27378 -10.27363 -10.27116
 Alpha  occ. eigenvalues --  -10.27048 -10.26689 -10.26661 -10.26418 -10.26374
 Alpha  occ. eigenvalues --  -10.26196 -10.26144 -10.26138 -10.26027 -10.25979
 Alpha  occ. eigenvalues --  -10.25935 -10.25850 -10.25802 -10.25402 -10.25400
 Alpha  occ. eigenvalues --  -10.24873 -10.24792 -10.24748 -10.24729 -10.24691
 Alpha  occ. eigenvalues --  -10.24645  -3.16499  -3.16411  -1.91381  -1.91293
 Alpha  occ. eigenvalues --   -1.90967  -1.90881  -1.90809  -1.90718  -1.16637
 Alpha  occ. eigenvalues --   -1.16587  -1.08656  -1.08585  -1.07179  -1.06969
 Alpha  occ. eigenvalues --   -1.06939  -1.06597  -1.04540  -1.04495  -1.03720
 Alpha  occ. eigenvalues --   -1.03664  -1.03193  -1.03039  -1.02371  -1.02112
 Alpha  occ. eigenvalues --   -0.91987  -0.91931  -0.89495  -0.89480  -0.89150
 Alpha  occ. eigenvalues --   -0.89147  -0.88248  -0.88221  -0.87830  -0.87794
 Alpha  occ. eigenvalues --   -0.87684  -0.87632  -0.87235  -0.87121  -0.84999
 Alpha  occ. eigenvalues --   -0.84941  -0.83897  -0.83877  -0.82933  -0.82929
 Alpha  occ. eigenvalues --   -0.82652  -0.82608  -0.81594  -0.81543  -0.80555
 Alpha  occ. eigenvalues --   -0.80441  -0.78758  -0.78636  -0.77178  -0.77144
 Alpha  occ. eigenvalues --   -0.76897  -0.76893  -0.75882  -0.75838  -0.74859
 Alpha  occ. eigenvalues --   -0.74804  -0.72734  -0.72699  -0.71632  -0.71581
 Alpha  occ. eigenvalues --   -0.69867  -0.69758  -0.68832  -0.68826  -0.67601
 Alpha  occ. eigenvalues --   -0.67601  -0.67199  -0.67178  -0.65270  -0.65245
 Alpha  occ. eigenvalues --   -0.64812  -0.64770  -0.64652  -0.64580  -0.64229
 Alpha  occ. eigenvalues --   -0.64204  -0.62275  -0.62255  -0.60403  -0.60341
 Alpha  occ. eigenvalues --   -0.59796  -0.59763  -0.58993  -0.58947  -0.58463
 Alpha  occ. eigenvalues --   -0.58425  -0.57552  -0.57542  -0.57268  -0.57237
 Alpha  occ. eigenvalues --   -0.56269  -0.56204  -0.55935  -0.55883  -0.55480
 Alpha  occ. eigenvalues --   -0.55451  -0.55299  -0.55247  -0.54486  -0.54482
 Alpha  occ. eigenvalues --   -0.53911  -0.53854  -0.53259  -0.53228  -0.53181
 Alpha  occ. eigenvalues --   -0.53141  -0.52900  -0.52873  -0.52717  -0.52669
 Alpha  occ. eigenvalues --   -0.52401  -0.52398  -0.51884  -0.51874  -0.51658
 Alpha  occ. eigenvalues --   -0.51575  -0.51200  -0.51155  -0.50534  -0.50477
 Alpha  occ. eigenvalues --   -0.49992  -0.49980  -0.49879  -0.49868  -0.49488
 Alpha  occ. eigenvalues --   -0.49474  -0.49202  -0.49174  -0.49104  -0.49055
 Alpha  occ. eigenvalues --   -0.48557  -0.48552  -0.48423  -0.48405  -0.48377
 Alpha  occ. eigenvalues --   -0.48339  -0.47655  -0.47594  -0.47257  -0.47119
 Alpha  occ. eigenvalues --   -0.46757  -0.46709  -0.46553  -0.46514  -0.46319
 Alpha  occ. eigenvalues --   -0.46270  -0.46122  -0.46085  -0.45821  -0.45780
 Alpha  occ. eigenvalues --   -0.45210  -0.45162  -0.44536  -0.44513  -0.44476
 Alpha  occ. eigenvalues --   -0.44467  -0.44127  -0.44104  -0.44078  -0.44048
 Alpha  occ. eigenvalues --   -0.43979  -0.43939  -0.43550  -0.43452  -0.43385
 Alpha  occ. eigenvalues --   -0.43345  -0.42987  -0.42928  -0.42900  -0.42656
 Alpha  occ. eigenvalues --   -0.42613  -0.42554  -0.41968  -0.41963  -0.41669
 Alpha  occ. eigenvalues --   -0.41663  -0.41492  -0.41458  -0.41101  -0.40990
 Alpha  occ. eigenvalues --   -0.40828  -0.40784  -0.40722  -0.40698  -0.40532
 Alpha  occ. eigenvalues --   -0.40494  -0.40225  -0.40192  -0.39426  -0.39401
 Alpha  occ. eigenvalues --   -0.38429  -0.38351  -0.37706  -0.37652  -0.37281
 Alpha  occ. eigenvalues --   -0.37266  -0.37222  -0.37199  -0.36767  -0.36670
 Alpha  occ. eigenvalues --   -0.36216  -0.36151  -0.34253  -0.34245  -0.33857
 Alpha  occ. eigenvalues --   -0.33726  -0.33176  -0.33146  -0.31307  -0.31275
 Alpha  occ. eigenvalues --   -0.30995  -0.30973  -0.29987  -0.29954  -0.29409
 Alpha  occ. eigenvalues --   -0.29328  -0.29281  -0.29211  -0.24040  -0.24036
 Alpha  occ. eigenvalues --   -0.21117  -0.21087
 Alpha virt. eigenvalues --   -0.08792  -0.08734  -0.01710  -0.01684  -0.00029
 Alpha virt. eigenvalues --   -0.00018   0.02207   0.02241   0.03166   0.03231
 Alpha virt. eigenvalues --    0.04730   0.04759   0.05143   0.05170   0.06186

 Mulliken charges:
               1
     1  Mg   0.838842
     2  C   -0.002948
     3  C   -0.094104
     4  C   -0.045884
     5  C   -0.063982
     6  N   -0.256785
     7  C   -0.052459
     8  C   -0.014009
     9  C   -0.087032
    10  C    0.046350
    11  C    0.104827
    12  C    0.053459
    13  C   -0.071823
    14  H    0.036218
    15  N   -0.433150
    16  C    0.168413
    17  C   -0.177156
    18  C   -0.004020
    19  C    0.148710
    20  C    0.110177
    21  C    0.012276
    22  O   -0.249667
    23  C    0.062481
    24  N   -0.341171
    25  C    0.041250
    26  C   -0.028158
    27  C   -0.023980
    28  C    0.074873
    29  C    0.076186
    30  C    0.035123
    31  C   -0.004500
    32  N   -0.310482
    33  C    0.080447
    34  C   -0.169685
    35  C    0.008363
    36  C    0.083009
    37  C    0.127302
    38  C    0.046146
    39  O   -0.188401
    40  C   -0.005337
    41  C    0.212867
    42  O   -0.257027
    43  O   -0.304826
    44  C    0.157671
    45  H   -0.017634
    46  H   -0.016878
    47  H   -0.041491
    48  H    0.000930
    49  H   -0.004029
    50  H    0.025458
    51  H    0.016418
    52  H    0.016627
    53  H    0.011232
    54  H    0.044176
    55  H    0.017831
    56  H    0.017943
    57  H    0.005869
    58  H    0.026771
    59  H    0.039566
    60  H    0.037312
    61  H    0.035599
    62  H    0.031539
    63  H    0.016546
    64  H    0.009426
    65  H    0.023164
    66  H    0.012520
    67  H    0.004719
    68  H    0.006321
    69  H    0.004743
    70  H    0.008757
    71  H    0.018205
    72  H    0.029019
    73  H    0.047629
    74  H    0.009118
    75  H    0.045973
    76  H    0.035122
    77  H    0.042941
    78  H    0.046396
    79  H    0.053763
    80  Mg   0.837927
    81  C   -0.016806
    82  C   -0.087794
    83  C   -0.045526
    84  C   -0.064887
    85  N   -0.254581
    86  C   -0.049822
    87  C   -0.015091
    88  C   -0.090496
    89  C    0.045746
    90  C    0.114377
    91  C    0.062518
    92  C   -0.077932
    93  H    0.035000
    94  N   -0.423478
    95  C    0.162922
    96  C   -0.174626
    97  C   -0.007826
    98  C    0.152122
    99  C    0.099375
   100  C    0.015575
   101  O   -0.253197
   102  C    0.061190
   103  N   -0.350083
   104  C    0.037514
   105  C   -0.019827
   106  C   -0.034837
   107  C    0.088950
   108  C    0.073671
   109  C    0.034741
   110  C   -0.007693
   111  N   -0.324117
   112  C    0.078472
   113  C   -0.163099
   114  C    0.002256
   115  C    0.096216
   116  C    0.131466
   117  C    0.042415
   118  O   -0.187819
   119  C    0.000908
   120  C    0.211274
   121  O   -0.250954
   122  O   -0.305662
   123  C    0.152004
   124  H   -0.019671
   125  H   -0.015587
   126  H   -0.040443
   127  H   -0.000649
   128  H   -0.004305
   129  H    0.022450
   130  H    0.014399
   131  H    0.016278
   132  H    0.013934
   133  H    0.037726
   134  H    0.020763
   135  H    0.019593
   136  H    0.008768
   137  H    0.026116
   138  H    0.039812
   139  H    0.038241
   140  H    0.036376
   141  H    0.033926
   142  H    0.014407
   143  H    0.012399
   144  H    0.025124
   145  H    0.011614
   146  H    0.005653
   147  H    0.006246
   148  H    0.003676
   149  H    0.010923
   150  H    0.018007
   151  H    0.030123
   152  H    0.046083
   153  H    0.008534
   154  H    0.046917
   155  H    0.035003
   156  H    0.043931
   157  H    0.049489
   158  H    0.053658
 Sum of Mulliken charges =  -0.00000

 Dipole moment (field-independent basis, Debye):
    X=              0.2117    Y=             -0.3989    Z=              7.4713  Tot=              7.4849
 Quadrupole moment (field-independent basis, Debye-Ang):
   XX=           -392.1089   YY=           -459.3729   ZZ=           -539.5894
   XY=             55.3802   XZ=              6.8308   YZ=              1.8568

 Normal termination of Gaussian 16 at Sun Sep 12 12:53:50 2021.
