 Gaussian 16, Revision A.03,
 Gaussian 16:  ES64L-G16RevA.03 25-Dec-2016

 -----------------------------------
 #p cam-b3lyp/Def2SVP td=(nstates=5)
 -----------------------------------

 --------------------------------
 TDDFT excited states in gaussian
 --------------------------------
 Symbolic Z-matrix:
 Charge =  0 Multiplicity = 1

                         Standard orientation:
 ---------------------------------------------------------------------
 Center     Atomic      Atomic             Coordinates (Angstroms)
 Number     Number       Type             X           Y           Z
 ---------------------------------------------------------------------
      1         12           0       -6.334555   -1.103856    0.374472
      2          6           0       -6.747664    2.449916    0.263769
      3          6           0       -7.339961   -1.172916   -2.885506
      4          6           0       -6.415227   -4.267397    0.579710
      5          6           0       -6.469604   -0.863234    3.848594
      6          7           0       -6.938423    0.501297   -1.025340
      7          6           0       -6.996239    1.827866   -0.961755
      8          6           0       -7.272133    2.500992   -2.339491
      9          6           0       -7.986196    1.281162   -3.077139
     10          6           0       -7.358753    0.131606   -2.308531
     11          6           0       -9.496897    1.243913   -2.870021
     12          6           0       -5.952807    2.920009   -3.071294
     13          6           0       -6.137572    3.868703   -4.259231
     14          1           0       -5.128151    4.887421   -4.505465
     15          7           0       -6.332236   -2.480152   -1.042798
     16          6           0       -6.762862   -2.329742   -2.318426
     17          6           0       -6.553815   -3.637604   -2.976055
     18          6           0       -6.143711   -4.613366   -1.928297
     19          6           0       -6.308153   -3.822103   -0.735720
     20          6           0       -6.696119   -3.848417   -4.452218
     21          6           0       -5.687617   -6.036808   -1.990929
     22          8           0       -5.603486   -6.770623   -0.947372
     23          6           0       -5.423107   -6.583382   -3.334184
     24          7           0       -6.648435   -2.415987    1.967402
     25          6           0       -6.573361   -3.740312    1.795613
     26          6           0       -6.550113   -4.461064    3.110875
     27          6           0       -6.379470   -3.334358    4.229431
     28          6           0       -6.418637   -2.085573    3.314405
     29          6           0       -7.786617   -5.312995    3.429124
     30          6           0       -5.191379   -3.492391    5.211207
     31          6           0       -3.885495   -3.315902    4.469172
     32          7           0       -6.388397    0.503087    1.832511
     33          6           0       -6.465439    0.374210    3.226832
     34          6           0       -6.586142    1.735455    3.780467
     35          6           0       -6.587621    2.565971    2.661501
     36          6           0       -6.501412    1.772047    1.482286
     37          6           0       -6.735274    2.065270    5.156482
     38          6           0       -6.666788    3.937876    2.186670
     39          8           0       -6.659415    5.044549    2.727701
     40          6           0       -6.896315    3.910327    0.611112
     41          6           0       -5.927904    4.882056   -0.006330
     42          8           0       -4.698732    4.669110    0.027652
     43          8           0       -6.604794    5.778496   -0.740331
     44          6           0       -5.700324    6.754580   -1.404672
     45          1           0       -7.864422   -1.340706   -3.828230
     46          1           0       -6.335545   -5.349553    0.702299
     47          1           0       -6.431326   -0.704719    4.927881
     48          1           0       -7.945109    3.357716   -2.300117
     49          1           0       -7.712939    1.226426   -4.130731
     50          1           0       -9.817745    1.989149   -2.142283
     51          1           0       -9.716378    0.239248   -2.508125
     52          1           0      -10.020800    1.340844   -3.821287
     53          1           0       -5.537881    2.054517   -3.587841
     54          1           0       -5.243510    3.357216   -2.367679
     55          1           0       -7.134789    4.309638   -4.265823
     56          1           0       -6.095448    3.280391   -5.175917
     57          1           0       -7.166972   -2.993187   -4.935358
     58          1           0       -7.406272   -4.663454   -4.590454
     59          1           0       -5.747005   -4.103876   -4.923657
     60          1           0       -6.329992   -6.515297   -3.935409
     61          1           0       -5.021191   -7.583834   -3.177950
     62          1           0       -4.679318   -5.958537   -3.829457
     63          1           0       -5.707182   -5.148781    3.165086
     64          1           0       -7.253151   -3.266318    4.878065
     65          1           0       -7.557264   -6.359804    3.629856
     66          1           0       -8.484401   -5.218017    2.597640
     67          1           0       -8.389930   -4.950167    4.260861
     68          1           0       -5.184084   -4.494123    5.639489
     69          1           0       -5.216436   -2.779476    6.035449
     70          1           0       -3.708041   -4.305643    4.049940
     71          1           0       -3.089871   -3.036391    5.160596
     72          1           0       -3.992439   -2.622851    3.634468
     73          1           0       -6.076752    2.914223    5.339772
     74          1           0       -6.480022    1.220630    5.796038
     75          1           0       -7.796787    2.309833    5.191614
     76          1           0       -7.932496    4.200548    0.440167
     77          1           0       -6.026667    7.750385   -1.104493
     78          1           0       -5.715151    6.516504   -2.468395
     79          1           0       -4.665587    6.764620   -1.060353
     80         12           0        6.864982   -0.336275   -0.169282
     81          6           0        5.387593    2.929584    0.005482
     82          6           0        4.971620   -0.880245   -2.953860
     83          6           0        7.803455   -3.366304   -0.094288
     84          6           0        7.740302    0.032304    3.183876
     85          7           0        5.406607    0.937044   -1.238893
     86          6           0        4.971822    2.182129   -1.116064
     87          6           0        4.102568    2.679781   -2.301932
     88          6           0        3.588932    1.255737   -2.837809
     89          6           0        4.740387    0.380289   -2.347492
     90          6           0        2.310596    0.784773   -2.164477
     91          6           0        4.948413    3.431488   -3.388906
     92          6           0        4.126460    4.210679   -4.417990
     93          1           0        4.661264    5.471053   -4.925835
     94          7           0        6.840327   -1.723845   -1.587945
     95          6           0        6.020844   -1.778256   -2.658817
     96          6           0        6.389721   -3.002773   -3.385902
     97          6           0        7.381876   -3.752707   -2.568633
     98          6           0        7.364360   -2.969988   -1.349152
     99          6           0        5.873804   -3.320205   -4.759401
    100          6           0        8.200279   -4.979634   -2.835217
    101          8           0        8.819977   -5.592916   -1.895703
    102          6           0        8.179015   -5.495546   -4.211762
    103          7           0        7.469048   -1.587362    1.377408
    104          6           0        7.875877   -2.844930    1.130562
    105          6           0        8.520605   -3.458993    2.350253
    106          6           0        8.680390   -2.262994    3.399836
    107          6           0        7.988836   -1.134124    2.604356
    108          6           0        7.751667   -4.608188    3.001757
    109          6           0       10.105396   -2.005385    3.961690
    110          6           0       11.010103   -1.498712    2.861610
    111          7           0        6.789430    1.253109    1.292300
    112          6           0        7.183952    1.186047    2.646525
    113          6           0        6.836330    2.481396    3.265916
    114          6           0        6.238015    3.209622    2.226602
    115          6           0        6.196142    2.416271    1.048322
    116          6           0        7.036507    2.831045    4.631129
    117          6           0        5.622716    4.465233    1.861157
    118          8           0        5.458954    5.548054    2.421882
    119          6           0        4.930296    4.294167    0.440706
    120          6           0        5.322721    5.469577   -0.411899
    121          8           0        6.506549    5.633757   -0.755731
    122          8           0        4.210412    6.080660   -0.858779
    123          6           0        4.547919    7.246502   -1.718274
    124          1           0        4.258617   -1.236716   -3.697801
    125          1           0        8.239400   -4.366622   -0.041494
    126          1           0        8.069282    0.261276    4.199755
    127          1           0        3.258391    3.296992   -2.018735
    128          1           0        3.532636    1.239036   -3.923130
    129          1           0        2.021993    1.432513   -1.350065
    130          1           0        2.520596   -0.211917   -1.799019
    131          1           0        1.513693    0.672485   -2.905205
    132          1           0        5.422634    2.692667   -4.047691
    133          1           0        5.665113    4.084267   -2.929736
    134          1           0        3.083074    4.334845   -4.103533
    135          1           0        4.061824    3.616167   -5.332529
    136          1           0        5.034938   -2.669005   -5.034443
    137          1           0        5.435240   -4.322864   -4.712413
    138          1           0        6.660575   -3.313743   -5.516770
    139          1           0        7.154911   -5.726736   -4.494992
    140          1           0        8.892804   -6.321501   -4.225344
    141          1           0        8.521321   -4.703770   -4.887444
    142          1           0        9.501727   -3.851571    2.112776
    143          1           0        8.073557   -2.428895    4.302090
    144          1           0        8.341318   -5.541428    3.075556
    145          1           0        6.844290   -4.775380    2.436739
    146          1           0        7.367803   -4.400198    3.999047
    147          1           0       10.545630   -2.939090    4.320214
    148          1           0       10.123346   -1.302705    4.788070
    149          1           0       11.332604   -2.418299    2.364179
    150          1           0       11.856873   -0.958627    3.280327
    151          1           0       10.446981   -0.908087    2.129681
    152          1           0        7.429267    3.839095    4.639984
    153          1           0        7.712469    2.135825    5.124599
    154          1           0        6.013302    2.745051    5.006536
    155          1           0        3.852976    4.248934    0.604731
    156          1           0        4.043448    8.117227   -1.288133
    157          1           0        4.259666    6.953811   -2.745410
    158          1           0        5.578474    7.581666   -1.726204
 ---------------------------------------------------------------------

 SCF Done:  E(RCAM-B3LYP) =  -4069.81159037     A.U. after   19 cycles

 Excitation energies and oscillator strengths:

 Excited State   1:      Singlet-A      1.6649 eV  744.68 nm  f=0.0057  <S**2>=0.000
     309 -> 315       -0.11146
     310 -> 316        0.12990
     311 -> 313       -0.44524
     312 -> 314        0.52274
 This state for optimization and/or second-order correction.
 Total Energy, E(TD-HF/TD-DFT) =  -4069.75040561
 Copying the excited state density for this state as the 1-particle RhoCI density.

 Excited State   2:      Singlet-A      1.6894 eV  733.88 nm  f=0.7359  <S**2>=0.000
     309 -> 315        0.13562
     310 -> 316        0.11467
     311 -> 313        0.52150
     312 -> 314        0.44428

 Excited State   3:      Singlet-A      2.1845 eV  567.55 nm  f=0.0515  <S**2>=0.000
     309 -> 313       -0.18505
     310 -> 314        0.61588
     312 -> 316       -0.26040

 Excited State   4:      Singlet-A      2.1932 eV  565.31 nm  f=0.1402  <S**2>=0.000
     309 -> 313        0.61346
     310 -> 314        0.18345
     311 -> 315       -0.26728

 Excited State   5:      Singlet-A      2.6231 eV  472.66 nm  f=0.0000  <S**2>=0.000
     312 -> 313        0.70703

 The electronic state is 1-A.
 Alpha  occ. eigenvalues --  -46.87913 -46.87536 -19.26380 -19.26167 -19.19120
 Alpha  occ. eigenvalues --  -19.18995 -19.18935 -19.18617 -19.18256 -19.17890
 Alpha  occ. eigenvalues --  -14.42568 -14.42368 -14.41559 -14.41236 -14.39520
 Alpha  occ. eigenvalues --  -14.39230 -14.38697 -14.38471 -10.39179 -10.38921
 Alpha  occ. eigenvalues --  -10.35570 -10.35297 -10.34477 -10.34064 -10.31771
 Alpha  occ. eigenvalues --  -10.31587 -10.31517 -10.31170 -10.31033 -10.30892
 Alpha  occ. eigenvalues --  -10.30678 -10.30614 -10.30317 -10.30272 -10.30230
 Alpha  occ. eigenvalues --  -10.30032 -10.30019 -10.29770 -10.29739 -10.29369
 Alpha  occ. eigenvalues --  -10.29321 -10.29279 -10.28886 -10.28715 -10.28562
 Alpha  occ. eigenvalues --  -10.28543 -10.28479 -10.28274 -10.28243 -10.27987
 Alpha  occ. eigenvalues --  -10.27898 -10.27874 -10.27843 -10.27698 -10.27621
 Alpha  occ. eigenvalues --  -10.27589 -10.27546 -10.27537 -10.27516 -10.27419
 Alpha  occ. eigenvalues --  -10.27390 -10.27349 -10.27349 -10.27274 -10.27256
 Alpha  occ. eigenvalues --  -10.26877 -10.26868 -10.26567 -10.26551 -10.26345
 Alpha  occ. eigenvalues --  -10.26345 -10.26261 -10.26124 -10.26051 -10.25908
 Alpha  occ. eigenvalues --  -10.25826 -10.25816 -10.25717 -10.25514 -10.25302
 Alpha  occ. eigenvalues --  -10.24936 -10.24895 -10.24768 -10.24740 -10.24648
 Alpha  occ. eigenvalues --  -10.24567  -3.16656  -3.16285  -1.91538  -1.91168
 Alpha  occ. eigenvalues --   -1.91124  -1.90966  -1.90756  -1.90593  -1.16729
 Alpha  occ. eigenvalues --   -1.16465  -1.08711  -1.08492  -1.07336  -1.06871
 Alpha  occ. eigenvalues --   -1.06777  -1.06741  -1.04698  -1.04364  -1.03871
 Alpha  occ. eigenvalues --   -1.03538  -1.03344  -1.02916  -1.02521  -1.01986
 Alpha  occ. eigenvalues --   -0.92079  -0.91844  -0.89617  -0.89379  -0.89318
 Alpha  occ. eigenvalues --   -0.89004  -0.88383  -0.88111  -0.87965  -0.87791
 Alpha  occ. eigenvalues --   -0.87663  -0.87559  -0.87396  -0.87019  -0.85110
 Alpha  occ. eigenvalues --   -0.84866  -0.84028  -0.83767  -0.83087  -0.82838
 Alpha  occ. eigenvalues --   -0.82769  -0.82524  -0.81689  -0.81450  -0.80707
 Alpha  occ. eigenvalues --   -0.80309  -0.78912  -0.78522  -0.77330  -0.77048
 Alpha  occ. eigenvalues --   -0.77021  -0.76763  -0.76033  -0.75692  -0.74993
 Alpha  occ. eigenvalues --   -0.74686  -0.72879  -0.72574  -0.71779  -0.71448
 Alpha  occ. eigenvalues --   -0.69997  -0.69656  -0.68996  -0.68697  -0.67751
 Alpha  occ. eigenvalues --   -0.67477  -0.67360  -0.67083  -0.65410  -0.65131
 Alpha  occ. eigenvalues --   -0.64960  -0.64730  -0.64641  -0.64517  -0.64368
 Alpha  occ. eigenvalues --   -0.64089  -0.62397  -0.62128  -0.60557  -0.60232
 Alpha  occ. eigenvalues --   -0.59927  -0.59655  -0.59093  -0.58864  -0.58609
 Alpha  occ. eigenvalues --   -0.58293  -0.57683  -0.57411  -0.57395  -0.57114
 Alpha  occ. eigenvalues --   -0.56417  -0.56086  -0.56079  -0.55738  -0.55633
 Alpha  occ. eigenvalues --   -0.55432  -0.55327  -0.55121  -0.54618  -0.54355
 Alpha  occ. eigenvalues --   -0.54026  -0.53771  -0.53410  -0.53343  -0.53109
 Alpha  occ. eigenvalues --   -0.53022  -0.53012  -0.52884  -0.52768  -0.52561
 Alpha  occ. eigenvalues --   -0.52526  -0.52301  -0.51998  -0.51750  -0.51746
 Alpha  occ. eigenvalues --   -0.51531  -0.51297  -0.51066  -0.50704  -0.50386
 Alpha  occ. eigenvalues --   -0.50132  -0.50038  -0.49859  -0.49759  -0.49636
 Alpha  occ. eigenvalues --   -0.49366  -0.49323  -0.49211  -0.49066  -0.48955
 Alpha  occ. eigenvalues --   -0.48695  -0.48570  -0.48545  -0.48417  -0.48263
 Alpha  occ. eigenvalues --   -0.48223  -0.47809  -0.47471  -0.47407  -0.47005
 Alpha  occ. eigenvalues --   -0.46904  -0.46684  -0.46587  -0.46464  -0.46423
 Alpha  occ. eigenvalues --   -0.46259  -0.46152  -0.45957  -0.45916  -0.45677
 Alpha  occ. eigenvalues --   -0.45297  -0.45095  -0.44678  -0.44626  -0.44376
 Alpha  occ. eigenvalues --   -0.44349  -0.44250  -0.44210  -0.44125  -0.43990
 Alpha  occ. eigenvalues --   -0.43966  -0.43815  -0.43593  -0.43501  -0.43411
 Alpha  occ. eigenvalues --   -0.43253  -0.43131  -0.42796  -0.42789  -0.42749
 Alpha  occ. eigenvalues --   -0.42748  -0.42447  -0.42113  -0.41847  -0.41808
 Alpha  occ. eigenvalues --   -0.41660  -0.41528  -0.41332  -0.41250  -0.40991
 Alpha  occ. eigenvalues --   -0.40950  -0.40855  -0.40670  -0.40615  -0.40578
 Alpha  occ. eigenvalues --   -0.40387  -0.40376  -0.40101  -0.39531  -0.39327
 Alpha  occ. eigenvalues --   -0.38572  -0.38239  -0.37890  -0.37531  -0.37423
 Alpha  occ. eigenvalues --   -0.37391  -0.37149  -0.37069  -0.36811  -0.36616
 Alpha  occ. eigenvalues --   -0.36296  -0.36087  -0.34396  -0.34125  -0.33873
 Alpha  occ. eigenvalues --   -0.33704  -0.33295  -0.33049  -0.31464  -0.31175
 Alpha  occ. eigenvalues --   -0.31146  -0.30844  -0.30115  -0.29791  -0.29564
 Alpha  occ. eigenvalues --   -0.29425  -0.29210  -0.29079  -0.24192  -0.23907
 Alpha  occ. eigenvalues --   -0.21238  -0.20992
 Alpha virt. eigenvalues --   -0.08885  -0.08667  -0.01862  -0.01562  -0.00176
 Alpha virt. eigenvalues --    0.00089   0.02103   0.02348   0.02969   0.03337
 Alpha virt. eigenvalues --    0.04593   0.04857   0.04998   0.05333   0.06031

 Mulliken charges:
               1
     1  Mg   0.837971
     2  C   -0.003222
     3  C   -0.094647
     4  C   -0.045797
     5  C   -0.063726
     6  N   -0.256757
     7  C   -0.052657
     8  C   -0.013845
     9  C   -0.086899
    10  C    0.045989
    11  C    0.104781
    12  C    0.053649
    13  C   -0.071565
    14  H    0.035417
    15  N   -0.433113
    16  C    0.168036
    17  C   -0.177572
    18  C   -0.004189
    19  C    0.148513
    20  C    0.110223
    21  C    0.012035
    22  O   -0.249382
    23  C    0.062691
    24  N   -0.341098
    25  C    0.041173
    26  C   -0.028184
    27  C   -0.024116
    28  C    0.074903
    29  C    0.076104
    30  C    0.035062
    31  C   -0.004530
    32  N   -0.310575
    33  C    0.080509
    34  C   -0.169246
    35  C    0.008670
    36  C    0.083004
    37  C    0.127178
    38  C    0.046456
    39  O   -0.187544
    40  C   -0.005455
    41  C    0.213142
    42  O   -0.257350
    43  O   -0.304731
    44  C    0.157499
    45  H   -0.017651
    46  H   -0.016688
    47  H   -0.041024
    48  H    0.001273
    49  H   -0.004432
    50  H    0.025693
    51  H    0.016626
    52  H    0.016720
    53  H    0.010189
    54  H    0.043773
    55  H    0.018505
    56  H    0.017574
    57  H    0.005727
    58  H    0.027057
    59  H    0.038557
    60  H    0.037527
    61  H    0.035759
    62  H    0.030532
    63  H    0.016613
    64  H    0.009739
    65  H    0.023375
    66  H    0.012555
    67  H    0.004963
    68  H    0.006603
    69  H    0.005060
    70  H    0.008752
    71  H    0.018492
    72  H    0.028634
    73  H    0.048313
    74  H    0.009382
    75  H    0.046250
    76  H    0.035376
    77  H    0.043538
    78  H    0.045932
    79  H    0.053899
    80  Mg   0.837746
    81  C   -0.016741
    82  C   -0.087810
    83  C   -0.045648
    84  C   -0.065058
    85  N   -0.254573
    86  C   -0.049391
    87  C   -0.015344
    88  C   -0.090662
    89  C    0.045895
    90  C    0.114314
    91  C    0.062585
    92  C   -0.077637
    93  H    0.034207
    94  N   -0.423449
    95  C    0.162834
    96  C   -0.174860
    97  C   -0.008044
    98  C    0.152080
    99  C    0.099550
   100  C    0.015409
   101  O   -0.253422
   102  C    0.061283
   103  N   -0.350049
   104  C    0.037448
   105  C   -0.019779
   106  C   -0.034809
   107  C    0.089071
   108  C    0.073727
   109  C    0.034780
   110  C   -0.007619
   111  N   -0.324210
   112  C    0.078670
   113  C   -0.163119
   114  C    0.002694
   115  C    0.096118
   116  C    0.131436
   117  C    0.042794
   118  O   -0.187061
   119  C    0.000717
   120  C    0.211058
   121  O   -0.251633
   122  O   -0.304708
   123  C    0.152287
   124  H   -0.020262
   125  H   -0.015861
   126  H   -0.040594
   127  H    0.001149
   128  H   -0.005225
   129  H    0.025126
   130  H    0.013996
   131  H    0.015622
   132  H    0.013419
   133  H    0.037604
   134  H    0.021531
   135  H    0.018792
   136  H    0.008228
   137  H    0.025675
   138  H    0.039309
   139  H    0.038012
   140  H    0.036086
   141  H    0.033680
   142  H    0.014159
   143  H    0.012341
   144  H    0.024851
   145  H    0.011788
   146  H    0.005504
   147  H    0.006029
   148  H    0.003588
   149  H    0.010797
   150  H    0.017744
   151  H    0.030228
   152  H    0.045991
   153  H    0.008173
   154  H    0.047583
   155  H    0.037458
   156  H    0.044308
   157  H    0.049040
   158  H    0.053054
 Sum of Mulliken charges =  -0.00000

 Dipole moment (field-independent basis, Debye):
    X=             -4.6983    Y=             -3.8930    Z=             -6.3239  Tot=              8.7876
 Quadrupole moment (field-independent basis, Debye-Ang):
   XX=           -514.8074   YY=           -561.9825   ZZ=           -446.7965
   XY=             -5.7481   XZ=             26.4427   YZ=            -32.8412

 Normal termination of Gaussian 16 at Sat Sep 11 14:17:01 2021.
