 Gaussian 16, Revision A.03,
 Gaussian 16:  ES64L-G16RevA.03 25-Dec-2016

 -----------------------------------
 #p cam-b3lyp/Def2SVP td=(nstates=5)
 -----------------------------------

 --------------------------------
 TDDFT excited states in gaussian
 --------------------------------
 Symbolic Z-matrix:
 Charge =  0 Multiplicity = 1

                         Standard orientation:
 ---------------------------------------------------------------------
 Center     Atomic      Atomic             Coordinates (Angstroms)
 Number     Number       Type             X           Y           Z
 ---------------------------------------------------------------------
      1         12           0        7.644025   -0.927086    0.235599
      2          6           0        7.998101    2.138118   -1.578613
      3          6           0        8.503229    0.809324    3.044462
      4          6           0        7.781528   -3.696679    1.774128
      5          6           0        7.931009   -2.592501   -2.812301
      6          7           0        8.160261    1.200459    0.563770
      7          6           0        8.200851    2.284542   -0.204532
      8          6           0        8.404529    3.603841    0.598798
      9          6           0        9.103133    3.001434    1.899204
     10          6           0        8.528183    1.596652    1.855124
     11          6           0       10.621988    2.914177    1.789816
     12          6           0        7.047558    4.302246    0.948926
     13          6           0        7.164560    5.747738    1.441083
     14          1           0        6.129865    6.700424    1.068066
     15          7           0        7.598946   -1.321204    2.170926
     16          6           0        7.969645   -0.491076    3.175294
     17          6           0        7.751085   -1.244753    4.428642
     18          6           0        7.403122   -2.645766    4.062337
     19          6           0        7.608897   -2.616806    2.636786
     20          6           0        7.830246   -0.621104    5.788254
     21          6           0        6.966203   -3.826570    4.870382
     22          8           0        6.940010   -5.009707    4.386569
     23          6           0        6.650027   -3.572103    6.287534
     24          7           0        8.048745   -2.878317   -0.386120
     25          6           0        7.986033   -3.902816    0.471465
     26          6           0        8.032636   -5.219189   -0.246122
     27          6           0        7.895323   -4.880433   -1.800516
     28          6           0        7.874595   -3.334929   -1.704291
     29          6           0        9.294872   -6.061978   -0.017045
     30          6           0        6.754950   -5.586512   -2.576030
     31          6           0        5.414605   -5.086167   -2.085898
     32          7           0        7.738917   -0.358970   -1.857075
     33          6           0        7.880313   -1.216234   -2.957883
     34          6           0        8.005162   -0.364836   -4.155215
     35          6           0        7.943957    0.937271   -3.662655
     36          6           0        7.816966    0.901756   -2.244592
     37          6           0        8.210826   -0.823611   -5.486252
     38          6           0        7.981057    2.350544   -4.001978
     39          8           0        7.981247    2.989806   -5.054992
     40          6           0        8.140123    3.185201   -2.655177
     41          6           0        7.130463    4.299977   -2.689394
     42          8           0        5.907401    4.057124   -2.639315
     43          8           0        7.760172    5.474945   -2.536239
     44          6           0        6.812214    6.621028   -2.531472
     45          1           0        8.987381    1.195704    3.943489
     46          1           0        7.723754   -4.676274    2.253183
     47          1           0        7.938758   -3.042366   -3.806793
     48          1           0        9.065594    4.328327    0.122838
     49          1           0        8.783783    3.513276    2.806814
     50          1           0       10.963854    3.160769    0.784709
     51          1           0       10.872600    1.881816    2.034596
     52          1           0       11.101206    3.527888    2.553025
     53          1           0        6.623000    3.837143    1.838584
     54          1           0        6.363997    4.264646    0.100011
     55          1           0        8.153714    6.159106    1.237960
     56          1           0        7.090270    5.745331    2.528592
     57          1           0        8.266015    0.376350    5.746584
     58          1           0        8.545703   -1.206183    6.365760
     59          1           0        6.864917   -0.616928    6.294666
     60          1           0        7.527923   -3.157237    6.783250
     61          1           0        6.270656   -4.512976    6.684629
     62          1           0        5.875446   -2.806780    6.344579
     63          1           0        7.203452   -5.858187    0.054812
     64          1           0        8.796073   -5.140617   -2.356958
     65          1           0        9.090564   -7.059479    0.372768
     66          1           0        9.953175   -5.508067    0.651619
     67          1           0        9.929317   -6.182801   -0.894711
     68          1           0        6.781971   -6.660561   -2.395378
     69          1           0        6.806168   -5.430054   -3.653596
     70          1           0        5.233490   -5.699517   -1.203952
     71          1           0        4.646646   -5.253072   -2.841936
     72          1           0        5.473562   -4.049080   -1.755049
     73          1           0        7.548450   -0.232376   -6.118445
     74          1           0        7.997268   -1.888521   -5.575480
     75          1           0        9.269038   -0.597598   -5.616497
     76          1           0        9.163105    3.559791   -2.637510
     77          1           0        7.136624    7.309154   -3.312160
     78          1           0        6.782938    6.994692   -1.507791
     79          1           0        5.793916    6.405677   -2.857096
     80         12           0       -8.219757   -0.386301   -0.194038
     81          6           0       -5.689364    1.997009    0.698154
     82          6           0      -10.510657    1.787798    1.094246
     83          6           0      -10.418666   -2.645163   -0.554189
     84          6           0       -5.703068   -2.792158   -0.348409
     85          7           0       -8.005064    1.604244    0.746128
     86          6           0       -7.000576    2.436533    0.975588
     87          6           0       -7.431748    3.847320    1.458627
     88          6           0       -8.862735    3.462612    2.077632
     89          6           0       -9.169940    2.227215    1.233781
     90          6           0       -8.793769    3.040000    3.535700
     91          6           0       -7.573492    4.867076    0.274555
     92          6           0       -7.689106    6.332877    0.698602
     93          1           0       -7.072328    7.352397   -0.145591
     94          7           0      -10.199252   -0.254737   -0.247592
     95          6           0      -10.966246    0.706239    0.308738
     96          6           0      -12.357361    0.337360    0.003976
     97          6           0      -12.356961   -1.006325   -0.635718
     98          6           0      -10.962956   -1.371179   -0.481721
     99          6           0      -13.515880    1.260536    0.246923
    100          6           0      -13.435645   -1.832347   -1.268436
    101          8           0      -13.259267   -3.070917   -1.547128
    102          6           0      -14.734953   -1.173472   -1.466407
    103          7           0       -8.118247   -2.462768   -0.211935
    104          6           0       -9.214870   -3.206578   -0.440133
    105          6           0       -8.852790   -4.652849   -0.680114
    106          6           0       -7.258725   -4.681542   -0.805532
    107          6           0       -6.955232   -3.195352   -0.514794
    108          6           0       -9.295723   -5.637818    0.401565
    109          6           0       -6.665321   -5.319281   -2.091543
    110          6           0       -6.997940   -4.463697   -3.292681
    111          7           0       -6.062779   -0.391010   -0.069626
    112          6           0       -5.207112   -1.512519   -0.134022
    113          6           0       -3.833994   -1.027323    0.114066
    114          6           0       -3.990138    0.350149    0.330100
    115          6           0       -5.365944    0.695476    0.244115
    116          6           0       -2.663093   -1.834994    0.166588
    117          6           0       -3.305118    1.588840    0.621839
    118          8           0       -2.126311    1.928022    0.717145
    119          6           0       -4.388739    2.689033    0.998340
    120          6           0       -4.066959    3.940501    0.228409
    121          8           0       -4.148816    3.957840   -1.012402
    122          8           0       -3.927985    4.964495    1.090083
    123          6           0       -3.619021    6.230225    0.372946
    124          1           0      -11.284764    2.291743    1.673628
    125          1           0      -11.123537   -3.446455   -0.787811
    126          1           0       -4.851574   -3.463864   -0.476637
    127          1           0       -6.798757    4.278166    2.225091
    128          1           0       -9.596073    4.243098    1.892101
    129          1           0       -7.774706    2.954421    3.882595
    130          1           0       -9.293014    2.081323    3.588046
    131          1           0       -9.384694    3.721696    4.154117
    132          1           0       -8.553832    4.730861   -0.199904
    133          1           0       -6.766453    4.755337   -0.423175
    134          1           0       -7.408222    6.481687    1.748316
    135          1           0       -8.741703    6.623579    0.659014
    136          1           0      -13.227550    2.110443    0.877734
    137          1           0      -14.243565    0.708221    0.851330
    138          1           0      -13.997816    1.584100   -0.678126
    139          1           0      -15.115926   -0.830767   -0.507310
    140          1           0      -15.347898   -1.893915   -2.011508
    141          1           0      -14.583881   -0.280022   -2.082465
    142          1           0       -9.284688   -5.011049   -1.606540
    143          1           0       -6.796474   -5.261418    0.006805
    144          1           0       -9.933450   -6.454439    0.013594
    145          1           0       -9.813382   -5.085688    1.174699
    146          1           0       -8.486304   -6.108895    0.956654
    147          1           0       -7.117516   -6.297510   -2.272500
    148          1           0       -5.591184   -5.464562   -2.045556
    149          1           0       -8.009520   -4.788251   -3.554330
    150          1           0       -6.299489   -4.655375   -4.104759
    151          1           0       -7.052489   -3.403873   -3.017987
    152          1           0       -1.895242   -1.306230   -0.382333
    153          1           0       -2.842703   -2.823269   -0.251544
    154          1           0       -2.498620   -1.870051    1.246859
    155          1           0       -4.335015    2.846338    2.076281
    156          1           0       -2.692199    6.622800    0.802569
    157          1           0       -4.524835    6.857681    0.470593
    158          1           0       -3.353204    6.160300   -0.675336
 ---------------------------------------------------------------------

 SCF Done:  E(RCAM-B3LYP) =  -4069.81136925     A.U. after   19 cycles

 Excitation energies and oscillator strengths:

 Excited State   1:      Singlet-A      1.6756 eV  739.96 nm  f=0.4055  <S**2>=0.000
     309 -> 315        0.17343
     311 -> 313        0.68552
     309 <- 315        0.10453
 This state for optimization and/or second-order correction.
 Total Energy, E(TD-HF/TD-DFT) =  -4069.74979373
 Copying the excited state density for this state as the 1-particle RhoCI density.

 Excited State   2:      Singlet-A      1.6799 eV  738.05 nm  f=0.3808  <S**2>=0.000
     310 -> 316        0.17508
     312 -> 314        0.68517
     310 <- 316        0.10481

 Excited State   3:      Singlet-A      2.1855 eV  567.29 nm  f=0.0384  <S**2>=0.000
     309 -> 313        0.60708
     310 -> 314       -0.21149
     311 -> 315       -0.25757

 Excited State   4:      Singlet-A      2.1920 eV  565.62 nm  f=0.1530  <S**2>=0.000
     309 -> 313        0.21030
     310 -> 314        0.60512
     312 -> 316       -0.26261

 Excited State   5:      Singlet-A      2.7254 eV  454.91 nm  f=0.0000  <S**2>=0.000
     312 -> 313        0.70675

 The electronic state is 1-A.
 Alpha  occ. eigenvalues --  -46.87584 -46.87533 -19.26247 -19.25986 -19.19044
 Alpha  occ. eigenvalues --  -19.18696 -19.18646 -19.18593 -19.17943 -19.17910
 Alpha  occ. eigenvalues --  -14.42425 -14.42190 -14.41285 -14.41201 -14.39277
 Alpha  occ. eigenvalues --  -14.39145 -14.38519 -14.38324 -10.38980 -10.38764
 Alpha  occ. eigenvalues --  -10.35325 -10.35229 -10.34127 -10.34122 -10.31656
 Alpha  occ. eigenvalues --  -10.31391 -10.31232 -10.31144 -10.30954 -10.30647
 Alpha  occ. eigenvalues --  -10.30317 -10.30311 -10.30278 -10.30256 -10.30072
 Alpha  occ. eigenvalues --  -10.29972 -10.29816 -10.29680 -10.29382 -10.29363
 Alpha  occ. eigenvalues --  -10.29320 -10.29007 -10.28656 -10.28595 -10.28476
 Alpha  occ. eigenvalues --  -10.28327 -10.28246 -10.28105 -10.28081 -10.27917
 Alpha  occ. eigenvalues --  -10.27860 -10.27597 -10.27542 -10.27475 -10.27450
 Alpha  occ. eigenvalues --  -10.27407 -10.27403 -10.27388 -10.27336 -10.27309
 Alpha  occ. eigenvalues --  -10.27297 -10.27248 -10.27247 -10.27144 -10.26960
 Alpha  occ. eigenvalues --  -10.26887 -10.26624 -10.26385 -10.26357 -10.26205
 Alpha  occ. eigenvalues --  -10.26067 -10.26007 -10.25995 -10.25981 -10.25858
 Alpha  occ. eigenvalues --  -10.25777 -10.25739 -10.25611 -10.25341 -10.25255
 Alpha  occ. eigenvalues --  -10.24787 -10.24654 -10.24615 -10.24578 -10.24544
 Alpha  occ. eigenvalues --  -10.24490  -3.16334  -3.16275  -1.91216  -1.91156
 Alpha  occ. eigenvalues --   -1.90805  -1.90743  -1.90642  -1.90585  -1.16538
 Alpha  occ. eigenvalues --   -1.16330  -1.08548  -1.08364  -1.06997  -1.06900
 Alpha  occ. eigenvalues --   -1.06831  -1.06324  -1.04422  -1.04321  -1.03588
 Alpha  occ. eigenvalues --   -1.03511  -1.02980  -1.02962  -1.02158  -1.02034
 Alpha  occ. eigenvalues --   -0.91905  -0.91712  -0.89420  -0.89291  -0.89088
 Alpha  occ. eigenvalues --   -0.88923  -0.88149  -0.88064  -0.87703  -0.87622
 Alpha  occ. eigenvalues --   -0.87611  -0.87417  -0.87049  -0.87035  -0.84931
 Alpha  occ. eigenvalues --   -0.84720  -0.83803  -0.83718  -0.82864  -0.82746
 Alpha  occ. eigenvalues --   -0.82583  -0.82396  -0.81509  -0.81320  -0.80362
 Alpha  occ. eigenvalues --   -0.80340  -0.78559  -0.78554  -0.77073  -0.76977
 Alpha  occ. eigenvalues --   -0.76824  -0.76679  -0.75764  -0.75668  -0.74731
 Alpha  occ. eigenvalues --   -0.74675  -0.72619  -0.72529  -0.71509  -0.71430
 Alpha  occ. eigenvalues --   -0.69696  -0.69686  -0.68757  -0.68618  -0.67523
 Alpha  occ. eigenvalues --   -0.67393  -0.67131  -0.66951  -0.65199  -0.65020
 Alpha  occ. eigenvalues --   -0.64692  -0.64599  -0.64576  -0.64368  -0.64129
 Alpha  occ. eigenvalues --   -0.64038  -0.62189  -0.62028  -0.60267  -0.60206
 Alpha  occ. eigenvalues --   -0.59727  -0.59544  -0.58915  -0.58739  -0.58345
 Alpha  occ. eigenvalues --   -0.58254  -0.57460  -0.57314  -0.57159  -0.57066
 Alpha  occ. eigenvalues --   -0.56123  -0.56063  -0.55801  -0.55702  -0.55374
 Alpha  occ. eigenvalues --   -0.55280  -0.55167  -0.55103  -0.54404  -0.54272
 Alpha  occ. eigenvalues --   -0.53846  -0.53628  -0.53151  -0.53065  -0.53059
 Alpha  occ. eigenvalues --   -0.52968  -0.52820  -0.52653  -0.52603  -0.52515
 Alpha  occ. eigenvalues --   -0.52325  -0.52224  -0.51784  -0.51670  -0.51588
 Alpha  occ. eigenvalues --   -0.51353  -0.51115  -0.50946  -0.50411  -0.50347
 Alpha  occ. eigenvalues --   -0.49913  -0.49816  -0.49797  -0.49680  -0.49417
 Alpha  occ. eigenvalues --   -0.49265  -0.49124  -0.49027  -0.48962  -0.48844
 Alpha  occ. eigenvalues --   -0.48475  -0.48339  -0.48299  -0.48262  -0.48236
 Alpha  occ. eigenvalues --   -0.48204  -0.47521  -0.47451  -0.47058  -0.47046
 Alpha  occ. eigenvalues --   -0.46634  -0.46555  -0.46486  -0.46291  -0.46192
 Alpha  occ. eigenvalues --   -0.46115  -0.46003  -0.45916  -0.45732  -0.45566
 Alpha  occ. eigenvalues --   -0.45138  -0.44981  -0.44435  -0.44401  -0.44323
 Alpha  occ. eigenvalues --   -0.44271  -0.44053  -0.44002  -0.43911  -0.43861
 Alpha  occ. eigenvalues --   -0.43839  -0.43769  -0.43467  -0.43310  -0.43234
 Alpha  occ. eigenvalues --   -0.43138  -0.42845  -0.42810  -0.42780  -0.42482
 Alpha  occ. eigenvalues --   -0.42460  -0.42389  -0.41891  -0.41771  -0.41584
 Alpha  occ. eigenvalues --   -0.41454  -0.41390  -0.41275  -0.40918  -0.40897
 Alpha  occ. eigenvalues --   -0.40656  -0.40632  -0.40623  -0.40590  -0.40422
 Alpha  occ. eigenvalues --   -0.40342  -0.40163  -0.39948  -0.39354  -0.39231
 Alpha  occ. eigenvalues --   -0.38282  -0.38242  -0.37585  -0.37472  -0.37193
 Alpha  occ. eigenvalues --   -0.37126  -0.37087  -0.36993  -0.36672  -0.36435
 Alpha  occ. eigenvalues --   -0.36136  -0.35927  -0.34175  -0.34030  -0.33752
 Alpha  occ. eigenvalues --   -0.33457  -0.33097  -0.32928  -0.31205  -0.31123
 Alpha  occ. eigenvalues --   -0.30897  -0.30783  -0.29847  -0.29767  -0.29250
 Alpha  occ. eigenvalues --   -0.29199  -0.29124  -0.29065  -0.23960  -0.23824
 Alpha  occ. eigenvalues --   -0.21041  -0.20876
 Alpha virt. eigenvalues --   -0.08713  -0.08523  -0.01610  -0.01501   0.00045
 Alpha virt. eigenvalues --    0.00187   0.02298   0.02453   0.03311   0.03467
 Alpha virt. eigenvalues --    0.04798   0.04978   0.05273   0.05404   0.06246

 Mulliken charges:
               1
     1  Mg   0.840496
     2  C   -0.002121
     3  C   -0.093761
     4  C   -0.046115
     5  C   -0.064244
     6  N   -0.256702
     7  C   -0.052045
     8  C   -0.014265
     9  C   -0.087131
    10  C    0.046729
    11  C    0.104959
    12  C    0.053390
    13  C   -0.071626
    14  H    0.036438
    15  N   -0.432999
    16  C    0.168794
    17  C   -0.177067
    18  C   -0.004101
    19  C    0.148905
    20  C    0.110293
    21  C    0.012292
    22  O   -0.250278
    23  C    0.062406
    24  N   -0.341190
    25  C    0.041216
    26  C   -0.028001
    27  C   -0.023920
    28  C    0.074986
    29  C    0.076356
    30  C    0.035239
    31  C   -0.004463
    32  N   -0.310554
    33  C    0.080798
    34  C   -0.169600
    35  C    0.008357
    36  C    0.083652
    37  C    0.127230
    38  C    0.046583
    39  O   -0.188543
    40  C   -0.005596
    41  C    0.212450
    42  O   -0.255113
    43  O   -0.305303
    44  C    0.157672
    45  H   -0.018056
    46  H   -0.017423
    47  H   -0.041918
    48  H    0.000506
    49  H   -0.004063
    50  H    0.025219
    51  H    0.016137
    52  H    0.016155
    53  H    0.012233
    54  H    0.045639
    55  H    0.016981
    56  H    0.017666
    57  H    0.005746
    58  H    0.026166
    59  H    0.039788
    60  H    0.037020
    61  H    0.034981
    62  H    0.032014
    63  H    0.016161
    64  H    0.009056
    65  H    0.022672
    66  H    0.012448
    67  H    0.004375
    68  H    0.005659
    69  H    0.004556
    70  H    0.008263
    71  H    0.017686
    72  H    0.030134
    73  H    0.047852
    74  H    0.008808
    75  H    0.045530
    76  H    0.034588
    77  H    0.042192
    78  H    0.046105
    79  H    0.054624
    80  Mg   0.837781
    81  C   -0.016700
    82  C   -0.087872
    83  C   -0.045531
    84  C   -0.064906
    85  N   -0.254503
    86  C   -0.049906
    87  C   -0.015035
    88  C   -0.090484
    89  C    0.045698
    90  C    0.114466
    91  C    0.062557
    92  C   -0.077812
    93  H    0.035045
    94  N   -0.423392
    95  C    0.162829
    96  C   -0.174790
    97  C   -0.007911
    98  C    0.152024
    99  C    0.099444
   100  C    0.015495
   101  O   -0.253344
   102  C    0.061226
   103  N   -0.350049
   104  C    0.037395
   105  C   -0.019765
   106  C   -0.034833
   107  C    0.088976
   108  C    0.073725
   109  C    0.034732
   110  C   -0.007668
   111  N   -0.324211
   112  C    0.078555
   113  C   -0.162730
   114  C    0.002521
   115  C    0.096368
   116  C    0.131290
   117  C    0.042725
   118  O   -0.186662
   119  C    0.000648
   120  C    0.211681
   121  O   -0.250296
   122  O   -0.306067
   123  C    0.151927
   124  H   -0.019931
   125  H   -0.015723
   126  H   -0.040299
   127  H   -0.000893
   128  H   -0.004446
   129  H    0.022203
   130  H    0.014359
   131  H    0.015982
   132  H    0.013945
   133  H    0.038037
   134  H    0.020449
   135  H    0.019434
   136  H    0.008595
   137  H    0.025899
   138  H    0.039686
   139  H    0.038118
   140  H    0.036251
   141  H    0.033906
   142  H    0.014356
   143  H    0.012344
   144  H    0.025000
   145  H    0.011505
   146  H    0.005558
   147  H    0.006089
   148  H    0.003754
   149  H    0.010812
   150  H    0.018080
   151  H    0.030289
   152  H    0.047332
   153  H    0.008545
   154  H    0.046560
   155  H    0.034438
   156  H    0.043624
   157  H    0.049007
   158  H    0.054495
 Sum of Mulliken charges =  -0.00000

 Dipole moment (field-independent basis, Debye):
    X=             -1.7480    Y=              1.9623    Z=              6.1891  Tot=              6.7239
 Quadrupole moment (field-independent basis, Debye-Ang):
   XX=           -445.7461   YY=           -476.1663   ZZ=           -511.9491
   XY=            -31.9365   XZ=              9.9006   YZ=             42.2084

 Normal termination of Gaussian 16 at Sun Sep 12 02:17:17 2021.
