 Gaussian 16, Revision A.03,
 Gaussian 16:  ES64L-G16RevA.03 25-Dec-2016

 -----------------------------------
 #p cam-b3lyp/Def2SVP td=(nstates=5)
 -----------------------------------

 --------------------------------
 TDDFT excited states in gaussian
 --------------------------------
 Symbolic Z-matrix:
 Charge =  0 Multiplicity = 1

                         Standard orientation:
 ---------------------------------------------------------------------
 Center     Atomic      Atomic             Coordinates (Angstroms)
 Number     Number       Type             X           Y           Z
 ---------------------------------------------------------------------
      1         12           0        6.501230    0.758899    0.368372
      2          6           0        6.991276   -2.466202   -1.104990
      3          6           0        7.167263    2.096861   -2.699090
      4          6           0        6.521802    3.617906    1.740331
      5          6           0        6.995530   -0.747110    3.472122
      6          7           0        7.000052   -0.170238   -1.578042
      7          6           0        7.097806   -1.419074   -2.023041
      8          6           0        7.248982   -1.513367   -3.570823
      9          6           0        7.852900   -0.065126   -3.853455
     10          6           0        7.277941    0.675187   -2.658766
     11          6           0        9.375399   -0.014266   -3.776569
     12          6           0        5.873078   -1.710979   -4.291634
     13          6           0        5.959979   -2.136712   -5.760155
     14          1           0        4.956998   -3.051169   -6.284698
     15          7           0        6.319516    2.560444   -0.421732
     16          6           0        6.621657    2.921935   -1.691898
     17          6           0        6.313476    4.364928   -1.789239
     18          6           0        5.987515    4.853918   -0.420761
     19          6           0        6.292671    3.687821    0.368210
     20          6           0        6.299265    5.117742   -3.084160
     21          6           0        5.491313    6.167520    0.095346
     22          8           0        5.495256    6.454105    1.341310
     23          6           0        5.077525    7.156796   -0.916165
     24          7           0        6.942216    1.401536    2.304911
     25          6           0        6.816335    2.687451    2.650688
     26          6           0        6.908832    2.864695    4.137284
     27          6           0        6.881759    1.394695    4.760276
     28          6           0        6.859306    0.580546    3.443110
     29          6           0        8.149224    3.611922    4.646293
     30          6           0        5.796212    1.102695    5.826459
     31          6           0        4.426457    1.134365    5.186250
     32          7           0        6.744209   -1.268262    1.105003
     33          6           0        6.959567   -1.662451    2.433502
     34          6           0        7.170660   -3.121691    2.422313
     35          6           0        7.079303   -3.474923    1.077424
     36          6           0        6.853241   -2.306496    0.295142
     37          6           0        7.467525   -3.929496    3.555343
     38          6           0        7.144602   -4.564284    0.116754
     39          8           0        7.220560   -5.790949    0.200519
     40          6           0        7.211675   -3.938884   -1.346189
     41          6           0        6.210470   -4.669288   -2.199071
     42          8           0        4.986130   -4.560630   -1.983315
     43          8           0        6.831681   -5.184956   -3.270857
     44          6           0        5.889398   -5.898009   -4.174079
     45          1           0        7.588528    2.635137   -3.550404
     46          1           0        6.427490    4.569788    2.267081
     47          1           0        7.071435   -1.297519    4.411665
     48          1           0        7.944066   -2.279982   -3.913727
     49          1           0        7.472441    0.360351   -4.781863
     50          1           0        9.787578   -0.955263   -3.412490
     51          1           0        9.604946    0.795364   -3.083532
     52          1           0        9.801981    0.281948   -4.735247
     53          1           0        5.385791   -0.742911   -4.407641
     54          1           0        5.250504   -2.421347   -3.746560
     55          1           0        6.962241   -2.481068   -6.016667
     56          1           0        5.809734   -1.253605   -6.381241
     57          1           0        6.740082    4.534259   -3.891485
     58          1           0        6.970657    5.967963   -2.965557
     59          1           0        5.300871    5.470971   -3.342560
     60          1           0        5.919891    7.373271   -1.573512
     61          1           0        4.668267    8.000579   -0.361737
     62          1           0        4.303310    6.716168   -1.544963
     63          1           0        6.058569    3.429472    4.517424
     64          1           0        7.818412    1.144536    5.259049
     65          1           0        7.914928    4.492765    5.244562
     66          1           0        8.760876    3.876161    3.784115
     67          1           0        8.843162    3.003934    5.226136
     68          1           0        5.807073    1.870916    6.598899
     69          1           0        5.923241    0.137482    6.316844
     70          1           0        4.182078    2.196020    5.186598
     71          1           0        3.712777    0.569265    5.786694
     72          1           0        4.465437    0.809309    4.146392
     73          1           0        6.852931   -4.824692    3.461178
     74          1           0        7.257320   -3.400647    4.484716
     75          1           0        8.532978   -4.103494    3.405705
     76          1           0        8.232107   -4.080131   -1.700997
     77          1           0        6.269871   -6.911824   -4.299197
     78          1           0        5.789731   -5.281141   -5.067357
     79          1           0        4.895707   -6.099247   -3.772307
     80         12           0       -6.665315   -0.558222    0.709450
     81          6           0       -6.695881    0.971856   -2.536619
     82          6           0       -6.061975    2.540943    2.000088
     83          6           0       -6.185474   -1.934253    3.527907
     84          6           0       -6.130804   -3.609715   -0.886925
     85          7           0       -6.431058    1.422672   -0.246277
     86          6           0       -6.524127    1.891881   -1.481402
     87          6           0       -6.508142    3.440683   -1.583977
     88          6           0       -5.741434    3.764730   -0.210645
     89          6           0       -6.125957    2.518351    0.583932
     90          6           0       -4.229079    3.789992   -0.357202
     91          6           0       -7.952355    4.053994   -1.594078
     92          6           0       -8.022510    5.527355   -2.001560
     93          1           0       -9.175594    5.981778   -2.773811
     94          7           0       -6.679903    0.217125    2.536254
     95          6           0       -6.435378    1.499604    2.877883
     96          6           0       -6.548428    1.554074    4.343631
     97          6           0       -6.717109    0.165974    4.852991
     98          6           0       -6.508631   -0.589308    3.633904
     99          6           0       -6.572238    2.844310    5.110544
    100          6           0       -7.004227   -0.390321    6.214716
    101          8           0       -6.872832   -1.638767    6.473493
    102          6           0       -7.353408    0.582656    7.260116
    103          7           0       -6.012650   -2.453764    1.260190
    104          6           0       -5.943419   -2.812184    2.554277
    105          6           0       -5.715451   -4.298111    2.697291
    106          6           0       -5.888051   -4.902734    1.226843
    107          6           0       -6.107477   -3.592728    0.438720
    108          6           0       -4.356036   -4.711350    3.260861
    109          6           0       -6.920147   -6.050677    1.054598
    110          6           0       -8.319650   -5.524154    1.277182
    111          7           0       -6.631966   -1.259868   -1.333738
    112          6           0       -6.363020   -2.572113   -1.780698
    113          6           0       -6.340550   -2.533070   -3.257319
    114          6           0       -6.577039   -1.185694   -3.569008
    115          6           0       -6.715626   -0.434161   -2.370895
    116          6           0       -6.075455   -3.637884   -4.114765
    117          6           0       -6.730376   -0.226380   -4.639015
    118          8           0       -6.797207   -0.296411   -5.865543
    119          6           0       -6.688371    1.235636   -4.016815
    120          6           0       -7.834800    2.019452   -4.594626
    121          8           0       -9.009833    1.699906   -4.342064
    122          8           0       -7.358157    3.139343   -5.168238
    123          6           0       -8.458800    3.955700   -5.746136
    124          1           0       -5.647123    3.424131    2.486669
    125          1           0       -6.118310   -2.478906    4.472538
    126          1           0       -6.067942   -4.537219   -1.460041
    127          1           0       -5.948698    3.834545   -2.424016
    128          1           0       -6.140809    4.657474    0.263542
    129          1           0       -3.913988    3.468269   -1.338708
    130          1           0       -3.848769    3.118361    0.401299
    131          1           0       -3.842273    4.781124   -0.103500
    132          1           0       -8.317594    4.126998   -0.561600
    133          1           0       -8.607611    3.475508   -2.215878
    134          1           0       -7.089880    5.871778   -2.464722
    135          1           0       -8.112381    6.133672   -1.096956
    136          1           0       -6.263246    3.690287    4.484239
    137          1           0       -5.792920    2.775026    5.877186
    138          1           0       -7.532289    3.026904    5.598006
    139          1           0       -6.543013    1.299047    7.371922
    140          1           0       -7.610491   -0.012106    8.138785
    141          1           0       -8.231489    1.149581    6.931187
    142          1           0       -6.457625   -4.742235    3.349230
    143          1           0       -4.950591   -5.340676    0.853735
    144          1           0       -4.432434   -5.337687    4.169679
    145          1           0       -3.783894   -3.815688    3.463303
    146          1           0       -3.710801   -5.245396    2.565391
    147          1           0       -6.755856   -6.824021    1.808984
    148          1           0       -6.872257   -6.532499    0.083740
    149          1           0       -8.421427   -5.546580    2.366325
    150          1           0       -9.052728   -6.170567    0.798863
    151          1           0       -8.401682   -4.478078    0.959932
    152          1           0       -6.796298   -3.587084   -4.919936
    153          1           0       -6.142893   -4.582297   -3.578743
    154          1           0       -5.049684   -3.409228   -4.416024
    155          1           0       -5.722801    1.673203   -4.273299
    156          1           0       -8.216971    4.116893   -6.801225
    157          1           0       -8.534056    4.853192   -5.103797
    158          1           0       -9.437405    3.496200   -5.821258
 ---------------------------------------------------------------------

 SCF Done:  E(RCAM-B3LYP) =  -4069.81190027     A.U. after   19 cycles

 Excitation energies and oscillator strengths:

 Excited State   1:      Singlet-A      1.6746 eV  740.39 nm  f=0.3686  <S**2>=0.000
     310 -> 316        0.17350
     312 -> 314        0.68603
     310 <- 316        0.10466
 This state for optimization and/or second-order correction.
 Total Energy, E(TD-HF/TD-DFT) =  -4069.75036054
 Copying the excited state density for this state as the 1-particle RhoCI density.

 Excited State   2:      Singlet-A      1.6790 eV  738.44 nm  f=0.3626  <S**2>=0.000
     309 -> 315        0.17506
     311 -> 313        0.68566
     309 <- 315        0.10488

 Excited State   3:      Singlet-A      2.1855 eV  567.30 nm  f=0.1009  <S**2>=0.000
     310 -> 314        0.64127
     312 -> 316       -0.27223

 Excited State   4:      Singlet-A      2.1920 eV  565.63 nm  f=0.0980  <S**2>=0.000
     309 -> 313        0.63943
     311 -> 315       -0.27719

 Excited State   5:      Singlet-A      2.6503 eV  467.81 nm  f=0.0000  <S**2>=0.000
     312 -> 313        0.70710

 The electronic state is 1-A.
 Alpha  occ. eigenvalues --  -46.87854 -46.87557 -19.26321 -19.26311 -19.19120
 Alpha  occ. eigenvalues --  -19.19054 -19.18904 -19.18623 -19.18220 -19.17980
 Alpha  occ. eigenvalues --  -14.42502 -14.42400 -14.41508 -14.41248 -14.39463
 Alpha  occ. eigenvalues --  -14.39252 -14.38643 -14.38500 -10.39114 -10.39047
 Alpha  occ. eigenvalues --  -10.35538 -10.35302 -10.34438 -10.34159 -10.31745
 Alpha  occ. eigenvalues --  -10.31695 -10.31451 -10.31217 -10.30959 -10.30935
 Alpha  occ. eigenvalues --  -10.30622 -10.30569 -10.30296 -10.30271 -10.30264
 Alpha  occ. eigenvalues --  -10.30021 -10.29981 -10.29778 -10.29691 -10.29332
 Alpha  occ. eigenvalues --  -10.29315 -10.29305 -10.28777 -10.28655 -10.28622
 Alpha  occ. eigenvalues --  -10.28528 -10.28421 -10.28312 -10.28146 -10.28067
 Alpha  occ. eigenvalues --  -10.27906 -10.27850 -10.27778 -10.27648 -10.27571
 Alpha  occ. eigenvalues --  -10.27569 -10.27541 -10.27521 -10.27456 -10.27390
 Alpha  occ. eigenvalues --  -10.27379 -10.27371 -10.27366 -10.27224 -10.27201
 Alpha  occ. eigenvalues --  -10.26987 -10.26717 -10.26641 -10.26516 -10.26336
 Alpha  occ. eigenvalues --  -10.26262 -10.26257 -10.26077 -10.25999 -10.25951
 Alpha  occ. eigenvalues --  -10.25893 -10.25820 -10.25749 -10.25504 -10.25200
 Alpha  occ. eigenvalues --  -10.24889 -10.24850 -10.24780 -10.24771 -10.24611
 Alpha  occ. eigenvalues --  -10.24582  -3.16597  -3.16307  -1.91479  -1.91189
 Alpha  occ. eigenvalues --   -1.91065  -1.90907  -1.90778  -1.90615  -1.16661
 Alpha  occ. eigenvalues --   -1.16612  -1.08676  -1.08591  -1.07307  -1.06905
 Alpha  occ. eigenvalues --   -1.06876  -1.06676  -1.04632  -1.04401  -1.03818
 Alpha  occ. eigenvalues --   -1.03561  -1.03293  -1.02931  -1.02469  -1.02007
 Alpha  occ. eigenvalues --   -0.92023  -0.91899  -0.89583  -0.89379  -0.89219
 Alpha  occ. eigenvalues --   -0.89076  -0.88351  -0.88091  -0.87923  -0.87722
 Alpha  occ. eigenvalues --   -0.87697  -0.87586  -0.87343  -0.87028  -0.85020
 Alpha  occ. eigenvalues --   -0.84920  -0.84002  -0.83750  -0.83047  -0.82834
 Alpha  occ. eigenvalues --   -0.82696  -0.82572  -0.81627  -0.81529  -0.80648
 Alpha  occ. eigenvalues --   -0.80362  -0.78859  -0.78541  -0.77270  -0.77055
 Alpha  occ. eigenvalues --   -0.76972  -0.76812  -0.75963  -0.75763  -0.74957
 Alpha  occ. eigenvalues --   -0.74676  -0.72829  -0.72599  -0.71723  -0.71477
 Alpha  occ. eigenvalues --   -0.69976  -0.69628  -0.68917  -0.68747  -0.67699
 Alpha  occ. eigenvalues --   -0.67509  -0.67259  -0.67128  -0.65325  -0.65196
 Alpha  occ. eigenvalues --   -0.64905  -0.64677  -0.64669  -0.64571  -0.64331
 Alpha  occ. eigenvalues --   -0.64086  -0.62339  -0.62210  -0.60510  -0.60238
 Alpha  occ. eigenvalues --   -0.59845  -0.59716  -0.59041  -0.58893  -0.58558
 Alpha  occ. eigenvalues --   -0.58332  -0.57630  -0.57487  -0.57368  -0.57133
 Alpha  occ. eigenvalues --   -0.56365  -0.56115  -0.56013  -0.55826  -0.55582
 Alpha  occ. eigenvalues --   -0.55396  -0.55376  -0.55142  -0.54574  -0.54391
 Alpha  occ. eigenvalues --   -0.53928  -0.53839  -0.53361  -0.53272  -0.53132
 Alpha  occ. eigenvalues --   -0.53063  -0.52965  -0.52826  -0.52816  -0.52587
 Alpha  occ. eigenvalues --   -0.52508  -0.52279  -0.51967  -0.51788  -0.51659
 Alpha  occ. eigenvalues --   -0.51587  -0.51246  -0.51114  -0.50649  -0.50384
 Alpha  occ. eigenvalues --   -0.50096  -0.49983  -0.49892  -0.49741  -0.49566
 Alpha  occ. eigenvalues --   -0.49405  -0.49268  -0.49133  -0.49124  -0.49026
 Alpha  occ. eigenvalues --   -0.48637  -0.48532  -0.48505  -0.48482  -0.48264
 Alpha  occ. eigenvalues --   -0.48243  -0.47748  -0.47506  -0.47354  -0.47017
 Alpha  occ. eigenvalues --   -0.46850  -0.46610  -0.46591  -0.46474  -0.46416
 Alpha  occ. eigenvalues --   -0.46216  -0.46170  -0.45979  -0.45864  -0.45743
 Alpha  occ. eigenvalues --   -0.45264  -0.45079  -0.44627  -0.44567  -0.44435
 Alpha  occ. eigenvalues --   -0.44391  -0.44206  -0.44128  -0.44073  -0.44046
 Alpha  occ. eigenvalues --   -0.43976  -0.43861  -0.43539  -0.43483  -0.43434
 Alpha  occ. eigenvalues --   -0.43295  -0.43079  -0.42872  -0.42808  -0.42752
 Alpha  occ. eigenvalues --   -0.42703  -0.42437  -0.42064  -0.41865  -0.41757
 Alpha  occ. eigenvalues --   -0.41580  -0.41570  -0.41374  -0.41191  -0.40919
 Alpha  occ. eigenvalues --   -0.40893  -0.40892  -0.40640  -0.40629  -0.40614
 Alpha  occ. eigenvalues --   -0.40373  -0.40258  -0.40165  -0.39512  -0.39297
 Alpha  occ. eigenvalues --   -0.38527  -0.38227  -0.37776  -0.37585  -0.37379
 Alpha  occ. eigenvalues --   -0.37301  -0.37155  -0.37114  -0.36755  -0.36713
 Alpha  occ. eigenvalues --   -0.36240  -0.36115  -0.34341  -0.34155  -0.33810
 Alpha  occ. eigenvalues --   -0.33809  -0.33242  -0.33075  -0.31433  -0.31181
 Alpha  occ. eigenvalues --   -0.31092  -0.30875  -0.30078  -0.29886  -0.29513
 Alpha  occ. eigenvalues --   -0.29379  -0.29232  -0.29117  -0.24136  -0.23934
 Alpha  occ. eigenvalues --   -0.21184  -0.21015
 Alpha virt. eigenvalues --   -0.08833  -0.08694  -0.01810  -0.01578  -0.00124
 Alpha virt. eigenvalues --    0.00060   0.02144   0.02297   0.03056   0.03320
 Alpha virt. eigenvalues --    0.04677   0.04821   0.05062   0.05212   0.06161

 Mulliken charges:
               1
     1  Mg   0.838606
     2  C   -0.002935
     3  C   -0.093877
     4  C   -0.046123
     5  C   -0.063988
     6  N   -0.256805
     7  C   -0.052291
     8  C   -0.014053
     9  C   -0.087000
    10  C    0.046293
    11  C    0.104772
    12  C    0.053383
    13  C   -0.072110
    14  H    0.036817
    15  N   -0.433105
    16  C    0.168293
    17  C   -0.177126
    18  C   -0.004279
    19  C    0.148632
    20  C    0.110118
    21  C    0.011862
    22  O   -0.250072
    23  C    0.062645
    24  N   -0.341125
    25  C    0.041244
    26  C   -0.028113
    27  C   -0.023982
    28  C    0.074834
    29  C    0.076176
    30  C    0.035172
    31  C   -0.004498
    32  N   -0.310499
    33  C    0.080473
    34  C   -0.169679
    35  C    0.008406
    36  C    0.082997
    37  C    0.127312
    38  C    0.046120
    39  O   -0.188282
    40  C   -0.005299
    41  C    0.212902
    42  O   -0.257195
    43  O   -0.304739
    44  C    0.157678
    45  H   -0.017414
    46  H   -0.017136
    47  H   -0.041412
    48  H    0.001068
    49  H   -0.003746
    50  H    0.025505
    51  H    0.016349
    52  H    0.016871
    53  H    0.011322
    54  H    0.044077
    55  H    0.017847
    56  H    0.018259
    57  H    0.006212
    58  H    0.026830
    59  H    0.039369
    60  H    0.037705
    61  H    0.035057
    62  H    0.031119
    63  H    0.016104
    64  H    0.009596
    65  H    0.023000
    66  H    0.012659
    67  H    0.004882
    68  H    0.006223
    69  H    0.005002
    70  H    0.008133
    71  H    0.018380
    72  H    0.029025
    73  H    0.047614
    74  H    0.009180
    75  H    0.046140
    76  H    0.035315
    77  H    0.043018
    78  H    0.046711
    79  H    0.053579
    80  Mg   0.838097
    81  C   -0.016982
    82  C   -0.087911
    83  C   -0.045346
    84  C   -0.064051
    85  N   -0.254569
    86  C   -0.049895
    87  C   -0.015071
    88  C   -0.090490
    89  C    0.045760
    90  C    0.114353
    91  C    0.062574
    92  C   -0.077684
    93  H    0.034531
    94  N   -0.423498
    95  C    0.162962
    96  C   -0.174616
    97  C   -0.007793
    98  C    0.152183
    99  C    0.099363
   100  C    0.015491
   101  O   -0.253096
   102  C    0.061230
   103  N   -0.349990
   104  C    0.037859
   105  C   -0.020099
   106  C   -0.034919
   107  C    0.088928
   108  C    0.073168
   109  C    0.034657
   110  C   -0.007629
   111  N   -0.324112
   112  C    0.078410
   113  C   -0.162895
   114  C    0.002027
   115  C    0.096325
   116  C    0.131508
   117  C    0.042260
   118  O   -0.188543
   119  C    0.000941
   120  C    0.211164
   121  O   -0.251002
   122  O   -0.305797
   123  C    0.152120
   124  H   -0.019642
   125  H   -0.015411
   126  H   -0.040075
   127  H   -0.001192
   128  H   -0.004504
   129  H    0.021994
   130  H    0.015092
   131  H    0.016104
   132  H    0.013986
   133  H    0.037595
   134  H    0.020419
   135  H    0.019603
   136  H    0.008746
   137  H    0.026160
   138  H    0.039562
   139  H    0.038193
   140  H    0.036241
   141  H    0.033764
   142  H    0.014134
   143  H    0.013728
   144  H    0.024974
   145  H    0.012037
   146  H    0.007463
   147  H    0.006524
   148  H    0.003712
   149  H    0.010830
   150  H    0.017657
   151  H    0.029823
   152  H    0.045547
   153  H    0.008751
   154  H    0.047278
   155  H    0.034537
   156  H    0.043472
   157  H    0.049406
   158  H    0.053567
 Sum of Mulliken charges =  -0.00000

 Dipole moment (field-independent basis, Debye):
    X=              3.4878    Y=              5.9561    Z=             -0.1210  Tot=              6.9032
 Quadrupole moment (field-independent basis, Debye-Ang):
   XX=           -519.5561   YY=           -500.2089   ZZ=           -498.5704
   XY=             -2.2220   XZ=            -42.3237   YZ=              0.3084

 Normal termination of Gaussian 16 at Sat Sep  4 09:28:52 2021.
