 Gaussian 16, Revision A.03,
 Gaussian 16:  ES64L-G16RevA.03 25-Dec-2016

 -----------------------------------
 #p cam-b3lyp/Def2SVP td=(nstates=5)
 -----------------------------------

 --------------------------------
 TDDFT excited states in gaussian
 --------------------------------
 Symbolic Z-matrix:
 Charge =  0 Multiplicity = 1

                         Standard orientation:
 ---------------------------------------------------------------------
 Center     Atomic      Atomic             Coordinates (Angstroms)
 Number     Number       Type             X           Y           Z
 ---------------------------------------------------------------------
      1         12           0        6.839315    0.417852    0.839500
      2          6           0        7.215715   -2.553325   -1.120766
      3          6           0        8.015021    2.161138   -1.847829
      4          6           0        6.946422    2.989456    2.692067
      5          6           0        6.789162   -1.627174    3.661027
      6          7           0        7.496777   -0.226630   -1.173714
      7          6           0        7.535529   -1.387522   -1.820243
      8          6           0        7.875327   -1.240799   -3.333644
      9          6           0        8.641426    0.156611   -3.285303
     10          6           0        7.988145    0.749125   -2.049149
     11          6           0       10.139522    0.021700   -3.032303
     12          6           0        6.591339   -1.159645   -4.226123
     13          6           0        6.826938   -1.343495   -5.728137
     14          1           0        5.819872   -2.039263   -6.514949
     15          7           0        6.927548    2.334157    0.367439
     16          6           0        7.422665    2.864411   -0.776665
     17          6           0        7.263830    4.329062   -0.649193
     18          6           0        6.810888    4.618455    0.739759
     19          6           0        6.903225    3.310949    1.337488
     20          6           0        7.485819    5.282541   -1.782926
     21          6           0        6.375526    5.876046    1.423174
     22          8           0        6.245452    5.950145    2.692884
     23          6           0        6.188279    7.059426    0.564342
     24          7           0        7.084691    0.677101    2.896249
     25          6           0        7.034353    1.893920    3.449242
     26          6           0        6.950673    1.811062    4.944592
     27          6           0        6.708335    0.270826    5.289117
     28          6           0        6.780697   -0.306258    3.853845
     29          6           0        8.178751    2.318741    5.712771
     30          6           0        5.472345   -0.069074    6.159299
     31          6           0        4.205176    0.222675    5.387118
     32          7           0        6.797672   -1.717562    1.225915
     33          6           0        6.803010   -2.347974    2.478602
     34          6           0        6.878453   -3.799610    2.231358
     35          6           0        6.928808   -3.912754    0.843371
     36          6           0        6.913921   -2.613008    0.261366
     37          6           0        6.951327   -4.812103    3.228344
     38          6           0        7.016577   -4.828387   -0.282582
     39          8           0        6.967793   -6.052614   -0.410571
     40          6           0        7.328713   -3.981110   -1.594268
     41          6           0        6.382617   -4.442414   -2.669168
     42          8           0        5.155951   -4.233343   -2.574590
     43          8           0        7.086442   -4.840408   -3.740043
     44          6           0        6.206603   -5.283038   -4.854545
     45          1           0        8.590136    2.781806   -2.537723
     46          1           0        6.873190    3.845497    3.366061
     47          1           0        6.692477   -2.330503    4.490143
     48          1           0        8.535162   -2.013638   -3.728311
     49          1           0        8.424454    0.770109   -4.159526
     50          1           0       10.412957   -1.007039   -2.798097
     51          1           0       10.351559    0.674262   -2.185134
     52          1           0       10.711405    0.422385   -3.869667
     53          1           0        6.214306   -0.136960   -4.221278
     54          1           0        5.841016   -1.875481   -3.888603
     55          1           0        7.817859   -1.751645   -5.929131
     56          1           0        6.839881   -0.358528   -6.194904
     57          1           0        7.971237    4.794716   -2.627284
     58          1           0        8.211806    6.020029   -1.441219
     59          1           0        6.565809    5.784174   -2.083391
     60          1           0        7.124577    7.285139    0.053509
     61          1           0        5.790552    7.840563    1.211248
     62          1           0        5.464166    6.819285   -0.214722
     63          1           0        6.114229    2.397526    5.322545
     64          1           0        7.545939   -0.162638    5.836111
     65          1           0        7.951550    3.109163    6.428535
     66          1           0        8.918006    2.651218    4.984588
     67          1           0        8.733300    1.548711    6.248445
     68          1           0        5.454418    0.554485    7.052495
     69          1           0        5.445737   -1.110226    6.481085
     70          1           0        4.061635    1.290346    5.549313
     71          1           0        3.371150   -0.349712    5.794531
     72          1           0        4.347559    0.071923    4.316844
     73          1           0        6.274133   -5.604116    2.908825
     74          1           0        6.672871   -4.424059    4.207878
     75          1           0        8.006579   -5.078180    3.169173
     76          1           0        8.368937   -4.176056   -1.853211
     77          1           0        6.504989   -6.298564   -5.115136
     78          1           0        6.279994   -4.519571   -5.629230
     79          1           0        5.155188   -5.434424   -4.607670
     80         12           0       -6.323436    0.556579   -0.514414
     81          6           0       -8.921158   -1.687605    0.531779
     82          6           0       -8.766493    2.850862   -1.148698
     83          6           0       -4.112784    2.391015   -1.861764
     84          6           0       -4.258938   -2.226743   -0.884093
     85          7           0       -8.522921    0.474717   -0.295765
     86          6           0       -9.393112   -0.408679    0.169761
     87          6           0      -10.838783    0.134175    0.327552
     88          6           0      -10.766655    1.325999   -0.746329
     89          6           0       -9.264317    1.598438   -0.708570
     90          6           0      -11.137927    0.890827   -2.154199
     91          6           0      -11.118375    0.678861    1.772256
     92          6           0      -12.593200    0.938122    2.087542
     93          1           0      -13.070866    0.680491    3.443245
     94          7           0       -6.338912    2.499441   -0.918938
     95          6           0       -7.421023    3.279166   -1.124730
     96          6           0       -6.899150    4.625642   -1.405499
     97          6           0       -5.417104    4.541670   -1.511243
     98          6           0       -5.229685    3.105809   -1.454133
     99          6           0       -7.776848    5.841864   -1.467739
    100          6           0       -4.346740    5.580893   -1.654576
    101          8           0       -3.143423    5.269446   -1.967428
    102          6           0       -4.769306    6.981577   -1.509636
    103          7           0       -4.525196    0.129191   -1.466265
    104          6           0       -3.728712    1.115463   -1.914380
    105          6           0       -2.372226    0.583450   -2.310998
    106          6           0       -2.341651   -0.933930   -1.806840
    107          6           0       -3.782068   -1.048447   -1.261427
    108          6           0       -2.050142    0.629830   -3.804476
    109          6           0       -1.165233   -1.343710   -0.879045
    110          6           0       -1.287610   -0.637592    0.452045
    111          7           0       -6.459501   -1.551853   -0.062723
    112          6           0       -5.489524   -2.544408   -0.323598
    113          6           0       -6.082660   -3.843155    0.055707
    114          6           0       -7.375101   -3.516029    0.492834
    115          6           0       -7.580531   -2.114896    0.374021
    116          6           0       -5.453807   -5.113773   -0.071566
    117          6           0       -8.616047   -4.038713    1.017768
    118          8           0       -8.999238   -5.141816    1.405159
    119          6           0       -9.716475   -2.893936    0.947518
    120          6           0      -10.421170   -2.844928    2.275495
    121          8           0       -9.808833   -2.507142    3.303868
    122          8           0      -11.743903   -2.992572    2.078122
    123          6           0      -12.487021   -2.939799    3.365297
    124          1           0       -9.465325    3.559377   -1.594260
    125          1           0       -3.278038    2.991046   -2.231406
    126          1           0       -3.645056   -3.129944   -0.877340
    127          1           0      -11.619228   -0.565829    0.054263
    128          1           0      -11.320819    2.197341   -0.407164
    129          1           0      -11.275216   -0.178113   -2.222461
    130          1           0      -10.318568    1.208130   -2.785878
    131          1           0      -12.016450    1.442985   -2.500091
    132          1           0      -10.726770    1.701170    1.851495
    133          1           0      -10.699810    0.025888    2.513243
    134          1           0      -13.259987    0.474306    1.350516
    135          1           0      -12.786441    2.008930    1.987331
    136          1           0       -8.838466    5.569765   -1.515968
    137          1           0       -7.577935    6.330966   -2.427469
    138          1           0       -7.573424    6.549805   -0.661441
    139          1           0       -5.534119    7.206425   -2.249209
    140          1           0       -3.850935    7.570114   -1.555436
    141          1           0       -5.236176    7.106187   -0.526218
    142          1           0       -1.581256    1.134009   -1.816670
    143          1           0       -2.266346   -1.640739   -2.646227
    144          1           0       -1.126901    1.194431   -4.034554
    145          1           0       -2.897287    1.058566   -4.323203
    146          1           0       -1.951805   -0.341554   -4.286087
    147          1           0       -0.213287   -1.026825   -1.312109
    148          1           0       -1.101540   -2.413304   -0.709082
    149          1           0       -0.839359    0.340742    0.254549
    150          1           0       -0.738593   -1.174982    1.222656
    151          1           0       -2.338953   -0.471598    0.714305
    152          1           0       -5.661747   -5.656860    0.840745
    153          1           0       -4.383648   -5.012667   -0.239840
    154          1           0       -5.973037   -5.501021   -0.952311
    155          1           0      -10.396638   -3.142946    0.132076
    156          1           0      -13.075489   -3.860069    3.432435
    157          1           0      -13.045351   -1.984953    3.348976
    158          1           0      -11.908721   -2.991328    4.280370
 ---------------------------------------------------------------------

 SCF Done:  E(RCAM-B3LYP) =  -4069.81210084     A.U. after   19 cycles

 Excitation energies and oscillator strengths:

 Excited State   1:      Singlet-A      1.6643 eV  744.97 nm  f=0.0108  <S**2>=0.000
     309 -> 315       -0.10780
     310 -> 316        0.13297
     311 -> 313       -0.43074
     312 -> 314        0.53477
 This state for optimization and/or second-order correction.
 Total Energy, E(TD-HF/TD-DFT) =  -4069.75093987
 Copying the excited state density for this state as the 1-particle RhoCI density.

 Excited State   2:      Singlet-A      1.6895 eV  733.87 nm  f=0.7307  <S**2>=0.000
     309 -> 315        0.13886
     310 -> 316        0.11109
     311 -> 313        0.53357
     312 -> 314        0.42982

 Excited State   3:      Singlet-A      2.1850 eV  567.44 nm  f=0.0994  <S**2>=0.000
     310 -> 314        0.63993
     312 -> 316       -0.27122

 Excited State   4:      Singlet-A      2.1940 eV  565.11 nm  f=0.1014  <S**2>=0.000
     309 -> 313        0.63781
     311 -> 315       -0.27776

 Excited State   5:      Singlet-A      2.6667 eV  464.94 nm  f=0.0000  <S**2>=0.000
     312 -> 313        0.70686

 The electronic state is 1-A.
 Alpha  occ. eigenvalues --  -46.87787 -46.87529 -19.26337 -19.26259 -19.19082
 Alpha  occ. eigenvalues --  -19.19064 -19.18756 -19.18625 -19.18171 -19.17936
 Alpha  occ. eigenvalues --  -14.42442 -14.42372 -14.41433 -14.41214 -14.39386
 Alpha  occ. eigenvalues --  -14.39226 -14.38581 -14.38468 -10.39135 -10.38992
 Alpha  occ. eigenvalues --  -10.35387 -10.35306 -10.34394 -10.34113 -10.31737
 Alpha  occ. eigenvalues --  -10.31676 -10.31404 -10.31182 -10.30913 -10.30899
 Alpha  occ. eigenvalues --  -10.30562 -10.30491 -10.30263 -10.30226 -10.30176
 Alpha  occ. eigenvalues --  -10.29984 -10.29905 -10.29741 -10.29610 -10.29309
 Alpha  occ. eigenvalues --  -10.29273 -10.29230 -10.28760 -10.28622 -10.28579
 Alpha  occ. eigenvalues --  -10.28574 -10.28354 -10.28287 -10.28119 -10.28040
 Alpha  occ. eigenvalues --  -10.27875 -10.27775 -10.27714 -10.27558 -10.27545
 Alpha  occ. eigenvalues --  -10.27462 -10.27427 -10.27413 -10.27397 -10.27376
 Alpha  occ. eigenvalues --  -10.27360 -10.27345 -10.27277 -10.27186 -10.27173
 Alpha  occ. eigenvalues --  -10.26941 -10.26741 -10.26605 -10.26354 -10.26313
 Alpha  occ. eigenvalues --  -10.26230 -10.26133 -10.25999 -10.25935 -10.25826
 Alpha  occ. eigenvalues --  -10.25780 -10.25770 -10.25674 -10.25397 -10.25241
 Alpha  occ. eigenvalues --  -10.24821 -10.24769 -10.24748 -10.24633 -10.24556
 Alpha  occ. eigenvalues --  -10.24435  -3.16531  -3.16279  -1.91413  -1.91161
 Alpha  occ. eigenvalues --   -1.90999  -1.90841  -1.90750  -1.90587  -1.16686
 Alpha  occ. eigenvalues --   -1.16551  -1.08634  -1.08544  -1.07155  -1.06880
 Alpha  occ. eigenvalues --   -1.06849  -1.06701  -1.04573  -1.04373  -1.03744
 Alpha  occ. eigenvalues --   -1.03531  -1.03219  -1.02898  -1.02397  -1.01977
 Alpha  occ. eigenvalues --   -0.91969  -0.91863  -0.89493  -0.89311  -0.89193
 Alpha  occ. eigenvalues --   -0.89043  -0.88259  -0.88026  -0.87856  -0.87663
 Alpha  occ. eigenvalues --   -0.87652  -0.87554  -0.87232  -0.87014  -0.84981
 Alpha  occ. eigenvalues --   -0.84889  -0.83908  -0.83678  -0.82912  -0.82815
 Alpha  occ. eigenvalues --   -0.82637  -0.82538  -0.81598  -0.81477  -0.80589
 Alpha  occ. eigenvalues --   -0.80324  -0.78767  -0.78514  -0.77202  -0.77016
 Alpha  occ. eigenvalues --   -0.76936  -0.76761  -0.75924  -0.75725  -0.74876
 Alpha  occ. eigenvalues --   -0.74645  -0.72758  -0.72559  -0.71660  -0.71452
 Alpha  occ. eigenvalues --   -0.69871  -0.69522  -0.68865  -0.68712  -0.67626
 Alpha  occ. eigenvalues --   -0.67477  -0.67214  -0.67102  -0.65290  -0.65159
 Alpha  occ. eigenvalues --   -0.64850  -0.64632  -0.64615  -0.64526  -0.64245
 Alpha  occ. eigenvalues --   -0.64013  -0.62315  -0.62153  -0.60406  -0.60214
 Alpha  occ. eigenvalues --   -0.59802  -0.59684  -0.58976  -0.58855  -0.58493
 Alpha  occ. eigenvalues --   -0.58290  -0.57599  -0.57439  -0.57289  -0.57088
 Alpha  occ. eigenvalues --   -0.56294  -0.56075  -0.56002  -0.55779  -0.55492
 Alpha  occ. eigenvalues --   -0.55347  -0.55329  -0.55086  -0.54525  -0.54324
 Alpha  occ. eigenvalues --   -0.53901  -0.53808  -0.53275  -0.53206  -0.53099
 Alpha  occ. eigenvalues --   -0.53026  -0.52919  -0.52781  -0.52719  -0.52577
 Alpha  occ. eigenvalues --   -0.52401  -0.52138  -0.51903  -0.51730  -0.51610
 Alpha  occ. eigenvalues --   -0.51559  -0.51189  -0.51057  -0.50511  -0.50374
 Alpha  occ. eigenvalues --   -0.49997  -0.49885  -0.49867  -0.49692  -0.49497
 Alpha  occ. eigenvalues --   -0.49384  -0.49203  -0.49093  -0.49093  -0.48987
 Alpha  occ. eigenvalues --   -0.48596  -0.48446  -0.48441  -0.48408  -0.48243
 Alpha  occ. eigenvalues --   -0.48218  -0.47676  -0.47469  -0.47274  -0.46997
 Alpha  occ. eigenvalues --   -0.46782  -0.46561  -0.46558  -0.46442  -0.46344
 Alpha  occ. eigenvalues --   -0.46154  -0.46127  -0.45940  -0.45827  -0.45692
 Alpha  occ. eigenvalues --   -0.45174  -0.45053  -0.44576  -0.44478  -0.44405
 Alpha  occ. eigenvalues --   -0.44342  -0.44122  -0.44080  -0.44015  -0.44001
 Alpha  occ. eigenvalues --   -0.43912  -0.43837  -0.43502  -0.43422  -0.43375
 Alpha  occ. eigenvalues --   -0.43262  -0.43016  -0.42819  -0.42768  -0.42726
 Alpha  occ. eigenvalues --   -0.42630  -0.42373  -0.41994  -0.41785  -0.41695
 Alpha  occ. eigenvalues --   -0.41539  -0.41531  -0.41324  -0.41129  -0.40865
 Alpha  occ. eigenvalues --   -0.40860  -0.40778  -0.40628  -0.40565  -0.40547
 Alpha  occ. eigenvalues --   -0.40293  -0.40245  -0.40136  -0.39401  -0.39186
 Alpha  occ. eigenvalues --   -0.38446  -0.38175  -0.37760  -0.37548  -0.37298
 Alpha  occ. eigenvalues --   -0.37266  -0.37104  -0.37074  -0.36743  -0.36655
 Alpha  occ. eigenvalues --   -0.36196  -0.36064  -0.34276  -0.34119  -0.33820
 Alpha  occ. eigenvalues --   -0.33759  -0.33177  -0.33043  -0.31289  -0.31183
 Alpha  occ. eigenvalues --   -0.31022  -0.30844  -0.30033  -0.29840  -0.29425
 Alpha  occ. eigenvalues --   -0.29309  -0.29210  -0.29084  -0.24070  -0.23904
 Alpha  occ. eigenvalues --   -0.21112  -0.20984
 Alpha virt. eigenvalues --   -0.08755  -0.08666  -0.01731  -0.01550  -0.00027
 Alpha virt. eigenvalues --    0.00076   0.02210   0.02337   0.03085   0.03362
 Alpha virt. eigenvalues --    0.04719   0.04849   0.05052   0.05265   0.06157

 Mulliken charges:
               1
     1  Mg   0.837837
     2  C   -0.003565
     3  C   -0.094047
     4  C   -0.045588
     5  C   -0.063885
     6  N   -0.256818
     7  C   -0.052851
     8  C   -0.013868
     9  C   -0.087000
    10  C    0.046201
    11  C    0.104772
    12  C    0.053438
    13  C   -0.071730
    14  H    0.035492
    15  N   -0.433274
    16  C    0.168499
    17  C   -0.176796
    18  C   -0.003568
    19  C    0.148795
    20  C    0.110057
    21  C    0.012897
    22  O   -0.249380
    23  C    0.062134
    24  N   -0.341108
    25  C    0.041276
    26  C   -0.028260
    27  C   -0.023965
    28  C    0.074694
    29  C    0.076140
    30  C    0.035082
    31  C   -0.004539
    32  N   -0.310303
    33  C    0.079921
    34  C   -0.169988
    35  C    0.008204
    36  C    0.082354
    37  C    0.127391
    38  C    0.045623
    39  O   -0.188694
    40  C   -0.005124
    41  C    0.213135
    42  O   -0.258429
    43  O   -0.304493
    44  C    0.157806
    45  H   -0.017457
    46  H   -0.016519
    47  H   -0.041345
    48  H    0.000930
    49  H   -0.003931
    50  H    0.025485
    51  H    0.016589
    52  H    0.016750
    53  H    0.011190
    54  H    0.043127
    55  H    0.018130
    56  H    0.018291
    57  H    0.005778
    58  H    0.026880
    59  H    0.040613
    60  H    0.037025
    61  H    0.036000
    62  H    0.032800
    63  H    0.016912
    64  H    0.009495
    65  H    0.023396
    66  H    0.012479
    67  H    0.004801
    68  H    0.006624
    69  H    0.004797
    70  H    0.009250
    71  H    0.018496
    72  H    0.028303
    73  H    0.047302
    74  H    0.009299
    75  H    0.046067
    76  H    0.035289
    77  H    0.043205
    78  H    0.046501
    79  H    0.052957
    80  Mg   0.837712
    81  C   -0.017087
    82  C   -0.088111
    83  C   -0.045528
    84  C   -0.064800
    85  N   -0.254580
    86  C   -0.049834
    87  C   -0.015123
    88  C   -0.090434
    89  C    0.045671
    90  C    0.114477
    91  C    0.062587
    92  C   -0.077740
    93  H    0.034653
    94  N   -0.423378
    95  C    0.162777
    96  C   -0.174975
    97  C   -0.008141
    98  C    0.152087
    99  C    0.099498
   100  C    0.015439
   101  O   -0.253895
   102  C    0.061324
   103  N   -0.350156
   104  C    0.037553
   105  C   -0.019715
   106  C   -0.035697
   107  C    0.088895
   108  C    0.074149
   109  C    0.034853
   110  C   -0.008099
   111  N   -0.324193
   112  C    0.078623
   113  C   -0.162702
   114  C    0.002129
   115  C    0.096376
   116  C    0.131220
   117  C    0.042454
   118  O   -0.187910
   119  C    0.000893
   120  C    0.211221
   121  O   -0.251033
   122  O   -0.305665
   123  C    0.152095
   124  H   -0.020135
   125  H   -0.016099
   126  H   -0.038698
   127  H   -0.000811
   128  H   -0.004590
   129  H    0.022355
   130  H    0.014359
   131  H    0.015924
   132  H    0.013901
   133  H    0.037678
   134  H    0.020670
   135  H    0.019441
   136  H    0.008548
   137  H    0.025594
   138  H    0.039461
   139  H    0.037973
   140  H    0.035629
   141  H    0.034039
   142  H    0.014170
   143  H    0.013575
   144  H    0.024130
   145  H    0.010682
   146  H    0.006313
   147  H    0.008975
   148  H    0.006829
   149  H    0.009764
   150  H    0.019232
   151  H    0.028637
   152  H    0.046088
   153  H    0.010171
   154  H    0.046851
   155  H    0.034812
   156  H    0.043779
   157  H    0.049354
   158  H    0.053523
 Sum of Mulliken charges =  -0.00000

 Dipole moment (field-independent basis, Debye):
    X=              0.4743    Y=              6.7053    Z=             -4.1954  Tot=              7.9238
 Quadrupole moment (field-independent basis, Debye-Ang):
   XX=           -432.6615   YY=           -543.2185   ZZ=           -482.5816
   XY=            -28.7553   XZ=             -4.3976   YZ=             -6.4265

 Normal termination of Gaussian 16 at Sat Sep 11 03:50:30 2021.
