 Gaussian 16, Revision A.03,
 Gaussian 16:  ES64L-G16RevA.03 25-Dec-2016

 -----------------------------------
 #p cam-b3lyp/Def2SVP td=(nstates=5)
 -----------------------------------

 --------------------------------
 TDDFT excited states in gaussian
 --------------------------------
 Symbolic Z-matrix:
 Charge =  0 Multiplicity = 1

                         Standard orientation:
 ---------------------------------------------------------------------
 Center     Atomic      Atomic             Coordinates (Angstroms)
 Number     Number       Type             X           Y           Z
 ---------------------------------------------------------------------
      1         12           0        4.238993    0.723282   -0.273845
      2          6           0        4.641618   -2.603313   -1.532365
      3          6           0        4.950569    1.839628   -3.418761
      4          6           0        4.336707    3.663803    0.909543
      5          6           0        4.682441   -0.590829    2.923361
      6          7           0        4.716468   -0.344145   -2.153543
      7          6           0        4.780079   -1.621537   -2.516026
      8          6           0        4.932581   -1.820541   -4.053724
      9          6           0        5.577895   -0.411246   -4.427162
     10          6           0        5.020947    0.421050   -3.285664
     11          6           0        7.101017   -0.398157   -4.346972
     12          6           0        3.553535   -2.026019   -4.766285
     13          6           0        3.632221   -2.548673   -6.203642
     14          1           0        2.605191   -3.466869   -6.672120
     15          7           0        4.110296    2.473980   -1.180127
     16          6           0        4.425848    2.743450   -2.469739
     17          6           0        4.158797    4.185116   -2.661996
     18          6           0        3.843195    4.771054   -1.329642
     19          6           0        4.113233    3.650678   -0.465227
     20          6           0        4.169240    4.852177   -4.003141
     21          6           0        3.382940    6.128837   -0.902182
     22          8           0        3.391714    6.495667    0.322535
     23          6           0        2.999902    7.061400   -1.977659
     24          7           0        4.692883    1.477963    1.618792
     25          6           0        4.602463    2.786672    1.879729
     26          6           0        4.696038    3.057612    3.352066
     27          6           0        4.625831    1.632602    4.069121
     28          6           0        4.583842    0.735419    2.807547
     29          6           0        5.955701    3.801339    3.816963
     30          6           0        3.529686    1.441118    5.147183
     31          6           0        2.163051    1.469419    4.500184
     32          7           0        4.422698   -1.257659    0.594007
     33          6           0        4.623361   -1.570445    1.946255
     34          6           0        4.793188   -3.032660    2.030836
     35          6           0        4.695412   -3.469957    0.711345
     36          6           0        4.504484   -2.349036   -0.146195
     37          6           0        5.064156   -3.773025    3.215264
     38          6           0        4.732434   -4.620920   -0.176220
     39          8           0        4.773500   -5.841180   -0.012598
     40          6           0        4.820969   -4.094163   -1.676392
     41          6           0        3.801772   -4.850184   -2.484461
     42          8           0        2.580428   -4.693465   -2.281669
     43          8           0        4.410975   -5.451697   -3.517707
     44          6           0        3.451297   -6.195338   -4.376876
     45          1           0        5.389093    2.309358   -4.301366
     46          1           0        4.267937    4.650210    1.372912
     47          1           0        4.740313   -1.080846    3.897007
     48          1           0        5.606633   -2.627012   -4.343001
     49          1           0        5.212034   -0.036592   -5.382935
     50          1           0        7.485502   -1.324645   -3.920696
     51          1           0        7.351522    0.448105   -3.706986
     52          1           0        7.538300   -0.177017   -5.320962
     53          1           0        3.094087   -1.054283   -4.947108
     54          1           0        2.909725   -2.681696   -4.178984
     55          1           0        4.625026   -2.936928   -6.432780
     56          1           0        3.508601   -1.703990   -6.881454
     57          1           0        4.595513    4.205280   -4.768883
     58          1           0        4.864062    5.689173   -3.937043
     59          1           0        3.181899    5.215670   -4.288383
     60          1           0        3.849764    7.210962   -2.643929
     61          1           0        2.613188    7.950603   -1.481049
     62          1           0        2.215201    6.602649   -2.579939
     63          1           0        3.861072    3.669522    3.690924
     64          1           0        5.553739    1.389290    4.587254
     65          1           0        5.744810    4.725460    4.355692
     66          1           0        6.576826    3.991679    2.942169
     67          1           0        6.630673    3.213170    4.438163
     68          1           0        3.560216    2.257368    5.868121
     69          1           0        3.628122    0.506681    5.699803
     70          1           0        1.948752    2.535274    4.430468
     71          1           0        1.432128    0.964800    5.132894
     72          1           0        2.195556    1.076425    3.483826
     73          1           0        4.424775   -4.654884    3.176727
     74          1           0        4.866539   -3.179142    4.107370
     75          1           0        6.124658   -3.986166    3.081987
     76          1           0        5.837931   -4.286726   -2.016731
     77          1           0        3.803313   -7.225404   -4.434168
     78          1           0        3.371428   -5.635352   -5.308778
     79          1           0        2.451271   -6.342093   -3.967302
     80         12           0       -4.721654    0.095194   -0.025463
     81          6           0       -3.119958   -1.126423    2.944597
     82          6           0       -4.138207    3.248534    1.136712
     83          6           0       -6.517325    1.195159   -2.398875
     84          6           0       -6.162622   -3.058349   -0.378273
     85          7           0       -3.745713    0.836546    1.815790
     86          6           0       -3.119879    0.280319    2.842084
     87          6           0       -2.387619    1.285879    3.770630
     88          6           0       -3.251462    2.597088    3.433890
     89          6           0       -3.716757    2.228496    2.026651
     90          6           0       -4.478250    2.752757    4.317129
     91          6           0       -0.880400    1.474325    3.377182
     92          6           0       -0.029008    2.199751    4.421526
     93          1           0        1.361942    1.789286    4.592575
     94          7           0       -4.837138    1.913483   -0.812281
     95          6           0       -4.540010    3.082456   -0.206903
     96          6           0       -4.810356    4.131214   -1.202490
     97          6           0       -5.447614    3.498423   -2.389160
     98          6           0       -5.648766    2.151594   -1.893510
     99          6           0       -4.396421    5.561357   -1.010720
    100          6           0       -5.826456    4.022493   -3.741204
    101          8           0       -6.585580    3.358546   -4.532244
    102          6           0       -5.359120    5.376078   -4.074197
    103          7           0       -6.299187   -0.729864   -1.099244
    104          6           0       -6.869221   -0.059150   -2.115668
    105          6           0       -7.789201   -0.953795   -2.911675
    106          6           0       -7.531474   -2.433254   -2.361784
    107          6           0       -6.528180   -2.112210   -1.232303
    108          6           0       -9.279669   -0.628358   -2.816855
    109          6           0       -7.146083   -3.515453   -3.407247
    110          6           0       -5.778977   -3.216762   -3.979267
    111          7           0       -4.530074   -1.820854    0.954394
    112          6           0       -5.246683   -3.002597    0.664476
    113          6           0       -4.853541   -4.008509    1.672439
    114          6           0       -3.945633   -3.329803    2.499199
    115          6           0       -3.799672   -1.989151    2.051042
    116          6           0       -5.361156   -5.335069    1.765792
    117          6           0       -3.085615   -3.439533    3.655492
    118          8           0       -2.734363   -4.359830    4.392665
    119          6           0       -2.608976   -1.981257    4.070997
    120          6           0       -1.122758   -2.025544    4.298396
    121          8           0       -0.345717   -2.257295    3.355471
    122          8           0       -0.852915   -1.574953    5.537152
    123          6           0        0.609748   -1.589408    5.805910
    124          1           0       -4.208850    4.269261    1.513564
    125          1           0       -7.078760    1.490956   -3.288127
    126          1           0       -6.493017   -4.094442   -0.478344
    127          1           0       -2.453384    1.058704    4.827910
    128          1           0       -2.626520    3.485989    3.408259
    129          1           0       -4.631762    1.890633    4.949045
    130          1           0       -5.313454    2.879665    3.640825
    131          1           0       -4.412985    3.680451    4.892845
    132          1           0       -0.813493    2.191615    2.549078
    133          1           0       -0.429268    0.531864    3.134565
    134          1           0       -0.533520    2.262301    5.393375
    135          1           0        0.086774    3.241324    4.112112
    136          1           0       -4.097927    5.758121    0.026387
    137          1           0       -5.291463    6.175664   -1.156971
    138          1           0       -3.630761    5.877313   -1.722488
    139          1           0       -5.741264    6.080965   -3.339654
    140          1           0       -5.652267    5.539123   -5.113120
    141          1           0       -4.266605    5.398735   -3.993449
    142          1           0       -7.542188   -0.922691   -3.965770
    143          1           0       -8.426997   -2.849756   -1.877640
    144          1           0       -9.748154   -0.437269   -3.800774
    145          1           0       -9.401575    0.226622   -2.165179
    146          1           0       -9.886883   -1.384437   -2.322050
    147          1           0       -7.844881   -3.496457   -4.247181
    148          1           0       -7.150963   -4.523799   -3.007007
    149          1           0       -5.994023   -2.483961   -4.762756
    150          1           0       -5.331897   -4.118061   -4.393785
    151          1           0       -5.139819   -2.726476   -3.235804
    152          1           0       -4.513786   -5.979918    1.957175
    153          1           0       -5.885262   -5.625039    0.857495
    154          1           0       -6.041262   -5.224374    2.614593
    155          1           0       -3.153272   -1.703722    4.974490
    156          1           0        0.761764   -2.179675    6.714845
    157          1           0        0.918217   -0.527521    5.837434
    158          1           0        1.243370   -2.117044    5.102651
 ---------------------------------------------------------------------

 SCF Done:  E(RCAM-B3LYP) =  -4069.50366986     A.U. after   24 cycles

 Excitation energies and oscillator strengths:

 Excited State   1:      Singlet-A      1.4776 eV  839.12 nm  f=0.0132  <S**2>=0.000
     311 -> 313        0.39276
     312 -> 313        0.57612
 This state for optimization and/or second-order correction.
 Total Energy, E(TD-HF/TD-DFT) =  -4069.44937082
 Copying the excited state density for this state as the 1-particle RhoCI density.

 Excited State   2:      Singlet-A      1.6398 eV  756.08 nm  f=0.0992  <S**2>=0.000
     309 -> 317        0.14295
     310 -> 313       -0.28254
     311 -> 314       -0.40606
     312 -> 314        0.47359

 Excited State   3:      Singlet-A      1.7154 eV  722.79 nm  f=0.5808  <S**2>=0.000
     308 -> 315        0.15999
     310 -> 313        0.61633
     311 -> 314       -0.18109
     312 -> 314        0.22268

 Excited State   4:      Singlet-A      1.9516 eV  635.31 nm  f=0.0125  <S**2>=0.000
     311 -> 314        0.53102
     312 -> 314        0.45991

 Excited State   5:      Singlet-A      1.9619 eV  631.94 nm  f=0.0005  <S**2>=0.000
     311 -> 313        0.58536
     312 -> 313       -0.39358

 The electronic state is 1-A.
 Alpha  occ. eigenvalues --  -46.88499 -46.86480 -19.26427 -19.26398 -19.19405
 Alpha  occ. eigenvalues --  -19.19124 -19.18802 -19.18506 -19.17897 -19.17213
 Alpha  occ. eigenvalues --  -14.43106 -14.42431 -14.40964 -14.40280 -14.40084
 Alpha  occ. eigenvalues --  -14.39204 -14.38236 -14.37493 -10.39225 -10.38712
 Alpha  occ. eigenvalues --  -10.36028 -10.34727 -10.34592 -10.33383 -10.33017
 Alpha  occ. eigenvalues --  -10.32021 -10.31733 -10.31473 -10.31359 -10.31247
 Alpha  occ. eigenvalues --  -10.31235 -10.30950 -10.30301 -10.30226 -10.30170
 Alpha  occ. eigenvalues --  -10.29926 -10.29824 -10.29812 -10.29361 -10.29315
 Alpha  occ. eigenvalues --  -10.29314 -10.29188 -10.29152 -10.29140 -10.28910
 Alpha  occ. eigenvalues --  -10.28849 -10.28699 -10.28558 -10.28417 -10.28393
 Alpha  occ. eigenvalues --  -10.28338 -10.28321 -10.28232 -10.28018 -10.27981
 Alpha  occ. eigenvalues --  -10.27510 -10.27326 -10.27100 -10.27027 -10.26949
 Alpha  occ. eigenvalues --  -10.26891 -10.26809 -10.26708 -10.26653 -10.26584
 Alpha  occ. eigenvalues --  -10.26560 -10.26438 -10.26333 -10.26306 -10.26233
 Alpha  occ. eigenvalues --  -10.26216 -10.25808 -10.25803 -10.25654 -10.25634
 Alpha  occ. eigenvalues --  -10.25445 -10.25310 -10.25025 -10.24905 -10.24679
 Alpha  occ. eigenvalues --  -10.24246 -10.24066 -10.23889 -10.23634 -10.22579
 Alpha  occ. eigenvalues --  -10.14390  -3.17236  -3.15233  -1.92115  -1.91709
 Alpha  occ. eigenvalues --   -1.91545  -1.90117  -1.89699  -1.89543  -1.16751
 Alpha  occ. eigenvalues --   -1.16623  -1.08932  -1.07882  -1.07802  -1.06753
 Alpha  occ. eigenvalues --   -1.06613  -1.06167  -1.05259  -1.04685  -1.03961
 Alpha  occ. eigenvalues --   -1.03129  -1.03127  -1.02374  -1.01973  -1.00986
 Alpha  occ. eigenvalues --   -0.99836  -0.92548  -0.90931  -0.90283  -0.89628
 Alpha  occ. eigenvalues --   -0.89302  -0.88577  -0.88389  -0.88343  -0.87863
 Alpha  occ. eigenvalues --   -0.87383  -0.87069  -0.86704  -0.86188  -0.85769
 Alpha  occ. eigenvalues --   -0.85481  -0.84242  -0.83382  -0.83166  -0.83044
 Alpha  occ. eigenvalues --   -0.82812  -0.82184  -0.81873  -0.81584  -0.81037
 Alpha  occ. eigenvalues --   -0.80205  -0.79362  -0.78938  -0.77624  -0.77506
 Alpha  occ. eigenvalues --   -0.76989  -0.76350  -0.76303  -0.75385  -0.75240
 Alpha  occ. eigenvalues --   -0.74072  -0.73286  -0.72741  -0.72382  -0.71367
 Alpha  occ. eigenvalues --   -0.70439  -0.69519  -0.68942  -0.68353  -0.67969
 Alpha  occ. eigenvalues --   -0.67504  -0.67259  -0.66627  -0.65648  -0.65374
 Alpha  occ. eigenvalues --   -0.65158  -0.64491  -0.64344  -0.63684  -0.63255
 Alpha  occ. eigenvalues --   -0.63142  -0.62688  -0.62007  -0.61720  -0.60759
 Alpha  occ. eigenvalues --   -0.60368  -0.60139  -0.59472  -0.59392  -0.58877
 Alpha  occ. eigenvalues --   -0.58249  -0.58148  -0.57832  -0.57549  -0.57356
 Alpha  occ. eigenvalues --   -0.56953  -0.56824  -0.56325  -0.56312  -0.56013
 Alpha  occ. eigenvalues --   -0.55773  -0.55471  -0.55117  -0.54709  -0.54431
 Alpha  occ. eigenvalues --   -0.54317  -0.54150  -0.53852  -0.53701  -0.53694
 Alpha  occ. eigenvalues --   -0.53230  -0.53129  -0.52751  -0.52412  -0.52358
 Alpha  occ. eigenvalues --   -0.52305  -0.52034  -0.51964  -0.51842  -0.51631
 Alpha  occ. eigenvalues --   -0.51584  -0.51085  -0.51011  -0.50940  -0.50408
 Alpha  occ. eigenvalues --   -0.50389  -0.50039  -0.49857  -0.49651  -0.49625
 Alpha  occ. eigenvalues --   -0.49500  -0.49274  -0.49076  -0.48984  -0.48940
 Alpha  occ. eigenvalues --   -0.48922  -0.48733  -0.48441  -0.48095  -0.48019
 Alpha  occ. eigenvalues --   -0.47986  -0.47865  -0.47715  -0.47537  -0.47259
 Alpha  occ. eigenvalues --   -0.47154  -0.46951  -0.46817  -0.46655  -0.46339
 Alpha  occ. eigenvalues --   -0.46272  -0.46205  -0.45927  -0.45585  -0.45317
 Alpha  occ. eigenvalues --   -0.45230  -0.45017  -0.44900  -0.44788  -0.44706
 Alpha  occ. eigenvalues --   -0.44573  -0.44489  -0.44468  -0.44175  -0.44007
 Alpha  occ. eigenvalues --   -0.43915  -0.43809  -0.43541  -0.43467  -0.43288
 Alpha  occ. eigenvalues --   -0.43254  -0.42978  -0.42934  -0.42777  -0.42699
 Alpha  occ. eigenvalues --   -0.42339  -0.42155  -0.42083  -0.42020  -0.41730
 Alpha  occ. eigenvalues --   -0.41698  -0.41372  -0.41314  -0.41215  -0.40910
 Alpha  occ. eigenvalues --   -0.40813  -0.40535  -0.40420  -0.40085  -0.39822
 Alpha  occ. eigenvalues --   -0.39707  -0.39593  -0.38663  -0.38491  -0.38280
 Alpha  occ. eigenvalues --   -0.37926  -0.37845  -0.37593  -0.37390  -0.37021
 Alpha  occ. eigenvalues --   -0.36584  -0.36469  -0.36220  -0.35906  -0.35030
 Alpha  occ. eigenvalues --   -0.34985  -0.34974  -0.34086  -0.33795  -0.33429
 Alpha  occ. eigenvalues --   -0.32912  -0.32079  -0.31961  -0.31759  -0.30458
 Alpha  occ. eigenvalues --   -0.30363  -0.30057  -0.29812  -0.29790  -0.29114
 Alpha  occ. eigenvalues --   -0.28331  -0.28208  -0.24806  -0.22901  -0.21917
 Alpha  occ. eigenvalues --   -0.20102  -0.19686
 Alpha virt. eigenvalues --   -0.09434  -0.07724  -0.02599  -0.00605  -0.00574
 Alpha virt. eigenvalues --    0.01086   0.01465   0.02202   0.03137   0.03390
 Alpha virt. eigenvalues --    0.04039   0.04352   0.04914   0.05662   0.05782

 Mulliken charges:
               1
     1  Mg   0.847255
     2  C    0.000975
     3  C   -0.090758
     4  C   -0.045987
     5  C   -0.066977
     6  N   -0.255848
     7  C   -0.051111
     8  C   -0.014329
     9  C   -0.087556
    10  C    0.046869
    11  C    0.104412
    12  C    0.052979
    13  C   -0.072947
    14  H    0.039298
    15  N   -0.433391
    16  C    0.168977
    17  C   -0.175127
    18  C   -0.003365
    19  C    0.150389
    20  C    0.109671
    21  C    0.014141
    22  O   -0.249828
    23  C    0.061788
    24  N   -0.336507
    25  C    0.038418
    26  C   -0.037509
    27  C   -0.026800
    28  C    0.057069
    29  C    0.076278
    30  C    0.088480
    31  C    0.522430
    32  N   -0.312154
    33  C    0.086071
    34  C   -0.162231
    35  C    0.010896
    36  C    0.087228
    37  C    0.126586
    38  C    0.050491
    39  O   -0.184024
    40  C   -0.007333
    41  C    0.212920
    42  O   -0.251943
    43  O   -0.305671
    44  C    0.157035
    45  H   -0.015169
    46  H   -0.017496
    47  H   -0.047261
    48  H    0.002384
    49  H   -0.002087
    50  H    0.026326
    51  H    0.015744
    52  H    0.018372
    53  H    0.012135
    54  H    0.046706
    55  H    0.017751
    56  H    0.018526
    57  H    0.007440
    58  H    0.028026
    59  H    0.041908
    60  H    0.038185
    61  H    0.036820
    62  H    0.032723
    63  H    0.019471
    64  H    0.017832
    65  H    0.026825
    66  H    0.019460
    67  H    0.007855
    68  H    0.021651
    69  H    0.013461
    70  H    0.194469
    71  H    0.199902
    72  H    0.101668
    73  H    0.055295
    74  H    0.003243
    75  H    0.046713
    76  H    0.036106
    77  H    0.043573
    78  H    0.046207
    79  H    0.055931
    80  Mg   0.832756
    81  C   -0.019896
    82  C   -0.088098
    83  C   -0.048000
    84  C   -0.067661
    85  N   -0.259229
    86  C   -0.043247
    87  C    0.005493
    88  C   -0.082160
    89  C    0.049710
    90  C    0.117127
    91  C    0.140979
    92  C   -0.244271
    93  H   -0.697110
    94  N   -0.422736
    95  C    0.162211
    96  C   -0.176580
    97  C   -0.010577
    98  C    0.151578
    99  C    0.100130
   100  C    0.013020
   101  O   -0.256240
   102  C    0.062718
   103  N   -0.350366
   104  C    0.036751
   105  C   -0.018978
   106  C   -0.034324
   107  C    0.088888
   108  C    0.074679
   109  C    0.035469
   110  C   -0.007094
   111  N   -0.324188
   112  C    0.079396
   113  C   -0.163754
   114  C    0.001292
   115  C    0.097760
   116  C    0.131527
   117  C    0.042001
   118  O   -0.192646
   119  C    0.000435
   120  C    0.217943
   121  O   -0.248865
   122  O   -0.301846
   123  C    0.177644
   124  H   -0.020768
   125  H   -0.018969
   126  H   -0.043530
   127  H   -0.014708
   128  H   -0.002165
   129  H    0.016703
   130  H    0.006181
   131  H    0.012101
   132  H   -0.015085
   133  H   -0.020299
   134  H   -0.052364
   135  H   -0.055243
   136  H    0.010633
   137  H    0.023337
   138  H    0.034733
   139  H    0.037837
   140  H    0.032860
   141  H    0.030705
   142  H    0.011892
   143  H    0.010494
   144  H    0.022488
   145  H    0.011415
   146  H    0.003828
   147  H    0.003663
   148  H    0.002513
   149  H    0.008976
   150  H    0.015772
   151  H    0.032330
   152  H    0.045170
   153  H    0.007067
   154  H    0.044809
   155  H    0.034610
   156  H    0.045422
   157  H    0.010819
   158  H    0.055188
 Sum of Mulliken charges =  -0.00000

 Dipole moment (field-independent basis, Debye):
    X=              7.3998    Y=              5.6626    Z=             -2.2094  Tot=              9.5762
 Quadrupole moment (field-independent basis, Debye-Ang):
   XX=           -488.9949   YY=           -531.8774   ZZ=           -467.1978
   XY=             23.7215   XZ=             -4.3921   YZ=             19.8564

 Normal termination of Gaussian 16 at Thu Sep  9 19:41:25 2021.
