 Gaussian 16, Revision A.03,
 Gaussian 16:  ES64L-G16RevA.03 25-Dec-2016

 -----------------------------------
 #p cam-b3lyp/Def2SVP td=(nstates=5)
 -----------------------------------

 --------------------------------
 TDDFT excited states in gaussian
 --------------------------------
 Symbolic Z-matrix:
 Charge =  0 Multiplicity = 1

                         Standard orientation:
 ---------------------------------------------------------------------
 Center     Atomic      Atomic             Coordinates (Angstroms)
 Number     Number       Type             X           Y           Z
 ---------------------------------------------------------------------
      1         12           0        5.482531   -0.438311    0.408742
      2          6           0        5.651420    2.647711   -1.396848
      3          6           0        6.114921    1.356289    3.241154
      4          6           0        5.788867   -3.190693    1.953790
      5          6           0        5.994118   -2.071896   -2.626936
      6          7           0        5.819797    1.722721    0.750557
      7          6           0        5.799140    2.807701   -0.017273
      8          6           0        5.873562    4.137808    0.790595
      9          6           0        6.576406    3.590273    2.112796
     10          6           0        6.115083    2.144780    2.052325
     11          6           0        8.100095    3.622579    2.050903
     12          6           0        4.455735    4.727135    1.097499
     13          6           0        4.443587    6.176673    1.591508
     14          1           0        3.349472    7.045771    1.185392
     15          7           0        5.408221   -0.837407    2.342146
     16          6           0        5.681177    0.017862    3.356688
     17          6           0        5.483464   -0.752358    4.603424
     18          6           0        5.258064   -2.175844    4.227958
     19          6           0        5.505256   -2.128875    2.809484
     20          6           0        5.471050   -0.126287    5.964171
     21          6           0        4.890155   -3.388391    5.023260
     22          8           0        4.971946   -4.569272    4.540139
     23          6           0        4.510983   -3.161456    6.429593
     24          7           0        6.058250   -2.350927   -0.197958
     25          6           0        6.049407   -3.378365    0.658358
     26          6           0        6.221471   -4.686039   -0.056010
     27          6           0        6.106513   -4.356964   -1.614293
     28          6           0        5.961619   -2.817982   -1.520425
     29          6           0        7.538179   -5.427531    0.213212
     30          6           0        5.049767   -5.149256   -2.424219
     31          6           0        3.659681   -4.756267   -1.976649
     32          7           0        5.597730    0.138371   -1.680567
     33          6           0        5.840175   -0.703648   -2.775509
     34          6           0        5.935099    0.156563   -3.969282
     35          6           0        5.756616    1.449180   -3.480272
     36          6           0        5.588675    1.401865   -2.066819
     37          6           0        6.217498   -0.282837   -5.292767
     38          6           0        5.693290    2.861473   -3.819794
     39          8           0        5.676146    3.500225   -4.872978
     40          6           0        5.744342    3.704185   -2.469588
     41          6           0        4.651900    4.736371   -2.536463
     42          8           0        3.450694    4.398257   -2.524276
     43          8           0        5.182416    5.956904   -2.365018
     44          6           0        4.147785    7.025087   -2.391038
     45          1           0        6.539018    1.778222    4.154420
     46          1           0        5.793218   -4.172458    2.431866
     47          1           0        6.068121   -2.518401   -3.620218
     48          1           0        6.490265    4.912570    0.334695
     49          1           0        6.189760    4.074240    3.009457
     50          1           0        8.452717    3.896608    1.056677
     51          1           0        8.423170    2.612722    2.304487
     52          1           0        8.505675    4.270941    2.828019
     53          1           0        4.041454    4.228940    1.973989
     54          1           0        3.804017    4.637195    0.227728
     55          1           0        5.403270    6.664645    1.418877
     56          1           0        4.335862    6.166953    2.676174
     57          1           0        5.828314    0.902332    5.935032
     58          1           0        6.211855   -0.654233    6.564330
     59          1           0        4.493057   -0.198543    6.440239
     60          1           0        5.337753   -2.679685    6.951988
     61          1           0        4.194400   -4.129733    6.815681
     62          1           0        3.677351   -2.459331    6.461639
     63          1           0        5.435997   -5.388525    0.219617
     64          1           0        7.041799   -4.544925   -2.142104
     65          1           0        7.400705   -6.438519    0.597540
     66          1           0        8.129842   -4.824606    0.901477
     67          1           0        8.207188   -5.497009   -0.644119
     68          1           0        5.155318   -6.218123   -2.241657
     69          1           0        5.122108   -4.987783   -3.499832
     70          1           0        3.499844   -5.383145   -1.100117
     71          1           0        2.931116   -4.981861   -2.756079
     72          1           0        3.626760   -3.718206   -1.645239
     73          1           0        5.530805    0.255485   -5.945937
     74          1           0        6.091022   -1.361095   -5.387463
     75          1           0        7.258261    0.025667   -5.390202
     76          1           0        6.733737    4.157842   -2.420443
     77          1           0        4.441384    7.737611   -3.161974
     78          1           0        4.057400    7.393897   -1.369170
     79          1           0        3.160162    6.730968   -2.748017
     80         12           0       -5.069076   -0.908302   -0.195243
     81          6           0       -7.693497    1.500737    0.238329
     82          6           0       -2.923065    1.717375   -0.562652
     83          6           0       -2.822582   -2.989203   -1.026222
     84          6           0       -7.536286   -3.258019   -0.928348
     85          7           0       -5.386637    1.280100   -0.147318
     86          6           0       -6.416332    2.079721    0.086497
     87          6           0       -6.044342    3.578751    0.241706
     88          6           0       -4.668623    3.572144   -0.586697
     89          6           0       -4.275567    2.108642   -0.396095
     90          6           0       -4.859766    3.825716   -2.072799
     91          6           0       -5.811118    3.984765    1.739293
     92          6           0       -5.748917    5.492307    1.994688
     93          1           0       -6.300899    6.010033    3.243588
     94          7           0       -3.094006   -0.718380   -0.235047
     95          6           0       -2.388962    0.424689   -0.367654
     96          6           0       -0.972627    0.027094   -0.358998
     97          6           0       -0.902583   -1.459350   -0.376143
     98          6           0       -2.300643   -1.786883   -0.571750
     99          6           0        0.150152    1.018183   -0.256372
    100          6           0        0.236101   -2.425828   -0.251568
    101          8           0        0.098223   -3.668690   -0.532877
    102          6           0        1.540424   -1.857904    0.119476
    103          7           0       -5.145927   -2.786462   -1.083482
    104          6           0       -4.025530   -3.501630   -1.286354
    105          6           0       -4.349490   -4.923094   -1.679868
    106          6           0       -5.926146   -5.080222   -1.462967
    107          6           0       -6.270058   -3.632716   -1.048444
    108          6           0       -3.991759   -5.314456   -3.113486
    109          6           0       -6.398216   -6.243122   -0.547813
    110          6           0       -5.971572   -5.982871    0.878944
    111          7           0       -7.228511   -0.961878   -0.150137
    112          6           0       -8.062989   -2.038655   -0.522007
    113          6           0       -9.457737   -1.560428   -0.430161
    114          6           0       -9.336083   -0.221106   -0.030272
    115          6           0       -7.961871    0.117692    0.097199
    116          6           0      -10.619861   -2.319366   -0.745741
    117          6           0      -10.057415    0.986162    0.302729
    118          8           0      -11.243690    1.275842    0.452978
    119          6           0       -9.022819    2.190991    0.368996
    120          6           0       -9.289950    2.963699    1.631568
    121          8           0       -9.100456    2.441498    2.744230
    122          8           0       -9.514672    4.253145    1.319818
    123          6           0       -9.773784    5.062335    2.540429
    124          1           0       -2.207944    2.460259   -0.917089
    125          1           0       -2.091319   -3.777189   -1.220673
    126          1           0       -8.365968   -3.958372   -1.045859
    127          1           0       -6.746394    4.270022   -0.208908
    128          1           0       -3.930482    4.227552   -0.131787
    129          1           0       -5.904189    3.851310   -2.346078
    130          1           0       -4.356531    3.011301   -2.577295
    131          1           0       -4.332479    4.736522   -2.370677
    132          1           0       -4.791727    3.702356    2.032258
    133          1           0       -6.553007    3.540988    2.374340
    134          1           0       -6.121826    6.070770    1.140715
    135          1           0       -4.700130    5.786762    2.080385
    136          1           0       -0.201332    2.043276   -0.426853
    137          1           0        0.828390    0.820834   -1.093579
    138          1           0        0.707294    0.928180    0.678587
    139          1           0        1.832597   -1.112996   -0.616869
    140          1           0        2.206384   -2.713660    0.246184
    141          1           0        1.433858   -1.331457    1.074523
    142          1           0       -3.834609   -5.628596   -1.039333
    143          1           0       -6.451070   -5.268749   -2.410994
    144          1           0       -3.313757   -6.186835   -3.171518
    145          1           0       -3.549511   -4.456040   -3.601397
    146          1           0       -4.841278   -5.534228   -3.757854
    147          1           0       -5.921304   -7.179218   -0.848539
    148          1           0       -7.470623   -6.405172   -0.573817
    149          1           0       -4.937548   -6.340062    0.896366
    150          1           0       -6.594448   -6.543163    1.573298
    151          1           0       -5.952754   -4.908202    1.094294
    152          1           0      -11.342686   -2.120875    0.034403
    153          1           0      -10.393693   -3.381123   -0.818452
    154          1           0      -10.877450   -1.887141   -1.716353
    155          1           0       -9.171988    2.800337   -0.523213
    156          1           0      -10.738749    5.558038    2.396237
    157          1           0       -8.886828    5.712188    2.661902
    158          1           0       -9.946459    4.529087    3.467952
 ---------------------------------------------------------------------

 SCF Done:  E(RCAM-B3LYP) =  -4069.81386480     A.U. after   19 cycles

 Excitation energies and oscillator strengths:

 Excited State   1:      Singlet-A      1.6681 eV  743.27 nm  f=0.3915  <S**2>=0.000
     310 -> 316       -0.14411
     311 -> 313        0.36598
     312 -> 314        0.58055
 This state for optimization and/or second-order correction.
 Total Energy, E(TD-HF/TD-DFT) =  -4069.75256370
 Copying the excited state density for this state as the 1-particle RhoCI density.

 Excited State   2:      Singlet-A      1.6781 eV  738.82 nm  f=0.4059  <S**2>=0.000
     309 -> 315       -0.14854
     311 -> 313        0.58019
     312 -> 314       -0.36592

 Excited State   3:      Singlet-A      2.1834 eV  567.84 nm  f=0.0242  <S**2>=0.000
     309 -> 313       -0.26910
     310 -> 314        0.58500
     311 -> 315       -0.11131
     312 -> 316        0.24550

 Excited State   4:      Singlet-A      2.1979 eV  564.11 nm  f=0.1538  <S**2>=0.000
     309 -> 313        0.58163
     310 -> 314        0.26557
     311 -> 315        0.25572
     312 -> 316        0.11564

 Excited State   5:      Singlet-A      2.4127 eV  513.88 nm  f=0.0000  <S**2>=0.000
     312 -> 313        0.70656

 The electronic state is 1-A.
 Alpha  occ. eigenvalues --  -46.88084 -46.87494 -19.26683 -19.26252 -19.19459
 Alpha  occ. eigenvalues --  -19.19056 -19.18947 -19.18696 -19.18436 -19.17901
 Alpha  occ. eigenvalues --  -14.42706 -14.42326 -14.41635 -14.41190 -14.39644
 Alpha  occ. eigenvalues --  -14.39188 -14.38861 -14.38434 -10.39496 -10.38982
 Alpha  occ. eigenvalues --  -10.35576 -10.35387 -10.34664 -10.34081 -10.32081
 Alpha  occ. eigenvalues --  -10.31681 -10.31663 -10.31173 -10.31122 -10.30838
 Alpha  occ. eigenvalues --  -10.30811 -10.30727 -10.30349 -10.30259 -10.30175
 Alpha  occ. eigenvalues --  -10.30096 -10.29968 -10.29839 -10.29754 -10.29471
 Alpha  occ. eigenvalues --  -10.29251 -10.29231 -10.29061 -10.28925 -10.28629
 Alpha  occ. eigenvalues --  -10.28565 -10.28552 -10.28391 -10.28225 -10.28022
 Alpha  occ. eigenvalues --  -10.27956 -10.27937 -10.27820 -10.27793 -10.27662
 Alpha  occ. eigenvalues --  -10.27657 -10.27462 -10.27452 -10.27451 -10.27438
 Alpha  occ. eigenvalues --  -10.27387 -10.27322 -10.27302 -10.27255 -10.27115
 Alpha  occ. eigenvalues --  -10.26986 -10.26910 -10.26571 -10.26521 -10.26509
 Alpha  occ. eigenvalues --  -10.26466 -10.26185 -10.26026 -10.26021 -10.25893
 Alpha  occ. eigenvalues --  -10.25773 -10.25765 -10.25711 -10.25440 -10.25294
 Alpha  occ. eigenvalues --  -10.25079 -10.24989 -10.24702 -10.24623 -10.24532
 Alpha  occ. eigenvalues --  -10.24105  -3.16797  -3.16244  -1.91682  -1.91265
 Alpha  occ. eigenvalues --   -1.91126  -1.91108  -1.90715  -1.90552  -1.17036
 Alpha  occ. eigenvalues --   -1.16544  -1.08906  -1.08515  -1.07341  -1.07068
 Alpha  occ. eigenvalues --   -1.06918  -1.06839  -1.04837  -1.04321  -1.03964
 Alpha  occ. eigenvalues --   -1.03499  -1.03461  -1.02874  -1.02632  -1.01943
 Alpha  occ. eigenvalues --   -0.92230  -0.91824  -0.89600  -0.89459  -0.89344
 Alpha  occ. eigenvalues --   -0.88972  -0.88317  -0.88090  -0.88080  -0.87898
 Alpha  occ. eigenvalues --   -0.87633  -0.87504  -0.87460  -0.86939  -0.85246
 Alpha  occ. eigenvalues --   -0.84842  -0.83941  -0.83750  -0.83049  -0.82866
 Alpha  occ. eigenvalues --   -0.82838  -0.82518  -0.81861  -0.81466  -0.80828
 Alpha  occ. eigenvalues --   -0.80309  -0.78995  -0.78436  -0.77406  -0.77125
 Alpha  occ. eigenvalues --   -0.76964  -0.76757  -0.76165  -0.75654  -0.74965
 Alpha  occ. eigenvalues --   -0.74653  -0.72967  -0.72522  -0.71873  -0.71415
 Alpha  occ. eigenvalues --   -0.69784  -0.69624  -0.69106  -0.68674  -0.67861
 Alpha  occ. eigenvalues --   -0.67491  -0.67464  -0.67088  -0.65560  -0.65114
 Alpha  occ. eigenvalues --   -0.65092  -0.64819  -0.64612  -0.64510  -0.64300
 Alpha  occ. eigenvalues --   -0.64060  -0.62568  -0.62146  -0.60605  -0.60193
 Alpha  occ. eigenvalues --   -0.60071  -0.59623  -0.59190  -0.58832  -0.58710
 Alpha  occ. eigenvalues --   -0.58262  -0.57889  -0.57446  -0.57415  -0.57107
 Alpha  occ. eigenvalues --   -0.56536  -0.56287  -0.56022  -0.55750  -0.55724
 Alpha  occ. eigenvalues --   -0.55471  -0.55349  -0.55116  -0.54646  -0.54369
 Alpha  occ. eigenvalues --   -0.54184  -0.53751  -0.53472  -0.53462  -0.53166
 Alpha  occ. eigenvalues --   -0.53098  -0.53002  -0.52955  -0.52758  -0.52544
 Alpha  occ. eigenvalues --   -0.52284  -0.52270  -0.52103  -0.51884  -0.51740
 Alpha  occ. eigenvalues --   -0.51523  -0.51373  -0.51055  -0.50712  -0.50311
 Alpha  occ. eigenvalues --   -0.50163  -0.49985  -0.49812  -0.49734  -0.49716
 Alpha  occ. eigenvalues --   -0.49451  -0.49384  -0.49329  -0.49031  -0.48949
 Alpha  occ. eigenvalues --   -0.48859  -0.48638  -0.48545  -0.48401  -0.48244
 Alpha  occ. eigenvalues --   -0.48209  -0.47870  -0.47489  -0.47408  -0.46982
 Alpha  occ. eigenvalues --   -0.46903  -0.46813  -0.46558  -0.46540  -0.46421
 Alpha  occ. eigenvalues --   -0.46299  -0.46088  -0.46068  -0.45933  -0.45684
 Alpha  occ. eigenvalues --   -0.45257  -0.45067  -0.44821  -0.44684  -0.44387
 Alpha  occ. eigenvalues --   -0.44359  -0.44355  -0.44255  -0.44154  -0.43959
 Alpha  occ. eigenvalues --   -0.43918  -0.43818  -0.43720  -0.43522  -0.43424
 Alpha  occ. eigenvalues --   -0.43226  -0.43220  -0.43029  -0.42803  -0.42741
 Alpha  occ. eigenvalues --   -0.42653  -0.42396  -0.42040  -0.41905  -0.41826
 Alpha  occ. eigenvalues --   -0.41704  -0.41521  -0.41348  -0.41313  -0.41071
 Alpha  occ. eigenvalues --   -0.40990  -0.40820  -0.40648  -0.40571  -0.40552
 Alpha  occ. eigenvalues --   -0.40516  -0.40351  -0.40114  -0.39299  -0.39244
 Alpha  occ. eigenvalues --   -0.38534  -0.38213  -0.38051  -0.37547  -0.37516
 Alpha  occ. eigenvalues --   -0.37399  -0.37116  -0.37034  -0.37032  -0.36660
 Alpha  occ. eigenvalues --   -0.36364  -0.36078  -0.34521  -0.34175  -0.34091
 Alpha  occ. eigenvalues --   -0.33745  -0.33415  -0.33009  -0.31481  -0.31254
 Alpha  occ. eigenvalues --   -0.31215  -0.30813  -0.30301  -0.29809  -0.29673
 Alpha  occ. eigenvalues --   -0.29567  -0.29150  -0.29043  -0.24318  -0.23866
 Alpha  occ. eigenvalues --   -0.21341  -0.20941
 Alpha virt. eigenvalues --   -0.08993  -0.08618  -0.01960  -0.01538  -0.00267
 Alpha virt. eigenvalues --    0.00085   0.01971   0.02319   0.02912   0.03362
 Alpha virt. eigenvalues --    0.04458   0.04701   0.04893   0.05279   0.05822

 Mulliken charges:
               1
     1  Mg   0.816058
     2  C   -0.003746
     3  C   -0.094245
     4  C   -0.047194
     5  C   -0.060492
     6  N   -0.256040
     7  C   -0.054553
     8  C   -0.013209
     9  C   -0.086660
    10  C    0.045905
    11  C    0.104656
    12  C    0.053214
    13  C   -0.071571
    14  H    0.034440
    15  N   -0.432061
    16  C    0.167958
    17  C   -0.177884
    18  C   -0.003595
    19  C    0.148231
    20  C    0.110229
    21  C    0.012732
    22  O   -0.247587
    23  C    0.062439
    24  N   -0.338532
    25  C    0.041211
    26  C   -0.027780
    27  C   -0.023773
    28  C    0.075127
    29  C    0.076079
    30  C    0.035396
    31  C   -0.001710
    32  N   -0.309965
    33  C    0.077232
    34  C   -0.169443
    35  C    0.007986
    36  C    0.079902
    37  C    0.127468
    38  C    0.045421
    39  O   -0.188364
    40  C   -0.005623
    41  C    0.213750
    42  O   -0.261125
    43  O   -0.303819
    44  C    0.157796
    45  H   -0.017325
    46  H   -0.015799
    47  H   -0.040960
    48  H    0.001309
    49  H   -0.004080
    50  H    0.025715
    51  H    0.017162
    52  H    0.017178
    53  H    0.010140
    54  H    0.041073
    55  H    0.019190
    56  H    0.018704
    57  H    0.005816
    58  H    0.027642
    59  H    0.039700
    60  H    0.037382
    61  H    0.037007
    62  H    0.031234
    63  H    0.019289
    64  H    0.008915
    65  H    0.024042
    66  H    0.011992
    67  H    0.004953
    68  H    0.006039
    69  H    0.002321
    70  H    0.014813
    71  H    0.022550
    72  H    0.022730
    73  H    0.047218
    74  H    0.010442
    75  H    0.046379
    76  H    0.035907
    77  H    0.044062
    78  H    0.046574
    79  H    0.051895
    80  Mg   0.837492
    81  C   -0.016800
    82  C   -0.088030
    83  C   -0.045425
    84  C   -0.065096
    85  N   -0.254434
    86  C   -0.050158
    87  C   -0.015121
    88  C   -0.090137
    89  C    0.044826
    90  C    0.114125
    91  C    0.062637
    92  C   -0.077390
    93  H    0.033588
    94  N   -0.423636
    95  C    0.162033
    96  C   -0.172853
    97  C   -0.007442
    98  C    0.152621
    99  C    0.094131
   100  C    0.021968
   101  O   -0.251981
   102  C    0.015893
   103  N   -0.350113
   104  C    0.037849
   105  C   -0.019917
   106  C   -0.034671
   107  C    0.088748
   108  C    0.073693
   109  C    0.034870
   110  C   -0.007591
   111  N   -0.323937
   112  C    0.078052
   113  C   -0.163624
   114  C    0.002105
   115  C    0.095798
   116  C    0.131585
   117  C    0.042022
   118  O   -0.188655
   119  C    0.000990
   120  C    0.211189
   121  O   -0.251396
   122  O   -0.305507
   123  C    0.152220
   124  H   -0.014757
   125  H   -0.016083
   126  H   -0.041002
   127  H   -0.000891
   128  H   -0.004024
   129  H    0.021772
   130  H    0.015920
   131  H    0.017406
   132  H    0.013562
   133  H    0.037213
   134  H    0.020956
   135  H    0.019301
   136  H    0.015192
   137  H    0.038361
   138  H    0.037858
   139  H    0.053539
   140  H    0.056446
   141  H    0.041690
   142  H    0.014110
   143  H    0.012167
   144  H    0.024222
   145  H    0.012094
   146  H    0.005578
   147  H    0.005806
   148  H    0.003418
   149  H    0.010900
   150  H    0.017542
   151  H    0.030244
   152  H    0.045481
   153  H    0.008133
   154  H    0.046662
   155  H    0.034994
   156  H    0.043645
   157  H    0.049338
   158  H    0.053214
 Sum of Mulliken charges =  -0.00000

 Dipole moment (field-independent basis, Debye):
    X=              5.4800    Y=              2.6229    Z=              2.5076  Tot=              6.5725
 Quadrupole moment (field-independent basis, Debye-Ang):
   XX=           -553.3966   YY=           -472.1056   ZZ=           -511.1452
   XY=             15.4000   XZ=             38.1989   YZ=             40.9031

 Normal termination of Gaussian 16 at Sat Sep 11 02:40:41 2021.
