 Gaussian 16, Revision A.03,
 Gaussian 16:  ES64L-G16RevA.03 25-Dec-2016

 -----------------------------------
 #p cam-b3lyp/Def2SVP td=(nstates=5)
 -----------------------------------

 --------------------------------
 TDDFT excited states in gaussian
 --------------------------------
 Symbolic Z-matrix:
 Charge =  0 Multiplicity = 1

                         Standard orientation:
 ---------------------------------------------------------------------
 Center     Atomic      Atomic             Coordinates (Angstroms)
 Number     Number       Type             X           Y           Z
 ---------------------------------------------------------------------
      1         12           0        4.629627   -0.458276    0.778939
      2          6           0        5.003636    2.564233   -1.101693
      3          6           0        4.977122    1.429611    3.599966
      4          6           0        4.757316   -3.157501    2.438607
      5          6           0        5.441980   -2.195326   -2.131112
      6          7           0        4.943328    1.712160    1.081342
      7          6           0        5.008968    2.770520    0.279633
      8          6           0        5.007843    4.127055    1.045913
      9          6           0        5.566798    3.622733    2.451340
     10          6           0        5.105122    2.177314    2.391832
     11          6           0        7.088896    3.648671    2.546464
     12          6           0        3.569619    4.730407    1.184509
     13          6           0        3.515583    6.195898    1.625834
     14          1           0        2.474790    7.053766    1.079793
     15          7           0        4.353362   -0.791342    2.706527
     16          6           0        4.525357    0.097089    3.714690
     17          6           0        4.194999   -0.629838    4.959328
     18          6           0        4.000675   -2.064608    4.610379
     19          6           0        4.393453   -2.066477    3.224341
     20          6           0        4.045932    0.042068    6.289768
     21          6           0        3.544918   -3.248446    5.403440
     22          8           0        3.668786   -4.445260    4.971159
     23          6           0        3.023845   -2.972875    6.754583
     24          7           0        5.252943   -2.391970    0.299423
     25          6           0        5.149178   -3.389738    1.184113
     26          6           0        5.385940   -4.721369    0.535544
     27          6           0        5.434739   -4.445029   -1.036400
     28          6           0        5.290593   -2.903351   -1.009573
     29          6           0        6.663081   -5.456970    0.964278
     30          6           0        4.462413   -5.261392   -1.924405
     31          6           0        3.036008   -4.849570   -1.636538
     32          7           0        4.963792    0.046871   -1.305337
     33          6           0        5.312821   -0.832482   -2.340514
     34          6           0        5.536034   -0.013533   -3.546153
     35          6           0        5.316088    1.295422   -3.121765
     36          6           0        5.002651    1.296555   -1.732503
     37          6           0        5.950956   -0.498365   -4.817849
     38          6           0        5.297072    2.695555   -3.513075
     39          8           0        5.392896    3.298255   -4.583152
     40          6           0        5.213582    3.583443   -2.193791
     41          6           0        4.140412    4.615808   -2.407888
     42          8           0        2.942279    4.281653   -2.508808
     43          8           0        4.658024    5.839970   -2.223374
     44          6           0        3.638358    6.909537   -2.392078
     45          1           0        5.307191    1.881099    4.537598
     46          1           0        4.706057   -4.122490    2.947140
     47          1           0        5.615450   -2.675476   -3.095901
     48          1           0        5.673224    4.884182    0.630640
     49          1           0        5.092589    4.137918    3.286464
     50          1           0        7.544112    3.887829    1.585474
     51          1           0        7.377676    2.647102    2.865771
     52          1           0        7.416043    4.321890    3.339262
     53          1           0        3.063836    4.263391    2.029578
     54          1           0        3.010743    4.612830    0.255445
     55          1           0        4.491016    6.675054    1.537248
     56          1           0        3.296259    6.223282    2.693237
     57          1           0        4.410752    1.068107    6.263374
     58          1           0        4.717401   -0.467278    6.980713
     59          1           0        3.023534   -0.011268    6.664188
     60          1           0        3.795200   -2.475966    7.343346
     61          1           0        2.662972   -3.926610    7.138000
     62          1           0        2.195795   -2.267745    6.676653
     63          1           0        4.571784   -5.411906    0.751725
     64          1           0        6.418373   -4.653396   -1.457971
     65          1           0        6.480266   -6.453951    1.365916
     66          1           0        7.184209   -4.832696    1.689535
     67          1           0        7.416675   -5.557359    0.183614
     68          1           0        4.541809   -6.323740   -1.696241
     69          1           0        4.646561   -5.136705   -2.991548
     70          1           0        2.782488   -5.445902   -0.760782
     71          1           0        2.390508   -5.099443   -2.479214
     72          1           0        2.975531   -3.800776   -1.345230
     73          1           0        5.338853    0.019401   -5.556237
     74          1           0        5.828172   -1.578858   -4.889003
     75          1           0        6.998133   -0.196248   -4.817289
     76          1           0        6.195428    4.035745   -2.057694
     77          1           0        4.014544    7.594676   -3.151883
     78          1           0        3.445151    7.313052   -1.397970
     79          1           0        2.691095    6.606233   -2.839336
     80         12           0       -4.237521   -0.848613   -0.646816
     81          6           0       -6.841989    1.407808    0.355386
     82          6           0       -2.482627    1.880698   -1.698363
     83          6           0       -2.127262   -2.829830   -1.946422
     84          6           0       -6.612376   -3.398438   -0.582121
     85          7           0       -4.707163    1.312635   -0.620588
     86          6           0       -5.700550    2.057323   -0.159088
     87          6           0       -5.423284    3.584479   -0.180559
     88          6           0       -4.317310    3.611748   -1.344575
     89          6           0       -3.771058    2.193220   -1.195992
     90          6           0       -4.911586    3.751384   -2.736225
     91          6           0       -4.838831    4.105035    1.179395
     92          6           0       -4.833852    5.627217    1.336586
     93          1           0       -5.078717    6.190954    2.661238
     94          7           0       -2.364163   -0.533331   -1.220996
     95          6           0       -1.813401    0.641742   -1.591328
     96          6           0       -0.417102    0.338911   -1.941757
     97          6           0       -0.234119   -1.137559   -1.905887
     98          6           0       -1.603287   -1.568079   -1.705633
     99          6           0        0.609343    1.405816   -2.189817
    100          6           0        0.971603   -2.017049   -2.043495
    101          8           0        0.865660   -3.282398   -2.218105
    102          6           0        2.277261   -1.341461   -2.061370
    103          7           0       -4.392716   -2.783452   -1.391549
    104          6           0       -3.310815   -3.436043   -1.851486
    105          6           0       -3.610707   -4.898943   -2.075922
    106          6           0       -5.057146   -5.143624   -1.439099
    107          6           0       -5.396044   -3.696963   -1.017538
    108          6           0       -3.611317   -5.362029   -3.532609
    109          6           0       -5.176926   -6.270393   -0.376698
    110          6           0       -4.413295   -5.887124    0.870447
    111          7           0       -6.297783   -1.039817   -0.024865
    112          6           0       -7.110747   -2.191390   -0.108778
    113          6           0       -8.466424   -1.800099    0.328770
    114          6           0       -8.352757   -0.431751    0.617251
    115          6           0       -7.025294    0.003835    0.357220
    116          6           0       -9.605361   -2.652819    0.371245
    117          6           0       -9.056548    0.745592    1.072471
    118          8           0      -10.181208    0.966730    1.519654
    119          6           0       -8.141719    2.017091    0.802724
    120          6           0       -8.129692    2.854196    2.052373
    121          8           0       -7.613296    2.421790    3.097828
    122          8           0       -8.531798    4.102232    1.750595
    123          6           0       -8.526042    4.973347    2.955981
    124          1           0       -1.948050    2.643033   -2.265788
    125          1           0       -1.411448   -3.579741   -2.290979
    126          1           0       -7.384396   -4.157768   -0.440463
    127          1           0       -6.272464    4.196460   -0.460102
    128          1           0       -3.541131    4.343142   -1.134894
    129          1           0       -5.989646    3.690264   -2.721929
    130          1           0       -4.494266    2.939343   -3.317140
    131          1           0       -4.556340    4.672462   -3.207130
    132          1           0       -3.758921    3.910182    1.202999
    133          1           0       -5.349700    3.657685    2.009763
    134          1           0       -5.463280    6.121128    0.586370
    135          1           0       -3.826677    5.994597    1.125271
    136          1           0        0.143787    2.391936   -2.309159
    137          1           0        1.057766    1.197078   -3.167165
    138          1           0        1.397709    1.415698   -1.434132
    139          1           0        2.304771   -0.630490   -2.883700
    140          1           0        3.020047   -2.141421   -2.076121
    141          1           0        2.382871   -0.759814   -1.138792
    142          1           0       -2.890513   -5.524485   -1.562964
    143          1           0       -5.795434   -5.429576   -2.202635
    144          1           0       -2.904097   -6.190221   -3.727616
    145          1           0       -3.383488   -4.511486   -4.161262
    146          1           0       -4.579518   -5.679768   -3.915789
    147          1           0       -4.721604   -7.191535   -0.748624
    148          1           0       -6.201829   -6.503467   -0.107939
    149          1           0       -3.385580   -6.174092    0.628500
    150          1           0       -4.784738   -6.438704    1.731743
    151          1           0       -4.425548   -4.801435    1.021363
    152          1           0      -10.111718   -2.449703    1.305503
    153          1           0       -9.321158   -3.700046    0.291683
    154          1           0      -10.142701   -2.304844   -0.515015
    155          1           0       -8.568535    2.553763   -0.045434
    156          1           0       -9.531822    5.394161    3.050861
    157          1           0       -7.693827    5.686407    2.805278
    158          1           0       -8.405574    4.493812    3.920340
 ---------------------------------------------------------------------

 SCF Done:  E(RCAM-B3LYP) =  -4069.80402634     A.U. after   17 cycles

 Excitation energies and oscillator strengths:

 Excited State   1:      Singlet-A      1.6356 eV  758.05 nm  f=0.2677  <S**2>=0.000
     309 -> 315       -0.11785
     310 -> 316       -0.11295
     311 -> 313        0.49102
     312 -> 314       -0.48177
 This state for optimization and/or second-order correction.
 Total Energy, E(TD-HF/TD-DFT) =  -4069.74392023
 Copying the excited state density for this state as the 1-particle RhoCI density.

 Excited State   2:      Singlet-A      1.6968 eV  730.69 nm  f=0.5146  <S**2>=0.000
     309 -> 315       -0.12740
     310 -> 316        0.12525
     311 -> 313        0.47947
     312 -> 314        0.48877

 Excited State   3:      Singlet-A      2.1797 eV  568.83 nm  f=0.0053  <S**2>=0.000
     309 -> 313        0.51981
     310 -> 314       -0.37843
     311 -> 315        0.21675
     312 -> 316        0.15624

 Excited State   4:      Singlet-A      2.1953 eV  564.77 nm  f=0.1625  <S**2>=0.000
     309 -> 313        0.36745
     310 -> 314        0.51699
     311 -> 315        0.16433
     312 -> 316       -0.22282

 Excited State   5:      Singlet-A      2.2308 eV  555.78 nm  f=0.0022  <S**2>=0.000
     312 -> 313        0.69938

 The electronic state is 1-A.
 Alpha  occ. eigenvalues --  -46.88159 -46.87334 -19.26959 -19.26183 -19.19884
 Alpha  occ. eigenvalues --  -19.19015 -19.18975 -19.18560 -19.18346 -19.17749
 Alpha  occ. eigenvalues --  -14.42811 -14.42177 -14.41659 -14.41029 -14.39727
 Alpha  occ. eigenvalues --  -14.39017 -14.38895 -14.38272 -10.39830 -10.38898
 Alpha  occ. eigenvalues --  -10.35639 -10.35018 -10.34804 -10.33936 -10.32292
 Alpha  occ. eigenvalues --  -10.31811 -10.31636 -10.31256 -10.30978 -10.30971
 Alpha  occ. eigenvalues --  -10.30850 -10.30657 -10.30264 -10.30146 -10.30102
 Alpha  occ. eigenvalues --  -10.29997 -10.29982 -10.29786 -10.29640 -10.29408
 Alpha  occ. eigenvalues --  -10.29145 -10.29045 -10.28981 -10.28967 -10.28706
 Alpha  occ. eigenvalues --  -10.28517 -10.28481 -10.28439 -10.28067 -10.28059
 Alpha  occ. eigenvalues --  -10.28038 -10.27916 -10.27822 -10.27797 -10.27717
 Alpha  occ. eigenvalues --  -10.27641 -10.27622 -10.27271 -10.27270 -10.27254
 Alpha  occ. eigenvalues --  -10.27177 -10.27169 -10.27162 -10.27125 -10.26985
 Alpha  occ. eigenvalues --  -10.26786 -10.26547 -10.26526 -10.26486 -10.26116
 Alpha  occ. eigenvalues --  -10.26089 -10.26083 -10.25923 -10.25701 -10.25595
 Alpha  occ. eigenvalues --  -10.25588 -10.25571 -10.25323 -10.25231 -10.25177
 Alpha  occ. eigenvalues --  -10.25074 -10.25028 -10.24521 -10.24518 -10.24387
 Alpha  occ. eigenvalues --  -10.22538  -3.16907  -3.16085  -1.91794  -1.91370
 Alpha  occ. eigenvalues --   -1.91215  -1.90968  -1.90556  -1.90392  -1.17321
 Alpha  occ. eigenvalues --   -1.16471  -1.09054  -1.08375  -1.07413  -1.07403
 Alpha  occ. eigenvalues --   -1.06843  -1.06757  -1.04936  -1.04165  -1.04022
 Alpha  occ. eigenvalues --   -1.03539  -1.03341  -1.02709  -1.02685  -1.01776
 Alpha  occ. eigenvalues --   -0.92363  -0.91671  -0.89617  -0.89447  -0.89200
 Alpha  occ. eigenvalues --   -0.88859  -0.88182  -0.88106  -0.87954  -0.87925
 Alpha  occ. eigenvalues --   -0.87543  -0.87471  -0.87339  -0.86507  -0.85328
 Alpha  occ. eigenvalues --   -0.84703  -0.83827  -0.83630  -0.83031  -0.82717
 Alpha  occ. eigenvalues --   -0.82510  -0.82238  -0.81959  -0.81345  -0.80882
 Alpha  occ. eigenvalues --   -0.80140  -0.79071  -0.78122  -0.77450  -0.77085
 Alpha  occ. eigenvalues --   -0.76751  -0.76645  -0.76214  -0.75468  -0.74800
 Alpha  occ. eigenvalues --   -0.74496  -0.73007  -0.72336  -0.71927  -0.71273
 Alpha  occ. eigenvalues --   -0.69511  -0.69454  -0.69101  -0.68490  -0.67937
 Alpha  occ. eigenvalues --   -0.67558  -0.67288  -0.66896  -0.65647  -0.65198
 Alpha  occ. eigenvalues --   -0.64989  -0.64865  -0.64470  -0.64406  -0.63994
 Alpha  occ. eigenvalues --   -0.63921  -0.62625  -0.62031  -0.60652  -0.60173
 Alpha  occ. eigenvalues --   -0.59902  -0.59483  -0.59244  -0.58772  -0.58685
 Alpha  occ. eigenvalues --   -0.58099  -0.58069  -0.57407  -0.57288  -0.56933
 Alpha  occ. eigenvalues --   -0.56657  -0.56393  -0.55849  -0.55812  -0.55587
 Alpha  occ. eigenvalues --   -0.55522  -0.55188  -0.55006  -0.54541  -0.54276
 Alpha  occ. eigenvalues --   -0.54248  -0.53642  -0.53556  -0.53517  -0.53278
 Alpha  occ. eigenvalues --   -0.53040  -0.52951  -0.52884  -0.52638  -0.52327
 Alpha  occ. eigenvalues --   -0.52229  -0.52143  -0.51971  -0.51877  -0.51621
 Alpha  occ. eigenvalues --   -0.51563  -0.51021  -0.50843  -0.50735  -0.50240
 Alpha  occ. eigenvalues --   -0.50178  -0.49854  -0.49775  -0.49577  -0.49531
 Alpha  occ. eigenvalues --   -0.49407  -0.49307  -0.49110  -0.49006  -0.48849
 Alpha  occ. eigenvalues --   -0.48787  -0.48700  -0.48400  -0.48267  -0.48107
 Alpha  occ. eigenvalues --   -0.48101  -0.47844  -0.47501  -0.47210  -0.47028
 Alpha  occ. eigenvalues --   -0.46860  -0.46685  -0.46471  -0.46379  -0.46259
 Alpha  occ. eigenvalues --   -0.46163  -0.46061  -0.45854  -0.45710  -0.45563
 Alpha  occ. eigenvalues --   -0.45128  -0.44933  -0.44851  -0.44697  -0.44475
 Alpha  occ. eigenvalues --   -0.44327  -0.44242  -0.44226  -0.44043  -0.43912
 Alpha  occ. eigenvalues --   -0.43821  -0.43758  -0.43709  -0.43355  -0.43322
 Alpha  occ. eigenvalues --   -0.43288  -0.43085  -0.42888  -0.42699  -0.42572
 Alpha  occ. eigenvalues --   -0.42418  -0.42242  -0.41924  -0.41879  -0.41700
 Alpha  occ. eigenvalues --   -0.41411  -0.41369  -0.41294  -0.41130  -0.41042
 Alpha  occ. eigenvalues --   -0.40779  -0.40640  -0.40581  -0.40515  -0.40408
 Alpha  occ. eigenvalues --   -0.40236  -0.40094  -0.39681  -0.39173  -0.38814
 Alpha  occ. eigenvalues --   -0.38342  -0.38100  -0.38076  -0.37643  -0.37419
 Alpha  occ. eigenvalues --   -0.37275  -0.37028  -0.36960  -0.36844  -0.36572
 Alpha  occ. eigenvalues --   -0.36155  -0.35956  -0.34593  -0.34443  -0.33939
 Alpha  occ. eigenvalues --   -0.33651  -0.33359  -0.32851  -0.31556  -0.31351
 Alpha  occ. eigenvalues --   -0.30723  -0.30586  -0.30410  -0.29735  -0.29668
 Alpha  occ. eigenvalues --   -0.29636  -0.28929  -0.28813  -0.24401  -0.23712
 Alpha  occ. eigenvalues --   -0.21438  -0.20764
 Alpha virt. eigenvalues --   -0.09111  -0.08430  -0.02054  -0.01397  -0.00365
 Alpha virt. eigenvalues --    0.00257   0.01803   0.02423   0.02750   0.03542
 Alpha virt. eigenvalues --    0.04383   0.04397   0.05018   0.05370   0.05716

 Mulliken charges:
               1
     1  Mg   0.798221
     2  C   -0.006496
     3  C   -0.093503
     4  C   -0.045576
     5  C   -0.014251
     6  N   -0.254696
     7  C   -0.057236
     8  C   -0.012747
     9  C   -0.087281
    10  C    0.048654
    11  C    0.104562
    12  C    0.052680
    13  C   -0.071879
    14  H    0.034365
    15  N   -0.431679
    16  C    0.169610
    17  C   -0.176190
    18  C   -0.002331
    19  C    0.151272
    20  C    0.109756
    21  C    0.013798
    22  O   -0.246962
    23  C    0.061892
    24  N   -0.336237
    25  C    0.048564
    26  C   -0.027811
    27  C   -0.016253
    28  C    0.039400
    29  C    0.077079
    30  C    0.040961
    31  C    0.027076
    32  N   -0.310910
    33  C    0.046110
    34  C   -0.167577
    35  C    0.005329
    36  C    0.076559
    37  C    0.127740
    38  C    0.039916
    39  O   -0.188630
    40  C   -0.004899
    41  C    0.216683
    42  O   -0.262504
    43  O   -0.302643
    44  C    0.157468
    45  H   -0.016907
    46  H   -0.014501
    47  H   -0.039923
    48  H    0.001030
    49  H   -0.003301
    50  H    0.025923
    51  H    0.017326
    52  H    0.017630
    53  H    0.012095
    54  H    0.040505
    55  H    0.019043
    56  H    0.019507
    57  H    0.006320
    58  H    0.028125
    59  H    0.041623
    60  H    0.037365
    61  H    0.037257
    62  H    0.032658
    63  H    0.019614
    64  H    0.007214
    65  H    0.023526
    66  H    0.010478
    67  H    0.005112
    68  H   -0.001013
    69  H   -0.001859
    70  H   -0.010549
    71  H    0.029580
    72  H    0.019299
    73  H    0.044784
    74  H    0.011537
    75  H    0.046487
    76  H    0.036744
    77  H    0.044900
    78  H    0.047707
    79  H    0.051286
    80  Mg   0.836110
    81  C   -0.016783
    82  C   -0.086605
    83  C   -0.047209
    84  C   -0.065347
    85  N   -0.254182
    86  C   -0.051261
    87  C   -0.014991
    88  C   -0.090039
    89  C    0.044408
    90  C    0.114338
    91  C    0.062647
    92  C   -0.077001
    93  H    0.032416
    94  N   -0.423393
    95  C    0.160807
    96  C   -0.179719
    97  C    0.006022
    98  C    0.152350
    99  C    0.106675
   100  C    0.028789
   101  O   -0.254963
   102  C    0.050948
   103  N   -0.350206
   104  C    0.038462
   105  C   -0.019898
   106  C   -0.034353
   107  C    0.088323
   108  C    0.073914
   109  C    0.035015
   110  C   -0.007384
   111  N   -0.323659
   112  C    0.077184
   113  C   -0.164365
   114  C    0.001809
   115  C    0.095095
   116  C    0.131741
   117  C    0.041475
   118  O   -0.189753
   119  C    0.001105
   120  C    0.211136
   121  O   -0.251840
   122  O   -0.305487
   123  C    0.152396
   124  H   -0.014429
   125  H   -0.017813
   126  H   -0.041671
   127  H   -0.001411
   128  H   -0.003476
   129  H    0.021629
   130  H    0.015352
   131  H    0.016604
   132  H    0.013744
   133  H    0.036797
   134  H    0.020818
   135  H    0.019155
   136  H    0.016775
   137  H    0.032487
   138  H    0.046128
   139  H    0.047871
   140  H    0.029524
   141  H    0.039930
   142  H    0.013418
   143  H    0.011717
   144  H    0.023387
   145  H    0.011883
   146  H    0.005508
   147  H    0.005209
   148  H    0.003204
   149  H    0.010734
   150  H    0.017315
   151  H    0.030425
   152  H    0.044836
   153  H    0.007685
   154  H    0.046046
   155  H    0.034528
   156  H    0.043395
   157  H    0.049114
   158  H    0.052825
 Sum of Mulliken charges =  -0.00000

 Dipole moment (field-independent basis, Debye):
    X=              4.8119    Y=              3.1697    Z=              1.9003  Tot=              6.0673
 Quadrupole moment (field-independent basis, Debye-Ang):
   XX=           -549.5681   YY=           -467.1303   ZZ=           -511.9198
   XY=             11.6526   XZ=             41.9017   YZ=             30.9921

 Normal termination of Gaussian 16 at Thu Sep  9 13:44:15 2021.
