 Gaussian 16, Revision A.03,
 Gaussian 16:  ES64L-G16RevA.03 25-Dec-2016

 -----------------------------------
 #p cam-b3lyp/Def2SVP td=(nstates=5)
 -----------------------------------

 --------------------------------
 TDDFT excited states in gaussian
 --------------------------------
 Symbolic Z-matrix:
 Charge =  0 Multiplicity = 1

                         Standard orientation:
 ---------------------------------------------------------------------
 Center     Atomic      Atomic             Coordinates (Angstroms)
 Number     Number       Type             X           Y           Z
 ---------------------------------------------------------------------
      1         12           0        7.548930    1.012288    0.554658
      2          6           0        7.972999   -2.409060   -0.408025
      3          6           0        8.535851    1.866552   -2.598005
      4          6           0        7.620432    4.034351    1.513116
      5          6           0        7.704196   -0.054791    3.868704
      6          7           0        8.150187   -0.207094   -1.192409
      7          6           0        8.212684   -1.509853   -1.449478
      8          6           0        8.483059   -1.831257   -2.949801
      9          6           0        9.189003   -0.466797   -3.376285
     10          6           0        8.562124    0.461758   -2.351233
     11          6           0       10.700710   -0.473554   -3.173306
     12          6           0        7.161033   -2.068263   -3.754666
     13          6           0        7.342243   -2.703152   -5.136488
     14          1           0        6.334787   -3.637495   -5.615430
     15          7           0        7.534194    2.688576   -0.490660
     16          6           0        7.958164    2.850776   -1.767071
     17          6           0        7.741178    4.277318   -2.090451
     18          6           0        7.333762    4.971122   -0.837158
     19          6           0        7.507453    3.917426    0.129762
     20          6           0        7.874533    4.837018   -3.473456
     21          6           0        6.872685    6.365895   -0.554053
     22          8           0        6.792001    6.827310    0.635551
     23          6           0        6.598884    7.217787   -1.725529
     24          7           0        7.867436    1.904992    2.414569
     25          6           0        7.787084    3.231474    2.566142
     26          6           0        7.768844    3.615249    4.016080
     27          6           0        7.608136    2.252186    4.832159
     28          6           0        7.646256    1.259807    3.643882
     29          6           0        9.004324    4.371419    4.523827
     30          6           0        6.425047    2.164522    5.828670
     31          6           0        5.115615    2.165465    5.072044
     32          7           0        7.616167   -0.897456    1.583932
     33          6           0        7.700588   -1.106767    2.968033
     34          6           0        7.828825   -2.560560    3.178055
     35          6           0        7.826752   -3.098114    1.892413
     36          6           0        7.731359   -2.044691    0.938739
     37          6           0        7.986727   -3.210421    4.433914
     38          6           0        7.907734   -4.315518    1.101700
     39          8           0        7.906997   -5.519740    1.361207
     40          6           0        8.128352   -3.909463   -0.422200
     41          6           0        7.159677   -4.708882   -1.250394
     42          8           0        5.930025   -4.515869   -1.160563
     43          8           0        7.835368   -5.399814   -2.181306
     44          6           0        6.930384   -6.191913   -3.056369
     45          1           0        9.054480    2.258136   -3.475289
     46          1           0        7.537908    5.055050    1.892327
     47          1           0        7.672474   -0.467968    4.878521
     48          1           0        9.159036   -2.669332   -3.120417
     49          1           0        8.909679   -0.161936   -4.384630
     50          1           0       11.028052   -1.370260   -2.647297
     51          1           0       10.918934    0.415816   -2.581790
     52          1           0       11.219596   -0.336896   -4.122442
     53          1           0        6.740404   -1.105948   -4.046352
     54          1           0        6.457113   -2.664807   -3.173324
     55          1           0        8.340840   -3.125106   -5.253396
     56          1           0        7.293072   -1.912155   -5.884890
     57          1           0        8.345462    4.124932   -4.149995
     58          1           0        8.581239    5.664597   -3.415247
     59          1           0        6.921968    5.193911   -3.865348
     60          1           0        7.502609    7.300133   -2.329722
     61          1           0        6.194587    8.149644   -1.331780
     62          1           0        5.854377    6.726783   -2.352883
     63          1           0        6.923991    4.266027    4.237751
     64          1           0        8.485650    2.034345    5.441412
     65          1           0        8.772685    5.338370    4.971101
     66          1           0        9.697752    4.481998    3.690627
     67          1           0        9.613461    3.822235    5.241299
     68          1           0        6.416882    3.034084    6.484980
     69          1           0        6.457040    1.274687    6.457495
     70          1           0        4.932592    3.226100    4.903554
     71          1           0        4.324787    1.724540    5.679817
     72          1           0        5.220147    1.693580    4.094862
     73          1           0        7.332013   -4.081509    4.411057
     74          1           0        7.732304   -2.545197    5.258747
     75          1           0        9.049212   -3.451476    4.404361
     76          1           0        9.164502   -4.145477   -0.662644
     77          1           0        7.261647   -7.229179   -3.005595
     78          1           0        6.938484   -5.705347   -4.031865
     79          1           0        5.897627   -6.288993   -2.719727
     80         12           0       -8.285216    0.203690   -0.224554
     81          6           0       -5.936087   -2.501208   -0.014440
     82          6           0       -5.858885    1.989183   -1.824418
     83          6           0      -10.168066    2.749956   -0.027418
     84          6           0      -10.076266   -1.336315    2.337914
     85          7           0       -6.206812   -0.299957   -0.789205
     86          6           0       -5.442889   -1.379267   -0.712611
     87          6           0       -4.105133   -1.277128   -1.493341
     88          6           0       -3.958828    0.321973   -1.511545
     89          6           0       -5.433773    0.703605   -1.404091
     90          6           0       -3.232900    0.873763   -0.295862
     91          6           0       -4.214700   -1.860487   -2.945815
     92          6           0       -2.875885   -2.076082   -3.654938
     93          1           0       -2.738292   -3.222832   -4.548533
     94          7           0       -8.251017    1.907990   -1.240809
     95          6           0       -7.185075    2.474106   -1.844600
     96          6           0       -7.676820    3.727996   -2.436303
     97          6           0       -9.081786    3.936880   -1.992277
     98          6           0       -9.217547    2.860174   -1.031880
     99          6           0       -6.862457    4.551274   -3.391528
    100          6           0      -10.125700    4.947278   -2.360446
    101          8           0      -11.200101    5.085633   -1.675362
    102          6           0       -9.810844    5.833145   -3.490747
    103          7           0       -9.772555    0.756861    1.118641
    104          6           0      -10.473718    1.890981    0.945230
    105          6           0      -11.666488    1.941661    1.869950
    106          6           0      -11.757674    0.489450    2.533525
    107          6           0      -10.493546   -0.149811    1.918108
    108          6           0      -11.610592    3.001121    2.970322
    109          6           0      -13.108984   -0.263888    2.395315
    110          6           0      -13.349336   -0.631511    0.948777
    111          7           0       -8.177493   -1.674984    0.837061
    112          6           0       -9.010543   -2.107570    1.892035
    113          6           0       -8.476186   -3.400509    2.366585
    114          6           0       -7.346895   -3.621012    1.563735
    115          6           0       -7.176973   -2.531969    0.666732
    116          6           0       -9.000503   -4.173470    3.440710
    117          6           0       -6.253806   -4.522330    1.278286
    118          8           0       -5.932816   -5.646937    1.660329
    119          6           0       -5.218871   -3.777069    0.329655
    120          6           0       -4.867412   -4.709124   -0.797406
    121          8           0       -5.728709   -5.050987   -1.626801
    122          8           0       -3.532015   -4.868918   -0.836898
    123          6           0       -3.133412   -5.776595   -1.945519
    124          1           0       -5.101661    2.712189   -2.128961
    125          1           0      -10.909609    3.551321    0.009998
    126          1           0      -10.634564   -1.926936    3.067391
    127          1           0       -3.252890   -1.722826   -0.994520
    128          1           0       -3.542606    0.669821   -2.453419
    129          1           0       -3.038598    0.107310    0.439627
    130          1           0       -3.882924    1.635566    0.114237
    131          1           0       -2.319876    1.390897   -0.604560
    132          1           0       -4.655956   -1.101225   -3.604280
    133          1           0       -4.776056   -2.774547   -2.947950
    134          1           0       -2.028735   -2.026498   -2.960098
    135          1           0       -2.708623   -1.242541   -4.341413
    136          1           0       -5.811542    4.236741   -3.398819
    137          1           0       -6.837851    5.571567   -2.993698
    138          1           0       -7.288382    4.574132   -4.396879
    139          1           0       -8.896831    6.381709   -3.275939
    140          1           0      -10.712997    6.424605   -3.658601
    141          1           0       -9.607476    5.215892   -4.372926
    142          1           0      -12.577409    2.132743    1.316028
    143          1           0      -11.593411    0.527094    3.620467
    144          1           0      -12.470863    3.696559    2.950729
    145          1           0      -10.680038    3.544560    2.873957
    146          1           0      -11.546154    2.610646    3.984502
    147          1           0      -13.936486    0.385146    2.692221
    148          1           0      -13.168167   -1.159990    3.003987
    149          1           0      -13.775100    0.284682    0.528780
    150          1           0      -14.049118   -1.461571    0.875662
    151          1           0      -12.403453   -0.823789    0.429182
    152          1           0       -9.002378   -5.203865    3.110889
    153          1           0       -9.998980   -3.842324    3.718482
    154          1           0       -8.263801   -3.952602    4.217730
    155          1           0       -4.348307   -3.518498    0.933663
    156          1           0       -2.542082   -6.583153   -1.501143
    157          1           0       -2.628668   -5.133839   -2.691067
    158          1           0       -3.917525   -6.337329   -2.440703
 ---------------------------------------------------------------------

 SCF Done:  E(RCAM-B3LYP) =  -4069.81173130     A.U. after   19 cycles

 Excitation energies and oscillator strengths:

 Excited State   1:      Singlet-A      1.6691 eV  742.80 nm  f=0.0126  <S**2>=0.000
     309 -> 315       -0.10685
     310 -> 316       -0.13497
     311 -> 313       -0.42425
     312 -> 314        0.53960
 This state for optimization and/or second-order correction.
 Total Energy, E(TD-HF/TD-DFT) =  -4069.75039166
 Copying the excited state density for this state as the 1-particle RhoCI density.

 Excited State   2:      Singlet-A      1.6855 eV  735.57 nm  f=0.7410  <S**2>=0.000
     309 -> 315        0.13915
     310 -> 316       -0.10870
     311 -> 313        0.53871
     312 -> 314        0.42365

 Excited State   3:      Singlet-A      2.1853 eV  567.34 nm  f=0.0893  <S**2>=0.000
     310 -> 314        0.63731
     312 -> 316        0.27020

 Excited State   4:      Singlet-A      2.1926 eV  565.46 nm  f=0.1103  <S**2>=0.000
     309 -> 313        0.63527
     311 -> 315       -0.27616

 Excited State   5:      Singlet-A      2.7244 eV  455.09 nm  f=0.0000  <S**2>=0.000
     312 -> 313        0.70698

 The electronic state is 1-A.
 Alpha  occ. eigenvalues --  -46.87931 -46.87567 -19.26400 -19.26148 -19.19143
 Alpha  occ. eigenvalues --  -19.18994 -19.18960 -19.18642 -19.18279 -19.17929
 Alpha  occ. eigenvalues --  -14.42582 -14.42398 -14.41578 -14.41267 -14.39538
 Alpha  occ. eigenvalues --  -14.39260 -14.38716 -14.38504 -10.39201 -10.38922
 Alpha  occ. eigenvalues --  -10.35595 -10.35322 -10.34500 -10.34102 -10.31790
 Alpha  occ. eigenvalues --  -10.31530 -10.31526 -10.31201 -10.31045 -10.30918
 Alpha  occ. eigenvalues --  -10.30696 -10.30636 -10.30337 -10.30305 -10.30262
 Alpha  occ. eigenvalues --  -10.30060 -10.30042 -10.29803 -10.29759 -10.29387
 Alpha  occ. eigenvalues --  -10.29351 -10.29310 -10.28884 -10.28687 -10.28581
 Alpha  occ. eigenvalues --  -10.28500 -10.28496 -10.28306 -10.28245 -10.28014
 Alpha  occ. eigenvalues --  -10.27917 -10.27906 -10.27857 -10.27717 -10.27628
 Alpha  occ. eigenvalues --  -10.27615 -10.27574 -10.27564 -10.27533 -10.27446
 Alpha  occ. eigenvalues --  -10.27402 -10.27379 -10.27378 -10.27303 -10.27275
 Alpha  occ. eigenvalues --  -10.26906 -10.26860 -10.26573 -10.26559 -10.26362
 Alpha  occ. eigenvalues --  -10.26348 -10.26294 -10.26144 -10.26075 -10.25931
 Alpha  occ. eigenvalues --  -10.25882 -10.25846 -10.25759 -10.25538 -10.25332
 Alpha  occ. eigenvalues --  -10.24955 -10.24916 -10.24812 -10.24774 -10.24670
 Alpha  occ. eigenvalues --  -10.24599  -3.16675  -3.16317  -1.91557  -1.91199
 Alpha  occ. eigenvalues --   -1.91143  -1.90985  -1.90788  -1.90625  -1.16749
 Alpha  occ. eigenvalues --   -1.16450  -1.08735  -1.08529  -1.07362  -1.06896
 Alpha  occ. eigenvalues --   -1.06775  -1.06763  -1.04713  -1.04394  -1.03890
 Alpha  occ. eigenvalues --   -1.03568  -1.03364  -1.02948  -1.02540  -1.02017
 Alpha  occ. eigenvalues --   -0.92097  -0.91876  -0.89642  -0.89408  -0.89320
 Alpha  occ. eigenvalues --   -0.89026  -0.88407  -0.88139  -0.87984  -0.87804
 Alpha  occ. eigenvalues --   -0.87698  -0.87584  -0.87414  -0.87042  -0.85115
 Alpha  occ. eigenvalues --   -0.84884  -0.84054  -0.83792  -0.83109  -0.82860
 Alpha  occ. eigenvalues --   -0.82780  -0.82541  -0.81706  -0.81455  -0.80724
 Alpha  occ. eigenvalues --   -0.80322  -0.78929  -0.78550  -0.77344  -0.77059
 Alpha  occ. eigenvalues --   -0.77042  -0.76774  -0.76046  -0.75710  -0.75015
 Alpha  occ. eigenvalues --   -0.74710  -0.72897  -0.72604  -0.71795  -0.71476
 Alpha  occ. eigenvalues --   -0.70026  -0.69682  -0.69005  -0.68715  -0.67769
 Alpha  occ. eigenvalues --   -0.67501  -0.67362  -0.67089  -0.65417  -0.65148
 Alpha  occ. eigenvalues --   -0.64978  -0.64747  -0.64665  -0.64531  -0.64392
 Alpha  occ. eigenvalues --   -0.64114  -0.62417  -0.62131  -0.60576  -0.60258
 Alpha  occ. eigenvalues --   -0.59934  -0.59680  -0.59112  -0.58891  -0.58628
 Alpha  occ. eigenvalues --   -0.58319  -0.57703  -0.57433  -0.57418  -0.57141
 Alpha  occ. eigenvalues --   -0.56434  -0.56106  -0.56101  -0.55737  -0.55651
 Alpha  occ. eigenvalues --   -0.55456  -0.55343  -0.55141  -0.54641  -0.54367
 Alpha  occ. eigenvalues --   -0.54028  -0.53789  -0.53429  -0.53354  -0.53132
 Alpha  occ. eigenvalues --   -0.53041  -0.53029  -0.52897  -0.52781  -0.52580
 Alpha  occ. eigenvalues --   -0.52557  -0.52325  -0.52020  -0.51787  -0.51752
 Alpha  occ. eigenvalues --   -0.51544  -0.51316  -0.51089  -0.50720  -0.50406
 Alpha  occ. eigenvalues --   -0.50154  -0.50055  -0.49884  -0.49787  -0.49648
 Alpha  occ. eigenvalues --   -0.49389  -0.49339  -0.49219  -0.49092  -0.48983
 Alpha  occ. eigenvalues --   -0.48712  -0.48591  -0.48568  -0.48435  -0.48290
 Alpha  occ. eigenvalues --   -0.48244  -0.47824  -0.47489  -0.47424  -0.47025
 Alpha  occ. eigenvalues --   -0.46921  -0.46688  -0.46610  -0.46484  -0.46437
 Alpha  occ. eigenvalues --   -0.46280  -0.46176  -0.45980  -0.45933  -0.45694
 Alpha  occ. eigenvalues --   -0.45320  -0.45122  -0.44696  -0.44641  -0.44397
 Alpha  occ. eigenvalues --   -0.44368  -0.44272  -0.44217  -0.44144  -0.44017
 Alpha  occ. eigenvalues --   -0.43985  -0.43835  -0.43613  -0.43514  -0.43415
 Alpha  occ. eigenvalues --   -0.43272  -0.43149  -0.42819  -0.42811  -0.42774
 Alpha  occ. eigenvalues --   -0.42749  -0.42473  -0.42133  -0.41867  -0.41826
 Alpha  occ. eigenvalues --   -0.41666  -0.41558  -0.41347  -0.41265  -0.41001
 Alpha  occ. eigenvalues --   -0.40967  -0.40884  -0.40692  -0.40632  -0.40595
 Alpha  occ. eigenvalues --   -0.40401  -0.40380  -0.40100  -0.39562  -0.39352
 Alpha  occ. eigenvalues --   -0.38591  -0.38263  -0.37888  -0.37533  -0.37444
 Alpha  occ. eigenvalues --   -0.37398  -0.37174  -0.37087  -0.36832  -0.36616
 Alpha  occ. eigenvalues --   -0.36315  -0.36103  -0.34414  -0.34155  -0.33895
 Alpha  occ. eigenvalues --   -0.33710  -0.33315  -0.33078  -0.31489  -0.31201
 Alpha  occ. eigenvalues --   -0.31164  -0.30874  -0.30138  -0.29829  -0.29583
 Alpha  occ. eigenvalues --   -0.29445  -0.29239  -0.29114  -0.24210  -0.23939
 Alpha  occ. eigenvalues --   -0.21256  -0.21023
 Alpha virt. eigenvalues --   -0.08904  -0.08698  -0.01881  -0.01592  -0.00194
 Alpha virt. eigenvalues --    0.00061   0.02081   0.02312   0.02947   0.03312
 Alpha virt. eigenvalues --    0.04586   0.04837   0.04978   0.05328   0.06039

 Mulliken charges:
               1
     1  Mg   0.837937
     2  C   -0.003154
     3  C   -0.094359
     4  C   -0.045938
     5  C   -0.063812
     6  N   -0.256786
     7  C   -0.052530
     8  C   -0.013930
     9  C   -0.086932
    10  C    0.046082
    11  C    0.104754
    12  C    0.053556
    13  C   -0.071744
    14  H    0.035833
    15  N   -0.433129
    16  C    0.168061
    17  C   -0.177402
    18  C   -0.004252
    19  C    0.148454
    20  C    0.110178
    21  C    0.011887
    22  O   -0.249585
    23  C    0.062698
    24  N   -0.341102
    25  C    0.041164
    26  C   -0.028199
    27  C   -0.024067
    28  C    0.074809
    29  C    0.076098
    30  C    0.035082
    31  C   -0.004532
    32  N   -0.310578
    33  C    0.080446
    34  C   -0.169363
    35  C    0.008617
    36  C    0.082895
    37  C    0.127222
    38  C    0.046307
    39  O   -0.187738
    40  C   -0.005385
    41  C    0.213110
    42  O   -0.257519
    43  O   -0.304654
    44  C    0.157638
    45  H   -0.017514
    46  H   -0.016793
    47  H   -0.041062
    48  H    0.001243
    49  H   -0.004180
    50  H    0.025667
    51  H    0.016566
    52  H    0.016827
    53  H    0.010588
    54  H    0.043772
    55  H    0.018340
    56  H    0.017842
    57  H    0.005922
    58  H    0.027046
    59  H    0.038822
    60  H    0.037656
    61  H    0.035570
    62  H    0.030656
    63  H    0.016421
    64  H    0.009800
    65  H    0.023323
    66  H    0.012621
    67  H    0.005019
    68  H    0.006624
    69  H    0.005162
    70  H    0.008529
    71  H    0.018441
    72  H    0.028500
    73  H    0.048131
    74  H    0.009382
    75  H    0.046297
    76  H    0.035446
    77  H    0.043455
    78  H    0.046256
    79  H    0.053486
    80  Mg   0.837695
    81  C   -0.016833
    82  C   -0.087829
    83  C   -0.045658
    84  C   -0.065081
    85  N   -0.254581
    86  C   -0.049706
    87  C   -0.015234
    88  C   -0.090450
    89  C    0.045778
    90  C    0.114456
    91  C    0.062564
    92  C   -0.077957
    93  H    0.034541
    94  N   -0.423464
    95  C    0.162811
    96  C   -0.174757
    97  C   -0.008011
    98  C    0.152054
    99  C    0.099458
   100  C    0.015434
   101  O   -0.253404
   102  C    0.061260
   103  N   -0.350081
   104  C    0.037454
   105  C   -0.019794
   106  C   -0.034810
   107  C    0.088996
   108  C    0.073731
   109  C    0.034791
   110  C   -0.007641
   111  N   -0.324167
   112  C    0.078568
   113  C   -0.163225
   114  C    0.002457
   115  C    0.096122
   116  C    0.131498
   117  C    0.042373
   118  O   -0.187223
   119  C    0.001062
   120  C    0.211229
   121  O   -0.251605
   122  O   -0.304883
   123  C    0.152158
   124  H   -0.019860
   125  H   -0.015825
   126  H   -0.040598
   127  H    0.000801
   128  H   -0.004693
   129  H    0.023202
   130  H    0.014057
   131  H    0.016399
   132  H    0.013300
   133  H    0.037612
   134  H    0.022623
   135  H    0.018688
   136  H    0.008537
   137  H    0.025909
   138  H    0.039383
   139  H    0.038129
   140  H    0.036137
   141  H    0.033725
   142  H    0.014226
   143  H    0.012334
   144  H    0.024923
   145  H    0.011653
   146  H    0.005552
   147  H    0.006081
   148  H    0.003605
   149  H    0.010823
   150  H    0.017801
   151  H    0.030212
   152  H    0.046063
   153  H    0.008302
   154  H    0.047088
   155  H    0.036047
   156  H    0.045154
   157  H    0.049747
   158  H    0.052767
 Sum of Mulliken charges =  -0.00000

 Dipole moment (field-independent basis, Debye):
    X=              4.5862    Y=              6.0187    Z=             -4.1962  Tot=              8.6525
 Quadrupole moment (field-independent basis, Debye-Ang):
   XX=           -500.8041   YY=           -566.0228   ZZ=           -456.9149
   XY=              6.1942   XZ=            -41.2062   YZ=             -0.0052

 Normal termination of Gaussian 16 at Sun Sep 12 03:56:38 2021.
