 Gaussian 16, Revision A.03,
 Gaussian 16:  ES64L-G16RevA.03 25-Dec-2016

 -----------------------------------
 #p cam-b3lyp/Def2SVP td=(nstates=5)
 -----------------------------------

 --------------------------------
 TDDFT excited states in gaussian
 --------------------------------
 Symbolic Z-matrix:
 Charge =  0 Multiplicity = 1

                         Standard orientation:
 ---------------------------------------------------------------------
 Center     Atomic      Atomic             Coordinates (Angstroms)
 Number     Number       Type             X           Y           Z
 ---------------------------------------------------------------------
      1         12           0        4.329662   -0.577086    0.558551
      2          6           0        4.920477    2.342964   -1.425499
      3          6           0        5.345149    1.237449    3.263974
      4          6           0        4.251090   -3.258474    2.249885
      5          6           0        4.460797   -2.427851   -2.391556
      6          7           0        5.019398    1.516221    0.765851
      7          6           0        5.143194    2.548805   -0.062168
      8          6           0        5.458660    3.889849    0.665469
      9          6           0        6.114168    3.305952    1.996398
     10          6           0        5.426536    1.952512    2.032271
     11          6           0        7.620160    3.089068    1.889378
     12          6           0        4.165276    4.715111    0.978253
     13          6           0        4.402648    6.171438    1.388278
     14          1           0        3.446565    7.183080    0.964211
     15          7           0        4.264953   -0.857593    2.513028
     16          6           0        4.708350   -0.005734    3.468550
     17          6           0        4.437147   -0.667940    4.762618
     18          6           0        3.974004   -2.054135    4.476160
     19          6           0        4.172394   -2.121662    3.050867
     20          6           0        4.575432    0.022068    6.084933
     21          6           0        3.447583   -3.148405    5.349994
     22          8           0        3.322121   -4.350607    4.933409
     23          6           0        3.162172   -2.790297    6.751187
     24          7           0        4.570292   -2.586482    0.046630
     25          6           0        4.429863   -3.552986    0.960486
     26          6           0        4.364626   -4.906758    0.317847
     27          6           0        4.245466   -4.645199   -1.252866
     28          6           0        4.351191   -3.100206   -1.243517
     29          6           0        5.555520   -5.835642    0.591628
     30          6           0        3.046512   -5.298034   -1.985489
     31          6           0        1.754472   -4.663405   -1.521834
     32          7           0        4.457178   -0.136280   -1.562881
     33          6           0        4.521346   -1.062314   -2.614078
     34          6           0        4.707458   -0.292093   -3.857537
     35          6           0        4.755551    1.036118   -3.438743
     36          6           0        4.635102    1.090275   -2.020698
     37          6           0        4.866648   -0.839682   -5.161085
     38          6           0        4.905384    2.420504   -3.856934
     39          8           0        4.950908    2.997854   -4.944172
     40          6           0        5.140398    3.313249   -2.559397
     41          6           0        4.224610    4.503050   -2.654344
     42          8           0        2.986184    4.363992   -2.588535
     43          8           0        4.948809    5.629420   -2.568511
     44          6           0        4.097312    6.847515   -2.626403
     45          1           0        5.864838    1.632596    4.139030
     46          1           0        4.116833   -4.201821    2.783278
     47          1           0        4.425594   -2.931642   -3.359238
     48          1           0        6.173453    4.530277    0.148414
     49          1           0        5.843302    3.891997    2.874409
     50          1           0        7.974567    3.250463    0.871406
     51          1           0        7.787477    2.054972    2.191279
     52          1           0        8.152569    3.703255    2.616077
     53          1           0        3.709936    4.336581    1.893371
     54          1           0        3.475544    4.686105    0.134005
     55          1           0        5.420688    6.488733    1.160623
     56          1           0        4.335318    6.235794    2.474338
     57          1           0        5.090654    0.976747    5.986559
     58          1           0        5.244556   -0.586304    6.693099
     59          1           0        3.616880    0.133261    6.592029
     60          1           0        4.074049   -2.421443    7.221268
     61          1           0        2.710021   -3.673442    7.201148
     62          1           0        2.452819   -1.962329    6.766556
     63          1           0        3.488120   -5.458165    0.655653
     64          1           0        5.118502   -5.008669   -1.795427
     65          1           0        5.273194   -6.789830    1.037187
     66          1           0        6.260950   -5.300853    1.226971
     67          1           0        6.172441   -6.056628   -0.278999
     68          1           0        2.987185   -6.358945   -1.744876
     69          1           0        3.103448   -5.206656   -3.070228
     70          1           0        1.529648   -5.209753   -0.606526
     71          1           0        0.970690   -4.809012   -2.265942
     72          1           0        1.899731   -3.617748   -1.249831
     73          1           0        4.250580   -0.232568   -5.824292
     74          1           0        4.566573   -1.886927   -5.190011
     75          1           0        5.938893   -0.708403   -5.305695
     76          1           0        6.190563    3.603507   -2.564607
     77          1           0        4.471680    7.462229   -3.445066
     78          1           0        4.105045    7.278864   -1.625262
     79          1           0        3.062818    6.698148   -2.937612
     80         12           0       -4.596545    0.437641    0.320808
     81          6           0       -4.065121   -1.641000   -2.555977
     82          6           0       -4.988510   -2.426054    2.131949
     83          6           0       -5.511306    2.231506    2.772885
     84          6           0       -5.292852    3.055418   -1.871930
     85          7           0       -4.513889   -1.697497   -0.250670
     86          6           0       -4.243470   -2.367945   -1.360502
     87          6           0       -4.080020   -3.898955   -1.163397
     88          6           0       -4.944295   -4.062058    0.180209
     89          6           0       -4.781763   -2.653515    0.747883
     90          6           0       -6.421697   -4.304504   -0.080267
     91          6           0       -2.584289   -4.316329   -0.938460
     92          6           0       -2.312448   -5.818345   -1.047132
     93          1           0       -1.043320   -6.256227   -1.621636
     94          7           0       -4.685934    0.015673    2.257950
     95          6           0       -4.823221   -1.203730    2.819644
     96          6           0       -4.856578   -0.975944    4.272628
     97          6           0       -4.893493    0.491646    4.516631
     98          6           0       -5.056237    0.980083    3.161994
     99          6           0       -4.771544   -2.091627    5.273340
    100          6           0       -4.810552    1.318101    5.764144
    101          8           0       -5.103114    2.565994    5.765829
    102          6           0       -4.467081    0.603570    7.002279
    103          7           0       -5.505041    2.303787    0.441136
    104          6           0       -5.745900    2.879940    1.631914
    105          6           0       -6.147888    4.326152    1.466804
    106          6           0       -5.891545    4.670116   -0.073826
    107          6           0       -5.450690    3.277029   -0.574181
    108          6           0       -7.595023    4.659829    1.828527
    109          6           0       -4.978396    5.888665   -0.380389
    110          6           0       -3.560315    5.592585    0.051760
    111          7           0       -4.495363    0.746012   -1.815251
    112          6           0       -4.858125    1.910365   -2.527111
    113          6           0       -4.723914    1.600874   -3.965376
    114          6           0       -4.311223    0.260166   -3.991255
    115          6           0       -4.215820   -0.237257   -2.663484
    116          6           0       -5.017979    2.488789   -5.038340
    117          6           0       -3.944844   -0.850566   -4.840220
    118          8           0       -3.759991   -0.996919   -6.047763
    119          6           0       -3.891260   -2.168409   -3.953206
    120          6           0       -2.612870   -2.892959   -4.274573
    121          8           0       -1.511958   -2.386902   -3.994399
    122          8           0       -2.903031   -4.149607   -4.657995
    123          6           0       -1.666354   -4.911695   -4.976863
    124          1           0       -5.352633   -3.251226    2.744627
    125          1           0       -5.734392    2.925952    3.586185
    126          1           0       -5.396962    3.847698   -2.616334
    127          1           0       -4.503651   -4.506545   -1.954063
    128          1           0       -4.501071   -4.795911    0.848326
    129          1           0       -6.667116   -4.209118   -1.127557
    130          1           0       -6.949031   -3.559656    0.501262
    131          1           0       -6.722322   -5.273758    0.327768
    132          1           0       -2.321636   -4.153581    0.114751
    133          1           0       -1.935366   -3.782499   -1.605211
    134          1           0       -3.149279   -6.356339   -1.508886
    135          1           0       -2.250787   -6.233713   -0.038324
    136          1           0       -4.920347   -3.069567    4.799098
    137          1           0       -5.628605   -1.983124    5.946797
    138          1           0       -3.852699   -2.059689    5.862724
    139          1           0       -5.201815   -0.177114    7.184380
    140          1           0       -4.368248    1.375870    7.767563
    141          1           0       -3.503290    0.101870    6.860805
    142          1           0       -5.529659    4.971636    2.078567
    143          1           0       -6.827653    4.910828   -0.598802
    144          1           0       -7.681374    5.445557    2.602636
    145          1           0       -8.083998    3.750915    2.153070
    146          1           0       -8.219458    4.972550    0.993379
    147          1           0       -5.302822    6.759250    0.194927
    148          1           0       -4.978170    6.175877   -1.426572
    149          1           0       -3.574375    5.825430    1.120717
    150          1           0       -2.856633    6.228601   -0.481508
    151          1           0       -3.332573    4.525157   -0.050122
    152          1           0       -4.216766    2.383891   -5.757758
    153          1           0       -5.109411    3.515759   -4.690874
    154          1           0       -5.976205    2.081367   -5.371630
    155          1           0       -4.771815   -2.763793   -4.197549
    156          1           0       -1.779149   -5.291354   -5.997064
    157          1           0       -1.560400   -5.660543   -4.169551
    158          1           0       -0.741127   -4.353584   -5.059981
 ---------------------------------------------------------------------

 SCF Done:  E(RCAM-B3LYP) =  -4069.81142849     A.U. after   19 cycles

 Excitation energies and oscillator strengths:

 Excited State   1:      Singlet-A      1.6463 eV  753.10 nm  f=0.0042  <S**2>=0.000
     309 -> 316       -0.12075
     310 -> 315        0.11355
     311 -> 313        0.50180
     312 -> 314        0.47014
 This state for optimization and/or second-order correction.
 Total Energy, E(TD-HF/TD-DFT) =  -4069.75092719
 Copying the excited state density for this state as the 1-particle RhoCI density.

 Excited State   2:      Singlet-A      1.7029 eV  728.08 nm  f=0.6970  <S**2>=0.000
     309 -> 316        0.12306
     310 -> 315        0.13187
     311 -> 313       -0.46788
     312 -> 314        0.49918

 Excited State   3:      Singlet-A      2.1805 eV  568.61 nm  f=0.0173  <S**2>=0.000
     309 -> 313        0.53777
     310 -> 314        0.35567
     311 -> 316        0.22381
     312 -> 315       -0.14760

 Excited State   4:      Singlet-A      2.1936 eV  565.20 nm  f=0.1610  <S**2>=0.000
     309 -> 313       -0.35195
     310 -> 314        0.53316
     311 -> 316       -0.15425
     312 -> 315       -0.23409

 Excited State   5:      Singlet-A      2.4572 eV  504.57 nm  f=0.0000  <S**2>=0.000
     312 -> 313        0.70698

 The electronic state is 1-A.
 Alpha  occ. eigenvalues --  -46.87565 -46.87491 -19.26338 -19.26072 -19.19102
 Alpha  occ. eigenvalues --  -19.18778 -19.18709 -19.18622 -19.17917 -19.17888
 Alpha  occ. eigenvalues --  -14.42336 -14.42227 -14.41236 -14.41194 -14.39193
 Alpha  occ. eigenvalues --  -14.39188 -14.38419 -14.38330 -10.39020 -10.38842
 Alpha  occ. eigenvalues --  -10.35350 -10.35305 -10.34136 -10.34069 -10.31854
 Alpha  occ. eigenvalues --  -10.31502 -10.31159 -10.31135 -10.30884 -10.30716
 Alpha  occ. eigenvalues --  -10.30315 -10.30275 -10.30230 -10.30180 -10.30023
 Alpha  occ. eigenvalues --  -10.29988 -10.29724 -10.29696 -10.29397 -10.29278
 Alpha  occ. eigenvalues --  -10.29235 -10.29042 -10.28589 -10.28555 -10.28542
 Alpha  occ. eigenvalues --  -10.28368 -10.28247 -10.28143 -10.27993 -10.27916
 Alpha  occ. eigenvalues --  -10.27832 -10.27558 -10.27504 -10.27503 -10.27374
 Alpha  occ. eigenvalues --  -10.27358 -10.27353 -10.27332 -10.27331 -10.27326
 Alpha  occ. eigenvalues --  -10.27312 -10.27311 -10.27231 -10.27181 -10.26928
 Alpha  occ. eigenvalues --  -10.26927 -10.26560 -10.26513 -10.26390 -10.26386
 Alpha  occ. eigenvalues --  -10.26055 -10.26051 -10.25949 -10.25896 -10.25784
 Alpha  occ. eigenvalues --  -10.25758 -10.25614 -10.25501 -10.25330 -10.25282
 Alpha  occ. eigenvalues --  -10.24699 -10.24586 -10.24583 -10.24534 -10.24492
 Alpha  occ. eigenvalues --  -10.24466  -3.16307  -3.16241  -1.91188  -1.91123
 Alpha  occ. eigenvalues --   -1.90776  -1.90712  -1.90617  -1.90548  -1.16619
 Alpha  occ. eigenvalues --   -1.16416  -1.08499  -1.08370  -1.07119  -1.06881
 Alpha  occ. eigenvalues --   -1.06879  -1.06404  -1.04360  -1.04336  -1.03547
 Alpha  occ. eigenvalues --   -1.03502  -1.03004  -1.02872  -1.02184  -1.01943
 Alpha  occ. eigenvalues --   -0.91835  -0.91741  -0.89329  -0.89328  -0.89007
 Alpha  occ. eigenvalues --   -0.88986  -0.88109  -0.88060  -0.87603  -0.87597
 Alpha  occ. eigenvalues --   -0.87522  -0.87458  -0.87103  -0.86991  -0.84860
 Alpha  occ. eigenvalues --   -0.84787  -0.83760  -0.83720  -0.82851  -0.82827
 Alpha  occ. eigenvalues --   -0.82533  -0.82466  -0.81507  -0.81371  -0.80394
 Alpha  occ. eigenvalues --   -0.80327  -0.78594  -0.78482  -0.77021  -0.76988
 Alpha  occ. eigenvalues --   -0.76784  -0.76736  -0.75721  -0.75715  -0.74723
 Alpha  occ. eigenvalues --   -0.74666  -0.72545  -0.72529  -0.71472  -0.71439
 Alpha  occ. eigenvalues --   -0.69731  -0.69581  -0.68691  -0.68678  -0.67461
 Alpha  occ. eigenvalues --   -0.67439  -0.67074  -0.67040  -0.65137  -0.65079
 Alpha  occ. eigenvalues --   -0.64638  -0.64632  -0.64529  -0.64425  -0.64078
 Alpha  occ. eigenvalues --   -0.64047  -0.62197  -0.62089  -0.60268  -0.60201
 Alpha  occ. eigenvalues --   -0.59646  -0.59593  -0.58841  -0.58775  -0.58293
 Alpha  occ. eigenvalues --   -0.58283  -0.57436  -0.57351  -0.57120  -0.57093
 Alpha  occ. eigenvalues --   -0.56096  -0.56061  -0.55821  -0.55778  -0.55353
 Alpha  occ. eigenvalues --   -0.55339  -0.55153  -0.55113  -0.54369  -0.54335
 Alpha  occ. eigenvalues --   -0.53775  -0.53696  -0.53128  -0.53096  -0.53033
 Alpha  occ. eigenvalues --   -0.53012  -0.52786  -0.52717  -0.52606  -0.52566
 Alpha  occ. eigenvalues --   -0.52259  -0.52216  -0.51680  -0.51619  -0.51538
 Alpha  occ. eigenvalues --   -0.51424  -0.51061  -0.50975  -0.50454  -0.50366
 Alpha  occ. eigenvalues --   -0.49934  -0.49798  -0.49764  -0.49713  -0.49373
 Alpha  occ. eigenvalues --   -0.49331  -0.49075  -0.49006  -0.48959  -0.48894
 Alpha  occ. eigenvalues --   -0.48438  -0.48375  -0.48315  -0.48257  -0.48236
 Alpha  occ. eigenvalues --   -0.48230  -0.47515  -0.47470  -0.47113  -0.46991
 Alpha  occ. eigenvalues --   -0.46593  -0.46549  -0.46425  -0.46362  -0.46151
 Alpha  occ. eigenvalues --   -0.46122  -0.45942  -0.45938  -0.45695  -0.45574
 Alpha  occ. eigenvalues --   -0.45075  -0.45032  -0.44393  -0.44379  -0.44342
 Alpha  occ. eigenvalues --   -0.44294  -0.44013  -0.43956  -0.43921  -0.43899
 Alpha  occ. eigenvalues --   -0.43828  -0.43808  -0.43468  -0.43277  -0.43250
 Alpha  occ. eigenvalues --   -0.43194  -0.42856  -0.42815  -0.42755  -0.42507
 Alpha  occ. eigenvalues --   -0.42456  -0.42387  -0.41812  -0.41788  -0.41518
 Alpha  occ. eigenvalues --   -0.41495  -0.41340  -0.41317  -0.40946  -0.40844
 Alpha  occ. eigenvalues --   -0.40719  -0.40680  -0.40618  -0.40570  -0.40389
 Alpha  occ. eigenvalues --   -0.40335  -0.40101  -0.40054  -0.39294  -0.39217
 Alpha  occ. eigenvalues --   -0.38298  -0.38182  -0.37564  -0.37484  -0.37137
 Alpha  occ. eigenvalues --   -0.37097  -0.37051  -0.37040  -0.36701  -0.36492
 Alpha  occ. eigenvalues --   -0.36081  -0.35980  -0.34090  -0.34055  -0.33776
 Alpha  occ. eigenvalues --   -0.33530  -0.33014  -0.32956  -0.31239  -0.31180
 Alpha  occ. eigenvalues --   -0.30823  -0.30821  -0.29794  -0.29773  -0.29245
 Alpha  occ. eigenvalues --   -0.29176  -0.29060  -0.29030  -0.23872  -0.23853
 Alpha  occ. eigenvalues --   -0.20951  -0.20900
 Alpha virt. eigenvalues --   -0.08630  -0.08553  -0.01542  -0.01528   0.00102
 Alpha virt. eigenvalues --    0.00118   0.02368   0.02437   0.02989   0.03872
 Alpha virt. eigenvalues --    0.04759   0.04944   0.05231   0.05332   0.05890

 Mulliken charges:
               1
     1  Mg   0.840444
     2  C   -0.002894
     3  C   -0.094199
     4  C   -0.046554
     5  C   -0.061038
     6  N   -0.256674
     7  C   -0.052248
     8  C   -0.014081
     9  C   -0.086933
    10  C    0.045964
    11  C    0.104961
    12  C    0.053472
    13  C   -0.071430
    14  H    0.035452
    15  N   -0.432785
    16  C    0.167823
    17  C   -0.177810
    18  C   -0.005033
    19  C    0.148343
    20  C    0.110349
    21  C    0.011027
    22  O   -0.251411
    23  C    0.063015
    24  N   -0.341219
    25  C    0.041118
    26  C   -0.027868
    27  C   -0.023514
    28  C    0.074896
    29  C    0.076510
    30  C    0.034794
    31  C   -0.009169
    32  N   -0.311473
    33  C    0.083437
    34  C   -0.165273
    35  C    0.008579
    36  C    0.085023
    37  C    0.127095
    38  C    0.047573
    39  O   -0.187743
    40  C   -0.006000
    41  C    0.212804
    42  O   -0.255874
    43  O   -0.305029
    44  C    0.157950
    45  H   -0.018298
    46  H   -0.018326
    47  H   -0.041083
    48  H    0.000700
    49  H   -0.004323
    50  H    0.025222
    51  H    0.016248
    52  H    0.016129
    53  H    0.011481
    54  H    0.044408
    55  H    0.017592
    56  H    0.017943
    57  H    0.005856
    58  H    0.025930
    59  H    0.038367
    60  H    0.037757
    61  H    0.033648
    62  H    0.030212
    63  H    0.015276
    64  H    0.008864
    65  H    0.021894
    66  H    0.012578
    67  H    0.004397
    68  H    0.003167
    69  H    0.003749
    70  H    0.006571
    71  H    0.022615
    72  H    0.034998
    73  H    0.050797
    74  H    0.009787
    75  H    0.044729
    76  H    0.034616
    77  H    0.042579
    78  H    0.045943
    79  H    0.053411
    80  Mg   0.838810
    81  C   -0.016771
    82  C   -0.087243
    83  C   -0.045732
    84  C   -0.064044
    85  N   -0.254522
    86  C   -0.049834
    87  C   -0.016135
    88  C   -0.090246
    89  C    0.045448
    90  C    0.114462
    91  C    0.062212
    92  C   -0.080397
    93  H    0.034059
    94  N   -0.423299
    95  C    0.162594
    96  C   -0.174981
    97  C   -0.008547
    98  C    0.151948
    99  C    0.099597
   100  C    0.014788
   101  O   -0.253978
   102  C    0.061668
   103  N   -0.350144
   104  C    0.037480
   105  C   -0.019571
   106  C   -0.034969
   107  C    0.089265
   108  C    0.073887
   109  C    0.034680
   110  C   -0.007482
   111  N   -0.324644
   112  C    0.079897
   113  C   -0.160743
   114  C    0.002614
   115  C    0.097562
   116  C    0.131098
   117  C    0.043735
   118  O   -0.187570
   119  C    0.000081
   120  C    0.210783
   121  O   -0.249828
   122  O   -0.305327
   123  C    0.150106
   124  H   -0.019944
   125  H   -0.016276
   126  H   -0.039869
   127  H   -0.001240
   128  H   -0.003899
   129  H    0.022119
   130  H    0.014329
   131  H    0.015992
   132  H    0.015450
   133  H    0.039513
   134  H    0.019881
   135  H    0.020478
   136  H    0.009262
   137  H    0.025449
   138  H    0.039170
   139  H    0.038513
   140  H    0.035167
   141  H    0.032663
   142  H    0.013888
   143  H    0.012081
   144  H    0.024446
   145  H    0.011403
   146  H    0.005427
   147  H    0.005141
   148  H    0.004187
   149  H    0.009129
   150  H    0.019418
   151  H    0.032104
   152  H    0.048141
   153  H    0.009105
   154  H    0.046127
   155  H    0.034647
   156  H    0.043991
   157  H    0.049133
   158  H    0.054294
 Sum of Mulliken charges =  -0.00000

 Dipole moment (field-independent basis, Debye):
    X=              0.3103    Y=             -1.6487    Z=              6.4109  Tot=              6.6268
 Quadrupole moment (field-independent basis, Debye-Ang):
   XX=           -485.6911   YY=           -465.2571   ZZ=           -536.4189
   XY=             14.0833   XZ=             15.3390   YZ=             15.0981

 Normal termination of Gaussian 16 at Thu Sep  9 18:41:29 2021.
