 Gaussian 16, Revision A.03,
 Gaussian 16:  ES64L-G16RevA.03 25-Dec-2016

 -----------------------------------
 #p cam-b3lyp/Def2SVP td=(nstates=5)
 -----------------------------------

 --------------------------------
 TDDFT excited states in gaussian
 --------------------------------
 Symbolic Z-matrix:
 Charge =  0 Multiplicity = 1

                         Standard orientation:
 ---------------------------------------------------------------------
 Center     Atomic      Atomic             Coordinates (Angstroms)
 Number     Number       Type             X           Y           Z
 ---------------------------------------------------------------------
      1         12           0        4.345703   -0.869444    0.539770
      2          6           0        5.102446    1.616371   -1.921994
      3          6           0        5.618874    1.268614    2.874467
      4          6           0        4.107501   -3.215626    2.659984
      5          6           0        4.201241   -3.187206   -2.058840
      6          7           0        5.218358    1.158282    0.374095
      7          6           0        5.396152    2.024077   -0.618860
      8          6           0        5.853137    3.432999   -0.135665
      9          6           0        6.509399    3.020663    1.257639
     10          6           0        5.711358    1.759593    1.538271
     11          6           0        7.986061    2.653859    1.150749
     12          6           0        4.648009    4.412112    0.066159
     13          6           0        5.024333    5.888728    0.218934
     14          1           0        4.141381    6.898416   -0.345222
     15          7           0        4.335602   -0.815524    2.514571
     16          6           0        4.887544    0.139154    3.301486
     17          6           0        4.613061   -0.272439    4.695018
     18          6           0        4.022854   -1.639323    4.657885
     19          6           0        4.157660   -1.959510    3.259785
     20          6           0        4.862163    0.611585    5.878319
     21          6           0        3.440807   -2.521727    5.716524
     22          8           0        3.197206   -3.759978    5.511665
     23          6           0        3.243064   -1.912300    7.044130
     24          7           0        4.394256   -2.949267    0.367688
     25          6           0        4.208943   -3.734456    1.434516
     26          6           0        4.003400   -5.164420    1.030914
     27          6           0        3.844176   -5.156803   -0.557904
     28          6           0        4.080943   -3.647543   -0.811568
     29          6           0        5.121144   -6.138934    1.427122
     30          6           0        2.565813   -5.810850   -1.139651
     31          6           0        1.351872   -4.994095   -0.757086
     32          7           0        4.425267   -0.799253   -1.628130
     33          6           0        4.368530   -1.888483   -2.509625
     34          6           0        4.569489   -1.354745   -3.869333
     35          6           0        4.746846    0.014610   -3.681570
     36          6           0        4.688212    0.313424   -2.290324
     37          6           0        4.629388   -2.122683   -5.065627
     38          6           0        4.996803    1.291384   -4.330590
     39          8           0        5.047668    1.674278   -5.500333
     40          6           0        5.358425    2.361664   -3.208290
     41          6           0        4.543867    3.597154   -3.479154
     42          8           0        3.301732    3.583403   -3.359669
     43          8           0        5.363907    4.652073   -3.602537
     44          6           0        4.617240    5.915675   -3.843273
     45          1           0        6.204791    1.754562    3.657089
     46          1           0        3.915089   -4.041614    3.347851
     47          1           0        4.084749   -3.838964   -2.926649
     48          1           0        6.598467    3.911744   -0.771048
     49          1           0        6.324569    3.766016    2.030950
     50          1           0        8.311911    2.611814    0.111531
     51          1           0        8.076937    1.673177    1.618188
     52          1           0        8.597303    3.329207    1.749970
     53          1           0        4.199130    4.233013    1.043141
     54          1           0        3.925108    4.306201   -0.743484
     55          1           0        6.055714    6.070642   -0.084498
     56          1           0        5.006178    6.137800    1.279987
     57          1           0        5.452211    1.486286    5.607605
     58          1           0        5.501010    0.054338    6.563198
     59          1           0        3.937548    0.891353    6.383443
     60          1           0        4.201017   -1.554655    7.422236
     61          1           0        2.735935   -2.664248    7.647657
     62          1           0        2.607730   -1.032542    6.937707
     63          1           0        3.097462   -5.570800    1.478749
     64          1           0        4.660822   -5.682462   -1.053329
     65          1           0        4.776885   -6.976726    2.033995
     66          1           0        5.894252   -5.572317    1.945331
     67          1           0        5.681783   -6.555829    0.590880
     68          1           0        2.426318   -6.807529   -0.722376
     69          1           0        2.586890   -5.905825   -2.225370
     70          1           0        1.118257   -5.358801    0.242537
     71          1           0        0.529443   -5.189438   -1.446044
     72          1           0        1.596116   -3.935303   -0.668830
     73          1           0        4.041057   -1.580578   -5.805868
     74          1           0        4.240593   -3.128805   -4.910186
     75          1           0        5.702266   -2.114598   -5.257262
     76          1           0        6.428385    2.550946   -3.288781
     77          1           0        5.009406    6.350004   -4.762946
     78          1           0        4.701571    6.504313   -2.929600
     79          1           0        3.562191    5.810958   -4.098703
     80         12           0       -4.465733    0.892931    0.359569
     81          6           0       -4.718680   -1.660850   -2.149071
     82          6           0       -5.484376   -1.442726    2.627087
     83          6           0       -4.687733    3.218582    2.506551
     84          6           0       -4.585608    3.239118   -2.214689
     85          7           0       -5.001434   -1.242331    0.145249
     86          6           0       -5.000822   -2.120906   -0.845929
     87          6           0       -5.241828   -3.589297   -0.404007
     88          6           0       -6.020572   -3.301939    0.970721
     89          6           0       -5.445160   -1.924670    1.294308
     90          6           0       -7.523323   -3.162066    0.793231
     91          6           0       -3.901545   -4.365746   -0.153464
     92          6           0       -4.052342   -5.882779   -0.020689
     93          1           0       -2.991918   -6.736526   -0.548973
     94          7           0       -4.527760    0.809542    2.341432
     95          6           0       -4.947921   -0.224827    3.099597
     96          6           0       -4.815616    0.219798    4.495652
     97          6           0       -4.438839    1.659504    4.495713
     98          6           0       -4.559788    1.963697    3.084000
     99          6           0       -4.963201   -0.711498    5.663691
    100          6           0       -4.048310    2.609014    5.587554
    101          8           0       -3.993385    3.874500    5.391661
    102          6           0       -3.822871    2.022630    6.916768
    103          7           0       -4.827637    2.933619    0.195362
    104          6           0       -4.819490    3.726739    1.281095
    105          6           0       -4.828132    5.185561    0.891038
    106          6           0       -4.598616    5.208508   -0.691484
    107          6           0       -4.585540    3.688937   -0.967360
    108          6           0       -6.102660    5.957645    1.231425
    109          6           0       -3.415379    6.065653   -1.218666
    110          6           0       -2.102331    5.457080   -0.781706
    111          7           0       -4.437054    0.835244   -1.800044
    112          6           0       -4.522655    1.933245   -2.683865
    113          6           0       -4.579024    1.385366   -4.054660
    114          6           0       -4.545256   -0.005125   -3.870552
    115          6           0       -4.493309   -0.303242   -2.482061
    116          6           0       -4.698635    2.147521   -5.250876
    117          6           0       -4.552451   -1.288724   -4.534635
    118          8           0       -4.499927   -1.661012   -5.706127
    119          6           0       -4.792705   -2.420302   -3.444594
    120          6           0       -3.782584   -3.510469   -3.676360
    121          8           0       -2.569102   -3.292927   -3.512779
    122          8           0       -4.426625   -4.680438   -3.839865
    123          6           0       -3.466489   -5.794296   -4.061882
    124          1           0       -6.012706   -2.032479    3.376712
    125          1           0       -4.657452    4.062076    3.200139
    126          1           0       -4.525198    3.907469   -3.076269
    127          1           0       -5.868314   -4.167811   -1.072303
    128          1           0       -5.744942   -4.020304    1.738417
    129          1           0       -7.807651   -3.161590   -0.248549
    130          1           0       -7.788148   -2.221429    1.258117
    131          1           0       -8.043963   -3.937005    1.363088
    132          1           0       -3.530780   -4.125139    0.851216
    133          1           0       -3.181896   -4.139522   -0.916065
    134          1           0       -5.033643   -6.231167   -0.365104
    135          1           0       -4.033347   -6.141812    1.040705
    136          1           0       -5.402915   -1.669852    5.360997
    137          1           0       -5.709434   -0.269522    6.332750
    138          1           0       -4.030252   -0.846793    6.215036
    139          1           0       -4.725742    1.512790    7.244405
    140          1           0       -3.465839    2.843590    7.541612
    141          1           0       -3.042179    1.258228    6.834101
    142          1           0       -4.017247    5.719153    1.371500
    143          1           0       -5.470206    5.617028   -1.223727
    144          1           0       -5.919255    6.843985    1.867700
    145          1           0       -6.793888    5.279550    1.714052
    146          1           0       -6.677500    6.301366    0.373167
    147          1           0       -3.451912    7.068464   -0.786006
    148          1           0       -3.412064    6.180288   -2.297479
    149          1           0       -1.977368    5.843220    0.234353
    150          1           0       -1.293128    5.785251   -1.430959
    151          1           0       -2.178059    4.365690   -0.712580
    152          1           0       -4.008331    1.717496   -5.964354
    153          1           0       -4.485462    3.199817   -5.074827
    154          1           0       -5.752287    1.976032   -5.486861
    155          1           0       -5.816028   -2.778247   -3.564028
    156          1           0       -3.749354   -6.277254   -5.002311
    157          1           0       -3.508985   -6.412458   -3.145464
    158          1           0       -2.433519   -5.533503   -4.260386
 ---------------------------------------------------------------------

 SCF Done:  E(RCAM-B3LYP) =  -4069.81166667     A.U. after   19 cycles

 Excitation energies and oscillator strengths:

 Excited State   1:      Singlet-A      1.6468 eV  752.89 nm  f=0.0039  <S**2>=0.000
     309 -> 316        0.11259
     310 -> 315       -0.10605
     311 -> 313        0.50189
     312 -> 314       -0.47016
 This state for optimization and/or second-order correction.
 Total Energy, E(TD-HF/TD-DFT) =  -4069.75114907
 Copying the excited state density for this state as the 1-particle RhoCI density.

 Excited State   2:      Singlet-A      1.7024 eV  728.30 nm  f=0.6986  <S**2>=0.000
     309 -> 316        0.11268
     310 -> 315        0.12098
     311 -> 313        0.46790
     312 -> 314        0.49930

 Excited State   3:      Singlet-A      2.1808 eV  568.53 nm  f=0.0135  <S**2>=0.000
     309 -> 313        0.54764
     310 -> 314        0.33975
     311 -> 316       -0.21100
     312 -> 315       -0.13006

 Excited State   4:      Singlet-A      2.1938 eV  565.16 nm  f=0.1638  <S**2>=0.000
     309 -> 313       -0.33612
     310 -> 314        0.54334
     311 -> 316        0.13690
     312 -> 315       -0.22064

 Excited State   5:      Singlet-A      2.4608 eV  503.83 nm  f=0.0000  <S**2>=0.000
     312 -> 313        0.70709

 The electronic state is 1-A.
 Alpha  occ. eigenvalues --  -46.87557 -46.87488 -19.26309 -19.26118 -19.19100
 Alpha  occ. eigenvalues --  -19.18830 -19.18683 -19.18624 -19.17933 -19.17890
 Alpha  occ. eigenvalues --  -14.42335 -14.42219 -14.41214 -14.41187 -14.39190
 Alpha  occ. eigenvalues --  -14.39176 -14.38416 -14.38331 -10.39017 -10.38888
 Alpha  occ. eigenvalues --  -10.35323 -10.35307 -10.34154 -10.34071 -10.31779
 Alpha  occ. eigenvalues --  -10.31555 -10.31159 -10.31135 -10.30887 -10.30708
 Alpha  occ. eigenvalues --  -10.30313 -10.30265 -10.30225 -10.30176 -10.29984
 Alpha  occ. eigenvalues --  -10.29977 -10.29715 -10.29674 -10.29391 -10.29273
 Alpha  occ. eigenvalues --  -10.29231 -10.29027 -10.28603 -10.28599 -10.28558
 Alpha  occ. eigenvalues --  -10.28388 -10.28247 -10.28141 -10.28006 -10.27915
 Alpha  occ. eigenvalues --  -10.27829 -10.27554 -10.27502 -10.27494 -10.27364
 Alpha  occ. eigenvalues --  -10.27332 -10.27332 -10.27328 -10.27309 -10.27303
 Alpha  occ. eigenvalues --  -10.27261 -10.27240 -10.27215 -10.27177 -10.26946
 Alpha  occ. eigenvalues --  -10.26926 -10.26590 -10.26524 -10.26390 -10.26357
 Alpha  occ. eigenvalues --  -10.26049 -10.25904 -10.25897 -10.25886 -10.25758
 Alpha  occ. eigenvalues --  -10.25744 -10.25597 -10.25503 -10.25273 -10.25272
 Alpha  occ. eigenvalues --  -10.24697 -10.24586 -10.24566 -10.24529 -10.24404
 Alpha  occ. eigenvalues --  -10.24256  -3.16299  -3.16238  -1.91180  -1.91120
 Alpha  occ. eigenvalues --   -1.90768  -1.90709  -1.90609  -1.90545  -1.16596
 Alpha  occ. eigenvalues --   -1.16462  -1.08501  -1.08390  -1.07092  -1.06882
 Alpha  occ. eigenvalues --   -1.06876  -1.06453  -1.04353  -1.04336  -1.03528
 Alpha  occ. eigenvalues --   -1.03498  -1.02994  -1.02865  -1.02173  -1.01939
 Alpha  occ. eigenvalues --   -0.91832  -0.91742  -0.89310  -0.89265  -0.89018
 Alpha  occ. eigenvalues --   -0.88985  -0.88048  -0.88040  -0.87598  -0.87598
 Alpha  occ. eigenvalues --   -0.87521  -0.87446  -0.87086  -0.86989  -0.84869
 Alpha  occ. eigenvalues --   -0.84781  -0.83691  -0.83683  -0.82820  -0.82811
 Alpha  occ. eigenvalues --   -0.82531  -0.82453  -0.81485  -0.81381  -0.80389
 Alpha  occ. eigenvalues --   -0.80316  -0.78581  -0.78478  -0.76991  -0.76985
 Alpha  occ. eigenvalues --   -0.76767  -0.76726  -0.75715  -0.75711  -0.74677
 Alpha  occ. eigenvalues --   -0.74648  -0.72528  -0.72522  -0.71457  -0.71434
 Alpha  occ. eigenvalues --   -0.69624  -0.69544  -0.68694  -0.68670  -0.67457
 Alpha  occ. eigenvalues --   -0.67428  -0.67089  -0.67039  -0.65140  -0.65076
 Alpha  occ. eigenvalues --   -0.64627  -0.64618  -0.64519  -0.64404  -0.64026
 Alpha  occ. eigenvalues --   -0.64024  -0.62173  -0.62098  -0.60242  -0.60197
 Alpha  occ. eigenvalues --   -0.59652  -0.59591  -0.58834  -0.58759  -0.58279
 Alpha  occ. eigenvalues --   -0.58275  -0.57429  -0.57366  -0.57093  -0.57083
 Alpha  occ. eigenvalues --   -0.56086  -0.56050  -0.55798  -0.55796  -0.55341
 Alpha  occ. eigenvalues --   -0.55329  -0.55107  -0.55094  -0.54344  -0.54300
 Alpha  occ. eigenvalues --   -0.53787  -0.53696  -0.53105  -0.53088  -0.53017
 Alpha  occ. eigenvalues --   -0.53010  -0.52779  -0.52709  -0.52590  -0.52570
 Alpha  occ. eigenvalues --   -0.52173  -0.52141  -0.51669  -0.51622  -0.51542
 Alpha  occ. eigenvalues --   -0.51425  -0.51042  -0.50958  -0.50421  -0.50363
 Alpha  occ. eigenvalues --   -0.49851  -0.49795  -0.49733  -0.49692  -0.49374
 Alpha  occ. eigenvalues --   -0.49330  -0.49075  -0.49004  -0.48962  -0.48890
 Alpha  occ. eigenvalues --   -0.48430  -0.48379  -0.48289  -0.48235  -0.48231
 Alpha  occ. eigenvalues --   -0.48220  -0.47494  -0.47462  -0.47097  -0.46983
 Alpha  occ. eigenvalues --   -0.46556  -0.46545  -0.46427  -0.46363  -0.46124
 Alpha  occ. eigenvalues --   -0.46109  -0.45928  -0.45926  -0.45674  -0.45584
 Alpha  occ. eigenvalues --   -0.45047  -0.44975  -0.44389  -0.44373  -0.44320
 Alpha  occ. eigenvalues --   -0.44292  -0.44001  -0.43926  -0.43900  -0.43876
 Alpha  occ. eigenvalues --   -0.43826  -0.43806  -0.43439  -0.43278  -0.43249
 Alpha  occ. eigenvalues --   -0.43171  -0.42836  -0.42803  -0.42748  -0.42510
 Alpha  occ. eigenvalues --   -0.42392  -0.42370  -0.41778  -0.41743  -0.41515
 Alpha  occ. eigenvalues --   -0.41482  -0.41329  -0.41315  -0.40931  -0.40843
 Alpha  occ. eigenvalues --   -0.40697  -0.40635  -0.40627  -0.40559  -0.40330
 Alpha  occ. eigenvalues --   -0.40312  -0.40125  -0.40057  -0.39204  -0.39145
 Alpha  occ. eigenvalues --   -0.38239  -0.38186  -0.37556  -0.37544  -0.37099
 Alpha  occ. eigenvalues --   -0.37084  -0.37055  -0.37052  -0.36686  -0.36513
 Alpha  occ. eigenvalues --   -0.36069  -0.35975  -0.34087  -0.34047  -0.33777
 Alpha  occ. eigenvalues --   -0.33572  -0.33009  -0.32949  -0.31213  -0.31182
 Alpha  occ. eigenvalues --   -0.30818  -0.30812  -0.29796  -0.29791  -0.29234
 Alpha  occ. eigenvalues --   -0.29174  -0.29066  -0.29028  -0.23868  -0.23843
 Alpha  occ. eigenvalues --   -0.20946  -0.20888
 Alpha virt. eigenvalues --   -0.08627  -0.08544  -0.01525  -0.01522   0.00101
 Alpha virt. eigenvalues --    0.00130   0.02373   0.02439   0.02979   0.03875
 Alpha virt. eigenvalues --    0.04815   0.04933   0.05219   0.05292   0.06026

 Mulliken charges:
               1
     1  Mg   0.839649
     2  C   -0.003177
     3  C   -0.094141
     4  C   -0.046233
     5  C   -0.061606
     6  N   -0.256750
     7  C   -0.052318
     8  C   -0.014096
     9  C   -0.086948
    10  C    0.046051
    11  C    0.104942
    12  C    0.053417
    13  C   -0.071285
    14  H    0.034856
    15  N   -0.432853
    16  C    0.168036
    17  C   -0.177667
    18  C   -0.004838
    19  C    0.148413
    20  C    0.110327
    21  C    0.011229
    22  O   -0.251053
    23  C    0.062903
    24  N   -0.341298
    25  C    0.041261
    26  C   -0.027677
    27  C   -0.023980
    28  C    0.075288
    29  C    0.076511
    30  C    0.034661
    31  C   -0.005571
    32  N   -0.311159
    33  C    0.082312
    34  C   -0.166450
    35  C    0.008396
    36  C    0.084361
    37  C    0.127002
    38  C    0.047050
    39  O   -0.188134
    40  C   -0.005785
    41  C    0.212888
    42  O   -0.256685
    43  O   -0.304819
    44  C    0.158101
    45  H   -0.018258
    46  H   -0.017997
    47  H   -0.040408
    48  H    0.000597
    49  H   -0.004245
    50  H    0.025198
    51  H    0.016328
    52  H    0.016151
    53  H    0.011807
    54  H    0.043995
    55  H    0.017639
    56  H    0.018176
    57  H    0.005872
    58  H    0.025944
    59  H    0.038802
    60  H    0.037667
    61  H    0.033762
    62  H    0.030483
    63  H    0.015509
    64  H    0.008793
    65  H    0.021978
    66  H    0.012255
    67  H    0.004380
    68  H    0.003508
    69  H    0.005463
    70  H    0.004456
    71  H    0.024923
    72  H    0.031963
    73  H    0.049972
    74  H    0.010532
    75  H    0.044870
    76  H    0.034697
    77  H    0.042682
    78  H    0.046056
    79  H    0.052758
    80  Mg   0.838737
    81  C   -0.017090
    82  C   -0.087492
    83  C   -0.045765
    84  C   -0.063562
    85  N   -0.254541
    86  C   -0.049751
    87  C   -0.015378
    88  C   -0.090511
    89  C    0.045562
    90  C    0.114465
    91  C    0.061779
    92  C   -0.077119
    93  H    0.032362
    94  N   -0.423306
    95  C    0.162699
    96  C   -0.174914
    97  C   -0.008506
    98  C    0.151925
    99  C    0.099522
   100  C    0.014716
   101  O   -0.254140
   102  C    0.061598
   103  N   -0.350229
   104  C    0.037577
   105  C   -0.019505
   106  C   -0.034992
   107  C    0.089343
   108  C    0.073927
   109  C    0.034573
   110  C   -0.007532
   111  N   -0.324632
   112  C    0.079943
   113  C   -0.160570
   114  C    0.002359
   115  C    0.097430
   116  C    0.131188
   117  C    0.043349
   118  O   -0.187681
   119  C    0.000305
   120  C    0.211264
   121  O   -0.250847
   122  O   -0.305358
   123  C    0.152197
   124  H   -0.020090
   125  H   -0.016349
   126  H   -0.039508
   127  H   -0.001065
   128  H   -0.004257
   129  H    0.022187
   130  H    0.014390
   131  H    0.015925
   132  H    0.015266
   133  H    0.037984
   134  H    0.020683
   135  H    0.020402
   136  H    0.008976
   137  H    0.025387
   138  H    0.039454
   139  H    0.038536
   140  H    0.034926
   141  H    0.032899
   142  H    0.013832
   143  H    0.011971
   144  H    0.024297
   145  H    0.011316
   146  H    0.005420
   147  H    0.004672
   148  H    0.004468
   149  H    0.008255
   150  H    0.021657
   151  H    0.032046
   152  H    0.048082
   153  H    0.009597
   154  H    0.046044
   155  H    0.034699
   156  H    0.044034
   157  H    0.049053
   158  H    0.051976
 Sum of Mulliken charges =  -0.00000

 Dipole moment (field-independent basis, Debye):
    X=              0.0695    Y=             -0.3507    Z=              6.6646  Tot=              6.6741
 Quadrupole moment (field-independent basis, Debye-Ang):
   XX=           -478.1641   YY=           -464.7905   ZZ=           -540.3464
   XY=             22.1777   XZ=              6.4202   YZ=              0.3971

 Normal termination of Gaussian 16 at Thu Sep  9 17:48:48 2021.
