 Gaussian 16, Revision A.03,
 Gaussian 16:  ES64L-G16RevA.03 25-Dec-2016

 -----------------------------------
 #p cam-b3lyp/Def2SVP td=(nstates=5)
 -----------------------------------

 --------------------------------
 TDDFT excited states in gaussian
 --------------------------------
 Symbolic Z-matrix:
 Charge =  0 Multiplicity = 1

                         Standard orientation:
 ---------------------------------------------------------------------
 Center     Atomic      Atomic             Coordinates (Angstroms)
 Number     Number       Type             X           Y           Z
 ---------------------------------------------------------------------
      1         12           0       -4.154212    0.029823    0.223184
      2          6           0       -3.630600    3.271721    1.647311
      3          6           0       -5.003771    1.606605   -2.681136
      4          6           0       -5.057656   -2.788653   -0.915501
      5          6           0       -4.370172   -1.201939    3.476149
      6          7           0       -4.263038    2.172103   -0.324025
      7          6           0       -3.979012    3.313480    0.295457
      8          6           0       -4.012891    4.553265   -0.647497
      9          6           0       -4.985672    3.984969   -1.775652
     10          6           0       -4.709607    2.501025   -1.609450
     11          6           0       -6.462155    4.244432   -1.494265
     12          6           0       -2.600224    4.896737   -1.228985
     13          6           0       -2.483069    6.272715   -1.891037
     14          1           0       -1.235309    7.009557   -1.758716
     15          7           0       -4.447072   -0.566121   -1.637444
     16          6           0       -4.769603    0.214557   -2.696595
     17          6           0       -4.877576   -0.696356   -3.856448
     18          6           0       -4.778273   -2.093013   -3.348922
     19          6           0       -4.783391   -1.869769   -1.925716
     20          6           0       -5.006576   -0.217210   -5.269788
     21          6           0       -4.702954   -3.419182   -4.037204
     22          8           0       -4.855613   -4.521661   -3.408070
     23          6           0       -4.531666   -3.390783   -5.501068
     24          7           0       -4.863703   -1.708855    1.134917
     25          6           0       -5.125892   -2.806679    0.417265
     26          6           0       -5.345494   -3.997847    1.302043
     27          6           0       -4.937442   -3.535652    2.775007
     28          6           0       -4.613882   -2.051132    2.475377
     29          6           0       -6.772420   -4.563104    1.321475
     30          6           0       -3.873312   -4.388632    3.510175
     31          6           0       -2.535806   -4.248384    2.818433
     32          7           0       -3.853258    0.822025    2.221404
     33          6           0       -4.020190    0.137313    3.433830
     34          6           0       -3.808746    1.116600    4.515660
     35          6           0       -3.548139    2.314426    3.852982
     36          6           0       -3.619783    2.102863    2.446426
     37          6           0       -3.926040    0.856750    5.909631
     38          6           0       -3.250115    3.729199    4.006137
     39          8           0       -2.980255    4.460215    4.960225
     40          6           0       -3.411751    4.431874    2.586296
     41          6           0       -2.199919    5.295758    2.366121
     42          8           0       -1.070010    4.787093    2.218034
     43          8           0       -2.590535    6.557282    2.128382
     44          6           0       -1.437297    7.460942    1.872267
     45          1           0       -5.513189    1.992766   -3.566186
     46          1           0       -5.265387   -3.801983   -1.265428
     47          1           0       -4.338198   -1.531918    4.516122
     48          1           0       -4.442877    5.450908   -0.202781
     49          1           0       -4.691262    4.315984   -2.771380
     50          1           0       -6.610345    4.664319   -0.499450
     51          1           0       -6.948792    3.272112   -1.573451
     52          1           0       -6.902317    4.864331   -2.275775
     53          1           0       -2.401267    4.258935   -2.090197
     54          1           0       -1.832677    4.799962   -0.460329
     55          1           0       -3.331401    6.909741   -1.639166
     56          1           0       -2.555335    6.139612   -2.970510
     57          1           0       -5.219644    0.850163   -5.312941
     58          1           0       -5.896552   -0.688895   -5.685919
     59          1           0       -4.136448   -0.477860   -5.872507
     60          1           0       -5.363799   -2.848306   -5.950313
     61          1           0       -4.408726   -4.428343   -5.809620
     62          1           0       -3.631392   -2.824013   -5.740292
     63          1           0       -4.711818   -4.830951    1.000682
     64          1           0       -5.790694   -3.532213    3.453699
     65          1           0       -6.829892   -5.616494    1.046209
     66          1           0       -7.386003   -3.952043    0.660103
     67          1           0       -7.296397   -4.448973    2.270074
     68          1           0       -4.143142   -5.443599    3.475788
     69          1           0       -3.748468   -4.112193    4.557193
     70          1           0       -2.602267   -4.975872    2.010240
     71          1           0       -1.725141   -4.498849    3.503488
     72          1           0       -2.424573   -3.264299    2.362703
     73          1           0       -3.079053    1.351787    6.384521
     74          1           0       -3.924976   -0.213618    6.114361
     75          1           0       -4.888908    1.321423    6.121339
     76          1           0       -4.329616    5.017385    2.628987
     77          1           0       -1.507908    8.281681    2.586154
     78          1           0       -1.467843    7.709217    0.811215
     79          1           0       -0.450669    7.063348    2.112729
     80         12           0        3.620265   -1.422649   -0.459307
     81          6           0        6.156065    1.097672   -0.148287
     82          6           0        1.510983    1.041659   -1.514174
     83          6           0        1.249680   -3.526637   -0.314479
     84          6           0        5.538136   -3.416790    1.659854
     85          7           0        3.912684    0.750047   -0.752789
     86          6           0        4.936287    1.585673   -0.661526
     87          6           0        4.659050    3.006071   -1.222919
     88          6           0        3.060029    3.015286   -1.074869
     89          6           0        2.798649    1.512554   -1.153218
     90          6           0        2.583916    3.512914    0.279759
     91          6           0        5.097956    3.152365   -2.722243
     92          6           0        5.143187    4.591101   -3.241619
     93          1           0        6.180135    4.951135   -4.204740
     94          7           0        1.823398   -1.392784   -1.301303
     95          6           0        1.123398   -0.305297   -1.686859
     96          6           0       -0.145455   -0.815090   -2.229326
     97          6           0       -0.206228   -2.281224   -1.981419
     98          6           0        0.969580   -2.457440   -1.152868
     99          6           0       -1.118221    0.051529   -2.975059
    100          6           0       -1.170949   -3.346087   -2.407556
    101          8           0       -1.161053   -4.514003   -1.879626
    102          6           0       -2.187620   -2.952938   -3.394106
    103          7           0        3.315324   -3.126050    0.692981
    104          6           0        2.222965   -3.890875    0.520601
    105          6           0        2.352764   -5.201679    1.259084
    106          6           0        3.867746   -5.259871    1.768043
    107          6           0        4.348255   -3.871509    1.291635
    108          6           0        1.409520   -5.392412    2.446649
    109          6           0        4.698552   -6.508431    1.363662
    110          6           0        4.933438   -6.510532   -0.129723
    111          7           0        5.584539   -1.303882    0.432641
    112          6           0        6.181152   -2.236585    1.309104
    113          6           0        7.473760   -1.664930    1.739000
    114          6           0        7.529433   -0.419272    1.095798
    115          6           0        6.345370   -0.219340    0.335862
    116          6           0        8.387790   -2.266520    2.649368
    117          6           0        8.315866    0.776585    0.895364
    118          8           0        9.447424    1.136297    1.217718
    119          6           0        7.405279    1.866537    0.181772
    120          6           0        8.190030    2.451841   -0.960200
    121          8           0        8.506928    1.748324   -1.935524
    122          8           0        8.248278    3.788284   -0.815585
    123          6           0        9.007325    4.415384   -1.930222
    124          1           0        0.708043    1.769100   -1.636619
    125          1           0        0.511834   -4.332287   -0.315224
    126          1           0        6.238622   -4.019147    2.242233
    127          1           0        5.090582    3.814920   -0.645563
    128          1           0        2.589048    3.528251   -1.909377
    129          1           0        3.405221    3.667156    0.963734
    130          1           0        1.916666    2.748558    0.656033
    131          1           0        1.973591    4.412324    0.157725
    132          1           0        4.309428    2.744343   -3.367602
    133          1           0        6.045126    2.677683   -2.890017
    134          1           0        5.103615    5.324744   -2.427286
    135          1           0        4.234230    4.780822   -3.817674
    136          1           0       -0.882650    1.116165   -2.854864
    137          1           0       -2.091833   -0.067955   -2.487552
    138          1           0       -1.212504   -0.229227   -4.026227
    139          1           0       -2.775936   -2.128846   -2.997590
    140          1           0       -2.726504   -3.870068   -3.639764
    141          1           0       -1.679618   -2.575218   -4.288459
    142          1           0        2.172485   -6.038729    0.595804
    143          1           0        3.929152   -5.253867    2.866234
    144          1           0        0.779538   -6.298025    2.362601
    145          1           0        0.793440   -4.507819    2.538711
    146          1           0        1.895512   -5.437776    3.419766
    147          1           0        4.144460   -7.422213    1.591984
    148          1           0        5.653871   -6.575206    1.873472
    149          1           0        4.012355   -6.950303   -0.523790
    150          1           0        5.800030   -7.119011   -0.380354
    151          1           0        5.003154   -5.487993   -0.518596
    152          1           0        9.376714   -2.133310    2.231295
    153          1           0        8.159484   -3.318888    2.804810
    154          1           0        8.194605   -1.668118    3.543709
    155          1           0        7.147432    2.618049    0.928985
    156          1           0        9.810177    5.005606   -1.477719
    157          1           0        8.257324    4.962691   -2.531644
    158          1           0        9.569825    3.759866   -2.584704
 ---------------------------------------------------------------------

 SCF Done:  E(RCAM-B3LYP) =  -4069.78894122     A.U. after   19 cycles

 Excitation energies and oscillator strengths:

 Excited State   1:      Singlet-A      1.6078 eV  771.13 nm  f=0.2389  <S**2>=0.000
     309 -> 315        0.11565
     311 -> 313        0.49965
     312 -> 313       -0.16196
     312 -> 314       -0.43923
 This state for optimization and/or second-order correction.
 Total Energy, E(TD-HF/TD-DFT) =  -4069.72985463
 Copying the excited state density for this state as the 1-particle RhoCI density.

 Excited State   2:      Singlet-A      1.7046 eV  727.35 nm  f=0.5172  <S**2>=0.000
     309 -> 315        0.12183
     310 -> 316        0.12870
     311 -> 313        0.45707
     312 -> 314        0.50474

 Excited State   3:      Singlet-A      2.0501 eV  604.77 nm  f=0.0007  <S**2>=0.000
     312 -> 313        0.68280
     312 -> 314       -0.14775

 Excited State   4:      Singlet-A      2.1773 eV  569.43 nm  f=0.0045  <S**2>=0.000
     309 -> 313        0.38643
     310 -> 313        0.10656
     310 -> 314        0.50361
     311 -> 315       -0.15982
     312 -> 316       -0.20037

 Excited State   5:      Singlet-A      2.2023 eV  562.98 nm  f=0.1544  <S**2>=0.000
     309 -> 313        0.50050
     310 -> 314       -0.37859
     311 -> 315       -0.22879
     312 -> 316        0.16542

 The electronic state is 1-A.
 Alpha  occ. eigenvalues --  -46.88321 -46.87274 -19.26815 -19.26073 -19.19612
 Alpha  occ. eigenvalues --  -19.19206 -19.18871 -19.18586 -19.18042 -19.17692
 Alpha  occ. eigenvalues --  -14.42941 -14.42076 -14.41899 -14.40998 -14.40201
 Alpha  occ. eigenvalues --  -14.39007 -14.38965 -14.38215 -10.39637 -10.38793
 Alpha  occ. eigenvalues --  -10.36204 -10.34814 -10.34668 -10.33871 -10.32192
 Alpha  occ. eigenvalues --  -10.31957 -10.31528 -10.31425 -10.31215 -10.31000
 Alpha  occ. eigenvalues --  -10.30877 -10.30595 -10.30571 -10.30295 -10.30129
 Alpha  occ. eigenvalues --  -10.30023 -10.29987 -10.29770 -10.29678 -10.29568
 Alpha  occ. eigenvalues --  -10.29329 -10.29207 -10.29031 -10.29004 -10.28828
 Alpha  occ. eigenvalues --  -10.28652 -10.28415 -10.28318 -10.28253 -10.28233
 Alpha  occ. eigenvalues --  -10.28233 -10.28025 -10.28001 -10.27850 -10.27657
 Alpha  occ. eigenvalues --  -10.27623 -10.27607 -10.27551 -10.27542 -10.27455
 Alpha  occ. eigenvalues --  -10.27254 -10.27229 -10.27136 -10.27088 -10.27075
 Alpha  occ. eigenvalues --  -10.26940 -10.26801 -10.26690 -10.26688 -10.26427
 Alpha  occ. eigenvalues --  -10.26361 -10.26183 -10.26173 -10.25913 -10.25574
 Alpha  occ. eigenvalues --  -10.25554 -10.25529 -10.25257 -10.25256 -10.25239
 Alpha  occ. eigenvalues --  -10.25012 -10.24866 -10.24509 -10.24484 -10.24478
 Alpha  occ. eigenvalues --  -10.24336  -3.17062  -3.16024  -1.91942  -1.91529
 Alpha  occ. eigenvalues --   -1.91376  -1.90906  -1.90495  -1.90331  -1.17169
 Alpha  occ. eigenvalues --   -1.16363  -1.09048  -1.08309  -1.07962  -1.07203
 Alpha  occ. eigenvalues --   -1.06655  -1.06277  -1.05137  -1.04343  -1.04074
 Alpha  occ. eigenvalues --   -1.03758  -1.03275  -1.02876  -1.02669  -1.01729
 Alpha  occ. eigenvalues --   -0.92426  -0.91600  -0.89846  -0.89721  -0.89172
 Alpha  occ. eigenvalues --   -0.88640  -0.88569  -0.88307  -0.88207  -0.88095
 Alpha  occ. eigenvalues --   -0.87926  -0.87426  -0.87287  -0.86597  -0.85604
 Alpha  occ. eigenvalues --   -0.84545  -0.84181  -0.83636  -0.83563  -0.83127
 Alpha  occ. eigenvalues --   -0.82430  -0.82147  -0.82008  -0.81262  -0.81106
 Alpha  occ. eigenvalues --   -0.80088  -0.79383  -0.78204  -0.77670  -0.77346
 Alpha  occ. eigenvalues --   -0.76752  -0.76514  -0.76404  -0.75365  -0.75178
 Alpha  occ. eigenvalues --   -0.74493  -0.73214  -0.72312  -0.72102  -0.71176
 Alpha  occ. eigenvalues --   -0.70053  -0.69480  -0.69460  -0.68441  -0.68172
 Alpha  occ. eigenvalues --   -0.67922  -0.67229  -0.66828  -0.65814  -0.65310
 Alpha  occ. eigenvalues --   -0.65113  -0.64867  -0.64536  -0.64405  -0.64285
 Alpha  occ. eigenvalues --   -0.63882  -0.62754  -0.61962  -0.61014  -0.60343
 Alpha  occ. eigenvalues --   -0.60173  -0.59428  -0.59345  -0.58962  -0.58636
 Alpha  occ. eigenvalues --   -0.58066  -0.58051  -0.57715  -0.57221  -0.57064
 Alpha  occ. eigenvalues --   -0.56800  -0.56497  -0.56085  -0.55805  -0.55674
 Alpha  occ. eigenvalues --   -0.55577  -0.55325  -0.54964  -0.54825  -0.54471
 Alpha  occ. eigenvalues --   -0.54233  -0.53938  -0.53723  -0.53596  -0.53382
 Alpha  occ. eigenvalues --   -0.53323  -0.52997  -0.52791  -0.52677  -0.52550
 Alpha  occ. eigenvalues --   -0.52388  -0.52296  -0.52205  -0.52138  -0.51615
 Alpha  occ. eigenvalues --   -0.51559  -0.51494  -0.51200  -0.50866  -0.50600
 Alpha  occ. eigenvalues --   -0.50264  -0.50209  -0.49810  -0.49728  -0.49600
 Alpha  occ. eigenvalues --   -0.49532  -0.49327  -0.49119  -0.48897  -0.48874
 Alpha  occ. eigenvalues --   -0.48790  -0.48707  -0.48550  -0.48164  -0.48076
 Alpha  occ. eigenvalues --   -0.47991  -0.47795  -0.47483  -0.47201  -0.47098
 Alpha  occ. eigenvalues --   -0.47015  -0.46960  -0.46617  -0.46430  -0.46315
 Alpha  occ. eigenvalues --   -0.46246  -0.46121  -0.45808  -0.45556  -0.45503
 Alpha  occ. eigenvalues --   -0.45451  -0.45061  -0.44940  -0.44887  -0.44624
 Alpha  occ. eigenvalues --   -0.44508  -0.44393  -0.44191  -0.44173  -0.43940
 Alpha  occ. eigenvalues --   -0.43807  -0.43769  -0.43670  -0.43653  -0.43467
 Alpha  occ. eigenvalues --   -0.43225  -0.43173  -0.42977  -0.42869  -0.42616
 Alpha  occ. eigenvalues --   -0.42522  -0.42298  -0.42214  -0.42123  -0.41953
 Alpha  occ. eigenvalues --   -0.41635  -0.41598  -0.41350  -0.41299  -0.41123
 Alpha  occ. eigenvalues --   -0.40994  -0.40770  -0.40735  -0.40467  -0.40281
 Alpha  occ. eigenvalues --   -0.40123  -0.39938  -0.39519  -0.39182  -0.38970
 Alpha  occ. eigenvalues --   -0.38763  -0.38359  -0.38040  -0.37847  -0.37593
 Alpha  occ. eigenvalues --   -0.37274  -0.37180  -0.36914  -0.36763  -0.36568
 Alpha  occ. eigenvalues --   -0.36465  -0.35872  -0.34697  -0.34310  -0.33866
 Alpha  occ. eigenvalues --   -0.33559  -0.33551  -0.32792  -0.31859  -0.31513
 Alpha  occ. eigenvalues --   -0.30760  -0.30586  -0.30446  -0.29768  -0.29725
 Alpha  occ. eigenvalues --   -0.29601  -0.28926  -0.28826  -0.24557  -0.23652
 Alpha  occ. eigenvalues --   -0.21575  -0.20719
 Alpha virt. eigenvalues --   -0.09231  -0.08371  -0.02404  -0.01338  -0.00713
 Alpha virt. eigenvalues --    0.00533   0.01727   0.02593   0.02721   0.03619
 Alpha virt. eigenvalues --    0.04146   0.04464   0.05050   0.05464   0.05532

 Mulliken charges:
               1
     1  Mg   0.830419
     2  C   -0.004570
     3  C   -0.095258
     4  C   -0.020250
     5  C   -0.060962
     6  N   -0.256682
     7  C   -0.053603
     8  C   -0.012837
     9  C   -0.086076
    10  C    0.041899
    11  C    0.104405
    12  C    0.049769
    13  C   -0.071498
    14  H    0.034650
    15  N   -0.444441
    16  C    0.159629
    17  C   -0.170966
    18  C   -0.011162
    19  C    0.116765
    20  C    0.113444
    21  C   -0.025065
    22  O   -0.240344
    23  C    0.084865
    24  N   -0.339300
    25  C    0.036972
    26  C   -0.029293
    27  C   -0.025242
    28  C    0.077344
    29  C    0.075625
    30  C    0.039111
    31  C   -0.016641
    32  N   -0.308660
    33  C    0.080210
    34  C   -0.168085
    35  C    0.008393
    36  C    0.084249
    37  C    0.127018
    38  C    0.046738
    39  O   -0.187096
    40  C   -0.005944
    41  C    0.213675
    42  O   -0.258856
    43  O   -0.303959
    44  C    0.156731
    45  H   -0.017774
    46  H   -0.014638
    47  H   -0.039838
    48  H    0.002290
    49  H   -0.004241
    50  H    0.026309
    51  H    0.017792
    52  H    0.017718
    53  H    0.008823
    54  H    0.042590
    55  H    0.020491
    56  H    0.018630
    57  H    0.005942
    58  H    0.029073
    59  H    0.035096
    60  H    0.038076
    61  H    0.040738
    62  H    0.023418
    63  H    0.025407
    64  H    0.009468
    65  H    0.025246
    66  H    0.011658
    67  H    0.004786
    68  H    0.006514
    69  H    0.002310
    70  H    0.019664
    71  H    0.020745
    72  H    0.031789
    73  H    0.048542
    74  H    0.010389
    75  H    0.046857
    76  H    0.036152
    77  H    0.045009
    78  H    0.045983
    79  H    0.053314
    80  Mg   0.838032
    81  C   -0.016946
    82  C   -0.089180
    83  C   -0.047977
    84  C   -0.065175
    85  N   -0.254931
    86  C   -0.048658
    87  C   -0.015183
    88  C   -0.091017
    89  C    0.046435
    90  C    0.115249
    91  C    0.062953
    92  C   -0.076539
    93  H    0.032654
    94  N   -0.423383
    95  C    0.165549
    96  C   -0.192349
    97  C   -0.004501
    98  C    0.150229
    99  C    0.110667
   100  C    0.034780
   101  O   -0.252234
   102  C    0.016876
   103  N   -0.349879
   104  C    0.037226
   105  C   -0.018475
   106  C   -0.034796
   107  C    0.088569
   108  C    0.069073
   109  C    0.035082
   110  C   -0.007503
   111  N   -0.323888
   112  C    0.077991
   113  C   -0.163818
   114  C    0.002110
   115  C    0.095930
   116  C    0.131561
   117  C    0.041906
   118  O   -0.189240
   119  C    0.001055
   120  C    0.211058
   121  O   -0.251728
   122  O   -0.305323
   123  C    0.152440
   124  H   -0.016256
   125  H   -0.015677
   126  H   -0.041604
   127  H   -0.000952
   128  H   -0.007819
   129  H    0.020225
   130  H    0.024101
   131  H    0.020729
   132  H    0.012613
   133  H    0.036767
   134  H    0.020729
   135  H    0.017952
   136  H    0.001439
   137  H    0.057320
   138  H    0.028354
   139  H    0.055440
   140  H    0.070908
   141  H    0.024564
   142  H    0.013877
   143  H    0.011559
   144  H    0.023466
   145  H    0.016939
   146  H    0.003856
   147  H    0.005044
   148  H    0.003243
   149  H    0.010676
   150  H    0.017169
   151  H    0.030682
   152  H    0.045054
   153  H    0.007590
   154  H    0.046759
   155  H    0.035805
   156  H    0.043278
   157  H    0.049072
   158  H    0.052939
 Sum of Mulliken charges =  -0.00000

 Dipole moment (field-independent basis, Debye):
    X=             -7.2344    Y=              2.3877    Z=             -3.7578  Tot=              8.4946
 Quadrupole moment (field-independent basis, Debye-Ang):
   XX=           -550.6599   YY=           -486.3220   ZZ=           -496.6395
   XY=            -15.2800   XZ=             11.6598   YZ=            -54.9977

 Normal termination of Gaussian 16 at Thu Sep  9 09:32:08 2021.
