 Gaussian 16, Revision A.03,
 Gaussian 16:  ES64L-G16RevA.03 25-Dec-2016

 -----------------------------------
 #p cam-b3lyp/Def2SVP td=(nstates=5)
 -----------------------------------

 --------------------------------
 TDDFT excited states in gaussian
 --------------------------------
 Symbolic Z-matrix:
 Charge =  0 Multiplicity = 1

                         Standard orientation:
 ---------------------------------------------------------------------
 Center     Atomic      Atomic             Coordinates (Angstroms)
 Number     Number       Type             X           Y           Z
 ---------------------------------------------------------------------
      1         12           0       -5.386066   -0.184407   -0.017172
      2          6           0       -5.199410    3.389844   -0.063032
      3          6           0       -6.160224   -0.038069   -3.337161
      4          6           0       -6.000830   -3.293242    0.100441
      5          6           0       -5.720600    0.024743    3.445487
      6          7           0       -5.618559    1.518946   -1.411869
      7          6           0       -5.461332    2.835621   -1.317974
      8          6           0       -5.526203    3.565194   -2.693071
      9          6           0       -6.378474    2.491786   -3.507582
     10          6           0       -6.003892    1.242918   -2.729161
     11          6           0       -7.885359    2.702992   -3.401787
     12          6           0       -4.108278    3.769833   -3.325005
     13          6           0       -4.051277    4.753218   -4.497635
     14          1           0       -2.873200    5.593578   -4.650205
     15          7           0       -5.512066   -1.521203   -1.466293
     16          6           0       -5.822376   -1.282811   -2.763275
     17          6           0       -5.786468   -2.597521   -3.439239
     18          6           0       -5.616483   -3.642986   -2.392242
     19          6           0       -5.730761   -2.852833   -1.193085
     20          6           0       -5.858678   -2.760271   -4.926535
     21          6           0       -5.397873   -5.121351   -2.461370
     22          8           0       -5.508461   -5.874048   -1.433853
     23          6           0       -5.134365   -5.684672   -3.797886
     24          7           0       -6.021678   -1.449200    1.517081
     25          6           0       -6.154041   -2.764956    1.316453
     26          6           0       -6.341251   -3.498612    2.611305
     27          6           0       -6.065443   -2.432297    3.767443
     28          6           0       -5.834710   -1.181179    2.884416
     29          6           0       -7.720279   -4.137846    2.825012
     30          6           0       -4.990716   -2.799755    4.821176
     31          6           0       -3.625257   -2.831866    4.171877
     32          7           0       -5.275595    1.387772    1.475173
     33          6           0       -5.469470    1.253215    2.857555
     34          6           0       -5.402442    2.607398    3.437006
     35          6           0       -5.189365    3.442809    2.342231
     36          6           0       -5.153426    2.662835    1.151164
     37          6           0       -5.590413    2.937352    4.808221
     38          6           0       -5.008280    4.815566    1.898829
     39          8           0       -4.856299    5.897650    2.467590
     40          6           0       -5.129215    4.849448    0.311362
     41          6           0       -3.973446    5.655689   -0.215404
     42          8           0       -2.801515    5.241050   -0.105780
     43          8           0       -4.440777    6.662696   -0.969116
     44          6           0       -3.343944    7.484535   -1.546777
     45          1           0       -6.638399   -0.102677   -4.316506
     46          1           0       -6.109211   -4.375267    0.200014
     47          1           0       -5.731790    0.158981    4.528680
     48          1           0       -6.049943    4.521140   -2.676125
     49          1           0       -6.045456    2.407751   -4.541874
     50          1           0       -8.128819    3.480504   -2.677824
     51          1           0       -8.291940    1.743587   -3.081278
     52          1           0       -8.318783    2.899430   -4.382773
     53          1           0       -3.806733    2.855048   -3.835201
     54          1           0       -3.387256    4.072862   -2.564987
     55          1           0       -4.959334    5.353725   -4.558716
     56          1           0       -4.043075    4.179479   -5.424434
     57          1           0       -6.147504   -1.831772   -5.417466
     58          1           0       -6.682051   -3.443921   -5.132422
     59          1           0       -4.934192   -3.162955   -5.340664
     60          1           0       -5.973665   -5.458150   -4.455770
     61          1           0       -4.914581   -6.740153   -3.641347
     62          1           0       -4.265226   -5.184923   -4.226604
     63          1           0       -5.628954   -4.317510    2.703309
     64          1           0       -6.958892   -2.229515    4.358461
     65          1           0       -7.681006   -5.211017    3.013335
     66          1           0       -8.333424   -3.916192    1.951963
     67          1           0       -8.311873   -3.691979    3.624159
     68          1           0       -5.178302   -3.794904    5.222967
     69          1           0       -4.955178   -2.104649    5.660113
     70          1           0       -3.584586   -3.831129    3.739845
     71          1           0       -2.844431   -2.698489    4.921364
     72          1           0       -3.558335   -2.118612    3.350125
     73          1           0       -4.815381    3.662365    5.056515
     74          1           0       -5.522834    2.052833    5.441201
     75          1           0       -6.596978    3.354310    4.779434
     76          1           0       -6.089022    5.310215    0.079871
     77          1           0       -3.521838    8.516240   -1.243180
     78          1           0       -3.323868    7.267729   -2.614952
     79          1           0       -2.348137    7.317542   -1.134682
     80         12           0        5.140760   -1.330548    0.264977
     81          6           0        6.279749    2.072218    0.319519
     82          6           0        5.314671   -1.177277   -3.138090
     83          6           0        3.715812   -4.163693    0.163714
     84          6           0        3.984269   -0.849637    3.517204
     85          7           0        5.735549    0.292815   -1.114581
     86          6           0        6.208730    1.522296   -0.977397
     87          6           0        6.704801    2.171543   -2.297218
     88          6           0        5.831012    1.309346   -3.332590
     89          6           0        5.639747    0.045007   -2.497412
     90          6           0        4.462867    1.909355   -3.611038
     91          6           0        8.242358    1.958956   -2.526879
     92          6           0        8.853249    2.824040   -3.631509
     93          1           0       10.216893    3.316172   -3.456194
     94          7           0        5.048251   -2.670064   -1.196424
     95          6           0        5.162063   -2.438352   -2.521057
     96          6           0        5.001927   -3.747033   -3.173634
     97          6           0        4.620243   -4.744446   -2.137194
     98          6           0        4.421996   -3.874937   -0.994937
     99          6           0        5.285451   -3.969797   -4.630829
    100          6           0        4.448093   -6.232853   -2.171949
    101          8           0        3.880311   -6.867566   -1.214035
    102          6           0        4.879503   -6.914171   -3.401249
    103          7           0        3.827478   -2.295235    1.556097
    104          6           0        3.400206   -3.544417    1.301348
    105          6           0        2.689728   -4.132411    2.497127
    106          6           0        2.941568   -3.103499    3.695246
    107          6           0        3.712599   -2.006445    2.928847
    108          6           0        1.187743   -4.362652    2.331590
    109          6           0        3.569122   -3.676991    4.995230
    110          6           0        4.992807   -4.112338    4.732567
    111          7           0        5.280926    0.232029    1.750492
    112          6           0        4.701146    0.239359    3.038084
    113          6           0        4.977142    1.563432    3.632297
    114          6           0        5.684084    2.248151    2.632357
    115          6           0        5.820270    1.417137    1.487640
    116          6           0        4.545806    2.006047    4.914547
    117          6           0        6.336842    3.488754    2.280938
    118          8           0        6.612992    4.525841    2.882555
    119          6           0        6.641606    3.475235    0.721026
    120          6           0        8.066070    3.915570    0.522224
    121          8           0        9.007231    3.219734    0.942518
    122          8           0        8.089112    4.967783   -0.316044
    123          6           0        9.481400    5.433793   -0.553063
    124          1           0        5.115759   -1.164283   -4.210076
    125          1           0        3.298729   -5.171676    0.222840
    126          1           0        3.742176   -0.656291    4.564425
    127          1           0        6.472050    3.224559   -2.400977
    128          1           0        6.393631    1.088184   -4.235863
    129          1           0        4.257339    2.756749   -2.973995
    130          1           0        3.750591    1.115814   -3.426619
    131          1           0        4.369113    2.157915   -4.672058
    132          1           0        8.405759    0.962330   -2.956739
    133          1           0        8.787175    2.100887   -1.613836
    134          1           0        8.185656    3.640653   -3.932198
    135          1           0        8.954698    2.215033   -4.533082
    136          1           0        5.387465   -3.020206   -5.170523
    137          1           0        4.392106   -4.433333   -5.063187
    138          1           0        6.140954   -4.627764   -4.797707
    139          1           0        4.332606   -6.509312   -4.249461
    140          1           0        4.760335   -7.980815   -3.201395
    141          1           0        5.938041   -6.689148   -3.572900
    142          1           0        3.112486   -5.093160    2.764259
    143          1           0        2.004036   -2.644656    4.042140
    144          1           0        0.884969   -5.412055    2.508124
    145          1           0        0.901481   -4.046416    1.337317
    146          1           0        0.553202   -3.742868    2.962808
    147          1           0        3.025970   -4.569198    5.316340
    148          1           0        3.558904   -2.977805    5.824700
    149          1           0        4.870377   -5.112687    4.306661
    150          1           0        5.560708   -4.145079    5.660177
    151          1           0        5.461840   -3.483305    3.967080
    152          1           0        5.386420    2.514830    5.367310
    153          1           0        4.205666    1.174669    5.528451
    154          1           0        3.723815    2.666804    4.626458
    155          1           0        5.933146    4.152793    0.242939
    156          1           0        9.511226    6.496461   -0.293185
    157          1           0        9.712143    5.164834   -1.600995
    158          1           0       10.258898    5.037094    0.089263
 ---------------------------------------------------------------------

 SCF Done:  E(RCAM-B3LYP) =  -4069.81147924     A.U. after   19 cycles

 Excitation energies and oscillator strengths:

 Excited State   1:      Singlet-A      1.6569 eV  748.27 nm  f=0.0031  <S**2>=0.000
     309 -> 315       -0.11258
     310 -> 316        0.12635
     311 -> 313       -0.45551
     312 -> 314        0.51445
 This state for optimization and/or second-order correction.
 Total Energy, E(TD-HF/TD-DFT) =  -4069.75058792
 Copying the excited state density for this state as the 1-particle RhoCI density.

 Excited State   2:      Singlet-A      1.6970 eV  730.60 nm  f=0.7171  <S**2>=0.000
     309 -> 315        0.13479
     310 -> 316        0.11859
     311 -> 313        0.51258
     312 -> 314        0.45389

 Excited State   3:      Singlet-A      2.1830 eV  567.96 nm  f=0.0316  <S**2>=0.000
     309 -> 313       -0.26150
     310 -> 314        0.58855
     311 -> 315        0.10893
     312 -> 316       -0.24722

 Excited State   4:      Singlet-A      2.1949 eV  564.88 nm  f=0.1516  <S**2>=0.000
     309 -> 313        0.58499
     310 -> 314        0.25829
     311 -> 315       -0.25630
     312 -> 316       -0.11465

 Excited State   5:      Singlet-A      2.4941 eV  497.10 nm  f=0.0000  <S**2>=0.000
     312 -> 313        0.70704

 The electronic state is 1-A.
 Alpha  occ. eigenvalues --  -46.87848 -46.87491 -19.26309 -19.26200 -19.19046
 Alpha  occ. eigenvalues --  -19.19008 -19.18831 -19.18579 -19.18196 -19.17860
 Alpha  occ. eigenvalues --  -14.42503 -14.42332 -14.41505 -14.41190 -14.39450
 Alpha  occ. eigenvalues --  -14.39188 -14.38636 -14.38423 -10.39107 -10.38933
 Alpha  occ. eigenvalues --  -10.35464 -10.35260 -10.34418 -10.34036 -10.31700
 Alpha  occ. eigenvalues --  -10.31627 -10.31459 -10.31137 -10.30959 -10.30871
 Alpha  occ. eigenvalues --  -10.30621 -10.30553 -10.30264 -10.30222 -10.30185
 Alpha  occ. eigenvalues --  -10.29987 -10.29974 -10.29714 -10.29675 -10.29301
 Alpha  occ. eigenvalues --  -10.29277 -10.29233 -10.28811 -10.28632 -10.28575
 Alpha  occ. eigenvalues --  -10.28556 -10.28409 -10.28237 -10.28177 -10.27993
 Alpha  occ. eigenvalues --  -10.27835 -10.27828 -10.27781 -10.27627 -10.27581
 Alpha  occ. eigenvalues --  -10.27537 -10.27514 -10.27512 -10.27451 -10.27371
 Alpha  occ. eigenvalues --  -10.27366 -10.27315 -10.27307 -10.27208 -10.27192
 Alpha  occ. eigenvalues --  -10.26862 -10.26785 -10.26572 -10.26416 -10.26323
 Alpha  occ. eigenvalues --  -10.26308 -10.26288 -10.26078 -10.26017 -10.25881
 Alpha  occ. eigenvalues --  -10.25866 -10.25767 -10.25616 -10.25485 -10.25203
 Alpha  occ. eigenvalues --  -10.24873 -10.24865 -10.24836 -10.24691 -10.24614
 Alpha  occ. eigenvalues --  -10.24520  -3.16591  -3.16241  -1.91472  -1.91123
 Alpha  occ. eigenvalues --   -1.91059  -1.90901  -1.90712  -1.90549  -1.16658
 Alpha  occ. eigenvalues --   -1.16493  -1.08653  -1.08464  -1.07230  -1.06833
 Alpha  occ. eigenvalues --   -1.06791  -1.06668  -1.04633  -1.04330  -1.03814
 Alpha  occ. eigenvalues --   -1.03496  -1.03283  -1.02869  -1.02461  -1.01940
 Alpha  occ. eigenvalues --   -0.92017  -0.91812  -0.89593  -0.89337  -0.89250
 Alpha  occ. eigenvalues --   -0.89004  -0.88356  -0.88061  -0.87914  -0.87730
 Alpha  occ. eigenvalues --   -0.87601  -0.87523  -0.87314  -0.86984  -0.85041
 Alpha  occ. eigenvalues --   -0.84852  -0.84015  -0.83719  -0.83008  -0.82805
 Alpha  occ. eigenvalues --   -0.82700  -0.82509  -0.81627  -0.81437  -0.80641
 Alpha  occ. eigenvalues --   -0.80286  -0.78842  -0.78482  -0.77283  -0.76995
 Alpha  occ. eigenvalues --   -0.76993  -0.76747  -0.75973  -0.75684  -0.74959
 Alpha  occ. eigenvalues --   -0.74636  -0.72826  -0.72528  -0.71723  -0.71414
 Alpha  occ. eigenvalues --   -0.70004  -0.69613  -0.68929  -0.68680  -0.67686
 Alpha  occ. eigenvalues --   -0.67441  -0.67277  -0.67068  -0.65345  -0.65120
 Alpha  occ. eigenvalues --   -0.64905  -0.64678  -0.64609  -0.64500  -0.64337
 Alpha  occ. eigenvalues --   -0.64047  -0.62338  -0.62123  -0.60488  -0.60192
 Alpha  occ. eigenvalues --   -0.59860  -0.59640  -0.59039  -0.58827  -0.58553
 Alpha  occ. eigenvalues --   -0.58262  -0.57621  -0.57378  -0.57360  -0.57077
 Alpha  occ. eigenvalues --   -0.56355  -0.56043  -0.56018  -0.55739  -0.55560
 Alpha  occ. eigenvalues --   -0.55401  -0.55305  -0.55086  -0.54580  -0.54334
 Alpha  occ. eigenvalues --   -0.53955  -0.53768  -0.53347  -0.53268  -0.53074
 Alpha  occ. eigenvalues --   -0.52993  -0.52965  -0.52800  -0.52753  -0.52546
 Alpha  occ. eigenvalues --   -0.52538  -0.52265  -0.51956  -0.51671  -0.51668
 Alpha  occ. eigenvalues --   -0.51520  -0.51250  -0.51037  -0.50613  -0.50359
 Alpha  occ. eigenvalues --   -0.50109  -0.49961  -0.49836  -0.49713  -0.49559
 Alpha  occ. eigenvalues --   -0.49346  -0.49256  -0.49149  -0.49046  -0.48940
 Alpha  occ. eigenvalues --   -0.48638  -0.48513  -0.48475  -0.48397  -0.48209
 Alpha  occ. eigenvalues --   -0.48195  -0.47749  -0.47451  -0.47343  -0.46971
 Alpha  occ. eigenvalues --   -0.46861  -0.46613  -0.46553  -0.46413  -0.46412
 Alpha  occ. eigenvalues --   -0.46212  -0.46112  -0.45909  -0.45864  -0.45647
 Alpha  occ. eigenvalues --   -0.45265  -0.45041  -0.44620  -0.44565  -0.44359
 Alpha  occ. eigenvalues --   -0.44320  -0.44212  -0.44142  -0.44057  -0.43973
 Alpha  occ. eigenvalues --   -0.43930  -0.43790  -0.43538  -0.43445  -0.43398
 Alpha  occ. eigenvalues --   -0.43227  -0.43079  -0.42777  -0.42764  -0.42731
 Alpha  occ. eigenvalues --   -0.42709  -0.42404  -0.42087  -0.41818  -0.41752
 Alpha  occ. eigenvalues --   -0.41597  -0.41498  -0.41315  -0.41193  -0.40941
 Alpha  occ. eigenvalues --   -0.40856  -0.40827  -0.40641  -0.40591  -0.40560
 Alpha  occ. eigenvalues --   -0.40338  -0.40302  -0.40101  -0.39550  -0.39284
 Alpha  occ. eigenvalues --   -0.38540  -0.38193  -0.37817  -0.37519  -0.37386
 Alpha  occ. eigenvalues --   -0.37321  -0.37109  -0.37046  -0.36754  -0.36618
 Alpha  occ. eigenvalues --   -0.36244  -0.36059  -0.34337  -0.34085  -0.33800
 Alpha  occ. eigenvalues --   -0.33705  -0.33235  -0.33008  -0.31363  -0.31136
 Alpha  occ. eigenvalues --   -0.31083  -0.30807  -0.30056  -0.29763  -0.29489
 Alpha  occ. eigenvalues --   -0.29363  -0.29169  -0.29026  -0.24131  -0.23865
 Alpha  occ. eigenvalues --   -0.21179  -0.20950
 Alpha virt. eigenvalues --   -0.08820  -0.08624  -0.01799  -0.01520  -0.00093
 Alpha virt. eigenvalues --    0.00122   0.02161   0.02391   0.03035   0.03386
 Alpha virt. eigenvalues --    0.04657   0.04888   0.05069   0.05324   0.06104

 Mulliken charges:
               1
     1  Mg   0.838652
     2  C   -0.002874
     3  C   -0.094406
     4  C   -0.045682
     5  C   -0.064210
     6  N   -0.256742
     7  C   -0.052585
     8  C   -0.013946
     9  C   -0.086976
    10  C    0.046295
    11  C    0.104800
    12  C    0.053599
    13  C   -0.071539
    14  H    0.035537
    15  N   -0.433191
    16  C    0.168466
    17  C   -0.177240
    18  C   -0.003749
    19  C    0.148773
    20  C    0.110263
    21  C    0.012892
    22  O   -0.249077
    23  C    0.062356
    24  N   -0.341000
    25  C    0.041028
    26  C   -0.028321
    27  C   -0.023944
    28  C    0.074521
    29  C    0.076084
    30  C    0.035339
    31  C   -0.005711
    32  N   -0.310492
    33  C    0.080261
    34  C   -0.169821
    35  C    0.008543
    36  C    0.082946
    37  C    0.127297
    38  C    0.046295
    39  O   -0.187882
    40  C   -0.005448
    41  C    0.213023
    42  O   -0.257004
    43  O   -0.304839
    44  C    0.157503
    45  H   -0.017660
    46  H   -0.016564
    47  H   -0.041653
    48  H    0.001107
    49  H   -0.004348
    50  H    0.025629
    51  H    0.016550
    52  H    0.016629
    53  H    0.010690
    54  H    0.044167
    55  H    0.018206
    56  H    0.017515
    57  H    0.005595
    58  H    0.026985
    59  H    0.039205
    60  H    0.037011
    61  H    0.036423
    62  H    0.031437
    63  H    0.016620
    64  H    0.009735
    65  H    0.023462
    66  H    0.012734
    67  H    0.004818
    68  H    0.006598
    69  H    0.004722
    70  H    0.009547
    71  H    0.016358
    72  H    0.029405
    73  H    0.047840
    74  H    0.008804
    75  H    0.046204
    76  H    0.035240
    77  H    0.043361
    78  H    0.045958
    79  H    0.054069
    80  Mg   0.838294
    81  C   -0.016558
    82  C   -0.088114
    83  C   -0.045659
    84  C   -0.064000
    85  N   -0.254506
    86  C   -0.049224
    87  C   -0.015141
    88  C   -0.090677
    89  C    0.045959
    90  C    0.114450
    91  C    0.062634
    92  C   -0.077588
    93  H    0.034486
    94  N   -0.423368
    95  C    0.162803
    96  C   -0.175429
    97  C   -0.008119
    98  C    0.151851
    99  C    0.099775
   100  C    0.015163
   101  O   -0.253128
   102  C    0.061390
   103  N   -0.349906
   104  C    0.037442
   105  C   -0.019906
   106  C   -0.034726
   107  C    0.089156
   108  C    0.073128
   109  C    0.034691
   110  C   -0.007547
   111  N   -0.324416
   112  C    0.078959
   113  C   -0.162030
   114  C    0.003049
   115  C    0.096426
   116  C    0.131079
   117  C    0.043270
   118  O   -0.187331
   119  C    0.000573
   120  C    0.211108
   121  O   -0.251374
   122  O   -0.305426
   123  C    0.152161
   124  H   -0.020706
   125  H   -0.015522
   126  H   -0.040384
   127  H   -0.000466
   128  H   -0.005089
   129  H    0.023994
   130  H    0.014565
   131  H    0.014882
   132  H    0.013700
   133  H    0.037654
   134  H    0.020661
   135  H    0.019160
   136  H    0.008165
   137  H    0.024873
   138  H    0.039311
   139  H    0.037472
   140  H    0.036101
   141  H    0.033697
   142  H    0.014025
   143  H    0.012442
   144  H    0.025283
   145  H    0.012132
   146  H    0.006239
   147  H    0.005700
   148  H    0.003403
   149  H    0.010831
   150  H    0.017569
   151  H    0.030266
   152  H    0.045607
   153  H    0.007878
   154  H    0.049977
   155  H    0.036385
   156  H    0.043851
   157  H    0.049119
   158  H    0.053357
 Sum of Mulliken charges =  -0.00000

 Dipole moment (field-independent basis, Debye):
    X=             -3.4033    Y=             -2.0251    Z=             -7.8962  Tot=              8.8336
 Quadrupole moment (field-independent basis, Debye-Ang):
   XX=           -507.1888   YY=           -555.6016   ZZ=           -446.5945
   XY=             -6.1972   XZ=            -21.8824   YZ=            -36.9425

 Normal termination of Gaussian 16 at Fri Sep 10 15:35:04 2021.
