 Gaussian 16, Revision A.03,
 Gaussian 16:  ES64L-G16RevA.03 25-Dec-2016

 -----------------------------------
 #p cam-b3lyp/Def2SVP td=(nstates=5)
 -----------------------------------

 --------------------------------
 TDDFT excited states in gaussian
 --------------------------------
 Symbolic Z-matrix:
 Charge =  0 Multiplicity = 1

                         Standard orientation:
 ---------------------------------------------------------------------
 Center     Atomic      Atomic             Coordinates (Angstroms)
 Number     Number       Type             X           Y           Z
 ---------------------------------------------------------------------
      1         12           0       -3.923181   -0.321699    0.456541
      2          6           0       -3.762129    3.229234    0.035649
      3          6           0       -5.146803   -0.493715   -2.724060
      4          6           0       -4.500703   -3.398760    0.961307
      5          6           0       -3.779870    0.227586    3.895059
      6          7           0       -4.353423    1.239203   -1.053135
      7          6           0       -4.191247    2.557348   -1.111116
      8          6           0       -4.447990    3.149633   -2.529092
      9          6           0       -5.398802    2.009179   -3.109885
     10          6           0       -4.914711    0.839144   -2.271675
     11          6           0       -6.877883    2.242693   -2.819553
     12          6           0       -3.131344    3.279330   -3.366561
     13          6           0       -3.240802    4.142932   -4.626547
     14          1           0       -2.098991    4.954181   -5.020869
     15          7           0       -4.240506   -1.792527   -0.823624
     16          6           0       -4.727218   -1.679308   -2.082822
     17          6           0       -4.778065   -3.054024   -2.625271
     18          6           0       -4.460731   -3.993636   -1.514180
     19          6           0       -4.413061   -3.089164   -0.393896
     20          6           0       -5.053114   -3.360658   -4.065435
     21          6           0       -4.246441   -5.473512   -1.467513
     22          8           0       -4.211129   -6.121252   -0.365805
     23          6           0       -4.166281   -6.166951   -2.765881
     24          7           0       -4.335782   -1.425039    2.179921
     25          6           0       -4.487996   -2.752910    2.129195
     26          6           0       -4.491946   -3.354924    3.503059
     27          6           0       -4.065158   -2.183186    4.500373
     28          6           0       -3.964061   -1.026349    3.475786
     29          6           0       -5.825388   -3.958312    3.965514
     30          6           0       -2.854071   -2.455201    5.427570
     31          6           0       -1.590618   -2.562357    4.603372
     32          7           0       -3.616454    1.387733    1.758387
     33          6           0       -3.617919    1.390538    3.160765
     34          6           0       -3.478565    2.794221    3.590092
     35          6           0       -3.422007    3.516822    2.399927
     36          6           0       -3.546211    2.623945    1.297368
     37          6           0       -3.477994    3.258156    4.935157
     38          6           0       -3.310288    4.838086    1.803572
     39          8           0       -3.086922    5.969205    2.237358
     40          6           0       -3.648325    4.717771    0.252095
     41          6           0       -2.579849    5.458703   -0.504667
     42          8           0       -1.401950    5.046669   -0.516783
     43          8           0       -3.151227    6.391256   -1.282108
     44          6           0       -2.148196    7.143248   -2.082478
     45          1           0       -5.754662   -0.649559   -3.617459
     46          1           0       -4.589069   -4.464907    1.180303
     47          1           0       -3.642804    0.467088    4.951139
     48          1           0       -4.969119    4.107142   -2.534164
     49          1           0       -5.210623    1.821641   -4.166834
     50          1           0       -7.023389    3.089278   -2.148702
     51          1           0       -7.231867    1.322727   -2.353881
     52          1           0       -7.442922    2.346090   -3.746277
     53          1           0       -2.898265    2.316515   -3.821228
     54          1           0       -2.314244    3.648927   -2.746019
     55          1           0       -4.151575    4.742406   -4.620989
     56          1           0       -3.357187    3.481351   -5.485014
     57          1           0       -5.411195   -2.482102   -4.600657
     58          1           0       -5.893601   -4.054026   -4.088454
     59          1           0       -4.192322   -3.809826   -4.561033
     60          1           0       -5.089104   -5.998552   -3.321389
     61          1           0       -3.921902   -7.203947   -2.538356
     62          1           0       -3.366742   -5.718984   -3.356654
     63          1           0       -3.769755   -4.167028    3.576229
     64          1           0       -4.869926   -1.915945    5.185649
     65          1           0       -5.755353   -5.008252    4.250866
     66          1           0       -6.553738   -3.817726    3.167370
     67          1           0       -6.303767   -3.431428    4.790719
     68          1           0       -2.979798   -3.404687    5.946816
     69          1           0       -2.707028   -1.681798    6.181544
     70          1           0       -1.604783   -3.599359    4.269816
     71          1           0       -0.714894   -2.363139    5.221945
     72          1           0       -1.640721   -1.933393    3.714339
     73          1           0       -2.679765    3.997248    5.002555
     74          1           0       -3.319760    2.439153    5.636440
     75          1           0       -4.481003    3.678969    5.004039
     76          1           0       -4.633082    5.161977    0.110469
     77          1           0       -2.287753    8.201172   -1.859869
     78          1           0       -2.273992    6.822966   -3.116886
     79          1           0       -1.104411    7.008733   -1.796544
     80         12           0        3.930822   -1.220001   -0.336538
     81          6           0        4.211973    2.236511    0.586790
     82          6           0        2.858815   -0.160892   -3.396551
     83          6           0        3.244185   -4.238974   -1.030611
     84          6           0        3.913323   -1.983265    3.063885
     85          7           0        3.618000    0.802137   -1.176388
     86          6           0        3.816836    2.041326   -0.753057
     87          6           0        3.656499    3.128908   -1.848975
     88          6           0        2.694934    2.321508   -2.850149
     89          6           0        3.101598    0.895833   -2.483056
     90          6           0        1.218156    2.492995   -2.535412
     91          6           0        5.020756    3.494298   -2.532578
     92          6           0        4.991288    4.761306   -3.390243
     93          1           0        6.179794    5.609256   -3.420310
     94          7           0        3.637677   -2.099671   -2.091193
     95          6           0        3.223242   -1.515681   -3.235075
     96          6           0        3.145734   -2.594382   -4.232356
     97          6           0        3.389495   -3.889965   -3.541888
     98          6           0        3.413153   -3.452180   -2.160630
     99          6           0        2.942070   -2.335458   -5.696903
    100          6           0        3.558866   -5.292925   -4.041126
    101          8           0        3.523657   -6.298862   -3.247589
    102          6           0        3.673693   -5.461290   -5.497124
    103          7           0        3.410383   -2.853792    0.839145
    104          6           0        3.216439   -4.066173    0.291011
    105          6           0        3.124546   -5.136338    1.352474
    106          6           0        3.540460   -4.420929    2.720965
    107          6           0        3.722577   -2.976227    2.206098
    108          6           0        1.754352   -5.793294    1.517911
    109          6           0        4.697281   -5.068493    3.530345
    110          6           0        5.997084   -4.934721    2.770082
    111          7           0        4.225077   -0.127754    1.504238
    112          6           0        4.148973   -0.636386    2.819381
    113          6           0        4.307735    0.508855    3.738959
    114          6           0        4.443225    1.616316    2.888285
    115          6           0        4.353597    1.194010    1.534358
    116          6           0        4.265763    0.446402    5.160396
    117          6           0        4.631059    3.048023    2.827961
    118          8           0        4.857712    3.930039    3.655257
    119          6           0        4.363111    3.530490    1.337376
    120          6           0        5.487230    4.445928    0.936323
    121          8           0        6.647735    4.012113    0.828393
    122          8           0        4.974844    5.624369    0.537439
    123          6           0        6.050489    6.562414    0.119225
    124          1           0        2.298701    0.057959   -4.306091
    125          1           0        3.114953   -5.307927   -1.215361
    126          1           0        4.017302   -2.151522    4.137917
    127          1           0        3.169552    4.038524   -1.518445
    128          1           0        2.938977    2.532334   -3.888109
    129          1           0        1.062795    3.036369   -1.615222
    130          1           0        0.816094    1.491459   -2.455876
    131          1           0        0.703916    2.957883   -3.381441
    132          1           0        5.244497    2.748746   -3.306416
    133          1           0        5.804074    3.569520   -1.803625
    134          1           0        4.093857    5.363905   -3.204653
    135          1           0        4.905076    4.468234   -4.439389
    136          1           0        2.629586   -1.300465   -5.882772
    137          1           0        2.084001   -2.939008   -6.012038
    138          1           0        3.809958   -2.613808   -6.298534
    139          1           0        2.787093   -5.055597   -5.978610
    140          1           0        3.877818   -6.522322   -5.653414
    141          1           0        4.523849   -4.868033   -5.851942
    142          1           0        3.820502   -5.941453    1.151175
    143          1           0        2.706500   -4.396314    3.437714
    144          1           0        1.779589   -6.892495    1.394710
    145          1           0        1.073323   -5.346387    0.805854
    146          1           0        1.258920   -5.595482    2.466930
    147          1           0        4.519260   -6.139473    3.654698
    148          1           0        4.820559   -4.645292    4.521656
    149          1           0        5.963420   -5.777771    2.073504
    150          1           0        6.846151   -5.014767    3.445896
    151          1           0        6.011456   -4.014909    2.173935
    152          1           0        5.072826    1.068811    5.523352
    153          1           0        4.361167   -0.577296    5.516367
    154          1           0        3.267894    0.853562    5.344129
    155          1           0        3.397829    4.038104    1.325873
    156          1           0        5.927562    7.474154    0.711929
    157          1           0        5.953110    6.658295   -0.978534
    158          1           0        7.072387    6.291456    0.357463
 ---------------------------------------------------------------------

 SCF Done:  E(RCAM-B3LYP) =  -4069.81284363     A.U. after   19 cycles

 Excitation energies and oscillator strengths:

 Excited State   1:      Singlet-A      1.6396 eV  756.19 nm  f=0.0202  <S**2>=0.000
     309 -> 315       -0.11185
     310 -> 316        0.12048
     311 -> 313       -0.46454
     312 -> 314        0.50773
 This state for optimization and/or second-order correction.
 Total Energy, E(TD-HF/TD-DFT) =  -4069.75259007
 Copying the excited state density for this state as the 1-particle RhoCI density.

 Excited State   2:      Singlet-A      1.7075 eV  726.13 nm  f=0.6584  <S**2>=0.000
     309 -> 315        0.13533
     310 -> 316        0.12143
     311 -> 313        0.50449
     312 -> 314        0.46156

 Excited State   3:      Singlet-A      2.1765 eV  569.65 nm  f=0.0235  <S**2>=0.000
     309 -> 313       -0.29905
     310 -> 314        0.57327
     311 -> 315        0.12134
     312 -> 316       -0.23388

 Excited State   4:      Singlet-A      2.1988 eV  563.88 nm  f=0.1470  <S**2>=0.000
     309 -> 313        0.56642
     310 -> 314        0.29299
     311 -> 315       -0.25189
     312 -> 316       -0.13169

 Excited State   5:      Singlet-A      2.2200 eV  558.50 nm  f=0.0000  <S**2>=0.000
     312 -> 313        0.70701

 The electronic state is 1-A.
 Alpha  occ. eigenvalues --  -46.87940 -46.87351 -19.26645 -19.25913 -19.19458
 Alpha  occ. eigenvalues --  -19.18879 -19.18756 -19.18515 -19.18309 -19.17679
 Alpha  occ. eigenvalues --  -14.42613 -14.42154 -14.41595 -14.41051 -14.39537
 Alpha  occ. eigenvalues --  -14.39056 -14.38725 -14.38285 -10.39470 -10.38672
 Alpha  occ. eigenvalues --  -10.35508 -10.35202 -10.34542 -10.33840 -10.32039
 Alpha  occ. eigenvalues --  -10.31580 -10.31373 -10.31095 -10.30933 -10.30718
 Alpha  occ. eigenvalues --  -10.30664 -10.30634 -10.30338 -10.30099 -10.30056
 Alpha  occ. eigenvalues --  -10.30044 -10.29878 -10.29754 -10.29584 -10.29378
 Alpha  occ. eigenvalues --  -10.29166 -10.29119 -10.29024 -10.28985 -10.28514
 Alpha  occ. eigenvalues --  -10.28348 -10.28340 -10.28206 -10.28077 -10.27915
 Alpha  occ. eigenvalues --  -10.27884 -10.27706 -10.27704 -10.27633 -10.27615
 Alpha  occ. eigenvalues --  -10.27606 -10.27579 -10.27574 -10.27379 -10.27350
 Alpha  occ. eigenvalues --  -10.27330 -10.27273 -10.27199 -10.27133 -10.27109
 Alpha  occ. eigenvalues --  -10.27093 -10.26564 -10.26429 -10.26417 -10.26334
 Alpha  occ. eigenvalues --  -10.26316 -10.26310 -10.26154 -10.25941 -10.25890
 Alpha  occ. eigenvalues --  -10.25654 -10.25619 -10.25545 -10.25163 -10.25064
 Alpha  occ. eigenvalues --  -10.24960 -10.24927 -10.24871 -10.24562 -10.24540
 Alpha  occ. eigenvalues --  -10.24380  -3.16682  -3.16102  -1.91563  -1.91151
 Alpha  occ. eigenvalues --   -1.90992  -1.90984  -1.90572  -1.90409  -1.16997
 Alpha  occ. eigenvalues --   -1.16215  -1.08780  -1.08271  -1.07275  -1.07033
 Alpha  occ. eigenvalues --   -1.06774  -1.06539  -1.04749  -1.04145  -1.03906
 Alpha  occ. eigenvalues --   -1.03369  -1.03345  -1.02739  -1.02552  -1.01799
 Alpha  occ. eigenvalues --   -0.92146  -0.91619  -0.89667  -0.89436  -0.89213
 Alpha  occ. eigenvalues --   -0.88671  -0.88432  -0.87983  -0.87937  -0.87850
 Alpha  occ. eigenvalues --   -0.87508  -0.87381  -0.87354  -0.86904  -0.85214
 Alpha  occ. eigenvalues --   -0.84605  -0.84092  -0.83596  -0.83067  -0.82843
 Alpha  occ. eigenvalues --   -0.82740  -0.82280  -0.81816  -0.81239  -0.80776
 Alpha  occ. eigenvalues --   -0.80112  -0.78916  -0.78381  -0.77399  -0.77165
 Alpha  occ. eigenvalues --   -0.76827  -0.76509  -0.76132  -0.75404  -0.75052
 Alpha  occ. eigenvalues --   -0.74475  -0.72914  -0.72391  -0.71840  -0.71194
 Alpha  occ. eigenvalues --   -0.70059  -0.69497  -0.69082  -0.68454  -0.67802
 Alpha  occ. eigenvalues --   -0.67448  -0.67300  -0.66888  -0.65518  -0.65042
 Alpha  occ. eigenvalues --   -0.64868  -0.64820  -0.64441  -0.64420  -0.64293
 Alpha  occ. eigenvalues --   -0.63911  -0.62547  -0.61914  -0.60559  -0.60091
 Alpha  occ. eigenvalues --   -0.60010  -0.59380  -0.59151  -0.58673  -0.58664
 Alpha  occ. eigenvalues --   -0.58094  -0.57816  -0.57461  -0.57165  -0.56927
 Alpha  occ. eigenvalues --   -0.56469  -0.56250  -0.55913  -0.55658  -0.55531
 Alpha  occ. eigenvalues --   -0.55516  -0.55157  -0.54932  -0.54754  -0.54157
 Alpha  occ. eigenvalues --   -0.54147  -0.53486  -0.53436  -0.53402  -0.53159
 Alpha  occ. eigenvalues --   -0.52953  -0.52892  -0.52812  -0.52599  -0.52581
 Alpha  occ. eigenvalues --   -0.52368  -0.52160  -0.52016  -0.51829  -0.51614
 Alpha  occ. eigenvalues --   -0.51372  -0.51296  -0.50867  -0.50665  -0.50290
 Alpha  occ. eigenvalues --   -0.50185  -0.50058  -0.49693  -0.49662  -0.49583
 Alpha  occ. eigenvalues --   -0.49391  -0.49295  -0.49145  -0.48865  -0.48805
 Alpha  occ. eigenvalues --   -0.48621  -0.48602  -0.48551  -0.48181  -0.48104
 Alpha  occ. eigenvalues --   -0.48043  -0.47872  -0.47451  -0.47256  -0.46971
 Alpha  occ. eigenvalues --   -0.46845  -0.46791  -0.46517  -0.46387  -0.46321
 Alpha  occ. eigenvalues --   -0.46160  -0.46012  -0.45987  -0.45769  -0.45459
 Alpha  occ. eigenvalues --   -0.45346  -0.44887  -0.44757  -0.44679  -0.44302
 Alpha  occ. eigenvalues --   -0.44286  -0.44191  -0.44168  -0.44139  -0.43814
 Alpha  occ. eigenvalues --   -0.43712  -0.43692  -0.43627  -0.43575  -0.43198
 Alpha  occ. eigenvalues --   -0.43187  -0.43027  -0.42969  -0.42818  -0.42577
 Alpha  occ. eigenvalues --   -0.42522  -0.42290  -0.42201  -0.41878  -0.41760
 Alpha  occ. eigenvalues --   -0.41657  -0.41311  -0.41303  -0.41098  -0.41089
 Alpha  occ. eigenvalues --   -0.40960  -0.40729  -0.40608  -0.40521  -0.40477
 Alpha  occ. eigenvalues --   -0.40342  -0.40140  -0.39852  -0.39602  -0.39181
 Alpha  occ. eigenvalues --   -0.38641  -0.38058  -0.38038  -0.37479  -0.37471
 Alpha  occ. eigenvalues --   -0.37308  -0.37027  -0.36958  -0.36829  -0.36410
 Alpha  occ. eigenvalues --   -0.36395  -0.35875  -0.34441  -0.34137  -0.33928
 Alpha  occ. eigenvalues --   -0.33474  -0.33345  -0.32863  -0.31418  -0.31191
 Alpha  occ. eigenvalues --   -0.31070  -0.30637  -0.30176  -0.29571  -0.29565
 Alpha  occ. eigenvalues --   -0.29444  -0.29066  -0.28904  -0.24235  -0.23710
 Alpha  occ. eigenvalues --   -0.21270  -0.20804
 Alpha virt. eigenvalues --   -0.08908  -0.08493  -0.01890  -0.01384  -0.00179
 Alpha virt. eigenvalues --    0.00250   0.02060   0.02383   0.02636   0.03634
 Alpha virt. eigenvalues --    0.04450   0.04669   0.05093   0.05579   0.05752

 Mulliken charges:
               1
     1  Mg   0.838721
     2  C   -0.004222
     3  C   -0.095164
     4  C   -0.045347
     5  C   -0.063309
     6  N   -0.256656
     7  C   -0.053550
     8  C   -0.013278
     9  C   -0.086761
    10  C    0.045968
    11  C    0.104765
    12  C    0.048947
    13  C   -0.071826
    14  H    0.032908
    15  N   -0.433369
    16  C    0.168719
    17  C   -0.177241
    18  C   -0.003042
    19  C    0.149033
    20  C    0.110264
    21  C    0.013623
    22  O   -0.249188
    23  C    0.062125
    24  N   -0.340871
    25  C    0.041210
    26  C   -0.028318
    27  C   -0.023861
    28  C    0.074606
    29  C    0.076066
    30  C    0.035006
    31  C   -0.005344
    32  N   -0.310705
    33  C    0.080528
    34  C   -0.168631
    35  C    0.008757
    36  C    0.082954
    37  C    0.126993
    38  C    0.046227
    39  O   -0.187285
    40  C   -0.006227
    41  C    0.215463
    42  O   -0.259454
    43  O   -0.303804
    44  C    0.157455
    45  H   -0.017739
    46  H   -0.016462
    47  H   -0.040953
    48  H    0.001150
    49  H   -0.004850
    50  H    0.025777
    51  H    0.017123
    52  H    0.016767
    53  H    0.010249
    54  H    0.046521
    55  H    0.019740
    56  H    0.017928
    57  H    0.005100
    58  H    0.027334
    59  H    0.039224
    60  H    0.036672
    61  H    0.037129
    62  H    0.032519
    63  H    0.016285
    64  H    0.009921
    65  H    0.023436
    66  H    0.012764
    67  H    0.005053
    68  H    0.006202
    69  H    0.005328
    70  H    0.007719
    71  H    0.017138
    72  H    0.031064
    73  H    0.049444
    74  H    0.009440
    75  H    0.046108
    76  H    0.035762
    77  H    0.044674
    78  H    0.045827
    79  H    0.052368
    80  Mg   0.836475
    81  C   -0.015944
    82  C   -0.088226
    83  C   -0.046248
    84  C   -0.066135
    85  N   -0.255159
    86  C   -0.046624
    87  C   -0.015469
    88  C   -0.091728
    89  C    0.046552
    90  C    0.109286
    91  C    0.062588
    92  C   -0.076780
    93  H    0.032989
    94  N   -0.423367
    95  C    0.162874
    96  C   -0.176252
    97  C   -0.008836
    98  C    0.151938
    99  C    0.100398
   100  C    0.014336
   101  O   -0.253660
   102  C    0.061642
   103  N   -0.350501
   104  C    0.037573
   105  C   -0.019921
   106  C   -0.034638
   107  C    0.089556
   108  C    0.073289
   109  C    0.034857
   110  C   -0.007500
   111  N   -0.324509
   112  C    0.079370
   113  C   -0.163631
   114  C    0.003598
   115  C    0.095806
   116  C    0.131156
   117  C    0.043256
   118  O   -0.187193
   119  C    0.000041
   120  C    0.210290
   121  O   -0.252600
   122  O   -0.303414
   123  C    0.152648
   124  H   -0.021541
   125  H   -0.016162
   126  H   -0.041886
   127  H    0.005885
   128  H   -0.007839
   129  H    0.042376
   130  H    0.009542
   131  H    0.012488
   132  H    0.012487
   133  H    0.036999
   134  H    0.021320
   135  H    0.017942
   136  H    0.007859
   137  H    0.022922
   138  H    0.038971
   139  H    0.036329
   140  H    0.035585
   141  H    0.033886
   142  H    0.013649
   143  H    0.011699
   144  H    0.025233
   145  H    0.013978
   146  H    0.005185
   147  H    0.005778
   148  H    0.002723
   149  H    0.010779
   150  H    0.017238
   151  H    0.030495
   152  H    0.045821
   153  H    0.007259
   154  H    0.046829
   155  H    0.044433
   156  H    0.043898
   157  H    0.048649
   158  H    0.052366
 Sum of Mulliken charges =  -0.00000

 Dipole moment (field-independent basis, Debye):
    X=             -5.3199    Y=             -1.3575    Z=             -6.6671  Tot=              8.6368
 Quadrupole moment (field-independent basis, Debye-Ang):
   XX=           -519.2087   YY=           -545.4555   ZZ=           -454.0576
   XY=             -5.7665   XZ=             -0.0034   YZ=            -45.1143

 Normal termination of Gaussian 16 at Fri Sep  3 14:14:48 2021.
