 Gaussian 16, Revision A.03,
 Gaussian 16:  ES64L-G16RevA.03 25-Dec-2016

 -----------------------------------
 #p cam-b3lyp/Def2SVP td=(nstates=5)
 -----------------------------------

 --------------------------------
 TDDFT excited states in gaussian
 --------------------------------
 Symbolic Z-matrix:
 Charge =  0 Multiplicity = 1

                         Standard orientation:
 ---------------------------------------------------------------------
 Center     Atomic      Atomic             Coordinates (Angstroms)
 Number     Number       Type             X           Y           Z
 ---------------------------------------------------------------------
      1         12           0        5.144358    0.816769    0.521657
      2          6           0        5.824017   -1.992312   -1.590059
      3          6           0        5.707060    2.805156   -2.193623
      4          6           0        4.996369    3.321365    2.461171
      5          6           0        5.750372   -1.271411    3.245241
      6          7           0        5.687604    0.347857   -1.572537
      7          6           0        5.859744   -0.771826   -2.268131
      8          6           0        6.006798   -0.530851   -3.800345
      9          6           0        6.518073    0.979004   -3.769780
     10          6           0        5.905835    1.416112   -2.450680
     11          6           0        8.034948    1.106772   -3.673524
     12          6           0        4.641300   -0.658121   -4.555956
     13          6           0        4.745229   -0.761161   -6.080402
     14          1           0        3.797559   -1.605990   -6.791412
     15          7           0        4.846469    2.728927    0.124462
     16          6           0        5.117698    3.366007   -1.039947
     17          6           0        4.720125    4.775559   -0.835542
     18          6           0        4.373056    4.946460    0.602661
     19          6           0        4.754780    3.662333    1.132457
     20          6           0        4.651222    5.780147   -1.944508
     21          6           0        3.799675    6.089826    1.378599
     22          8           0        3.793642    6.109225    2.656942
     23          6           0        3.319093    7.241200    0.593474
     24          7           0        5.556780    1.066293    2.552736
     25          6           0        5.353651    2.241170    3.158862
     26          6           0        5.444277    2.109022    4.650258
     27          6           0        5.512202    0.542454    4.951929
     28          6           0        5.531994    0.021930    3.493528
     29          6           0        6.639158    2.808583    5.312740
     30          6           0        4.453509   -0.032630    5.926026
     31          6           0        3.080450    0.047390    5.297215
     32          7           0        5.517032   -1.300603    0.819810
     33          6           0        5.764689   -1.949771    2.037973
     34          6           0        6.065690   -3.358493    1.723377
     35          6           0        5.987988   -3.427658    0.333764
     36          6           0        5.685103   -2.137761   -0.188461
     37          6           0        6.419094   -4.365407    2.664474
     38          6           0        6.114636   -4.285884   -0.832969
     39          8           0        6.266951   -5.495843   -1.007012
     40          6           0        6.133701   -3.365480   -2.132323
     41          6           0        5.174353   -3.961919   -3.125912
     42          8           0        3.947005   -3.976749   -2.900606
     43          8           0        5.819605   -4.202625   -4.277543
     44          6           0        4.917674   -4.767959   -5.316327
     45          1           0        6.088848    3.534557   -2.910668
     46          1           0        4.846569    4.134359    3.174642
     47          1           0        5.866093   -2.000338    4.049435
     48          1           0        6.745877   -1.164305   -4.291182
     49          1           0        6.106197    1.564833   -4.591295
     50          1           0        8.506888    0.137795   -3.511422
     51          1           0        8.218229    1.766206   -2.824968
     52          1           0        8.436365    1.622714   -4.546133
     53          1           0        4.094270    0.280754   -4.470330
     54          1           0        4.067340   -1.503893   -4.175737
     55          1           0        5.765274   -0.981575   -6.396367
     56          1           0        4.536694    0.221267   -6.504134
     57          1           0        5.122281    5.406796   -2.852945
     58          1           0        5.269388    6.626651   -1.646160
     59          1           0        3.631271    6.117130   -2.130181
     60          1           0        4.142310    7.642041    0.001706
     61          1           0        2.861827    7.923420    1.309249
     62          1           0        2.569745    6.894752   -0.118848
     63          1           0        4.563055    2.528106    5.134244
     64          1           0        6.465650    0.251978    5.393783
     65          1           0        6.354493    3.528631    6.080335
     66          1           0        7.227871    3.284594    4.529080
     67          1           0        7.373032    2.136920    5.757391
     68          1           0        4.421589    0.556257    6.842072
     69          1           0        4.643142   -1.069295    6.204623
     70          1           0        2.770786    1.068301    5.517853
     71          1           0        2.406908   -0.673825    5.761328
     72          1           0        3.132992   -0.049995    4.212668
     73          1           0        5.860554   -5.257399    2.381009
     74          1           0        6.182345   -4.056625    3.682416
     75          1           0        7.492323   -4.438000    2.489071
     76          1           0        7.158687   -3.365996   -2.501817
     77          1           0        5.359425   -5.707670   -5.648040
     78          1           0        4.774410   -3.985316   -6.061547
     79          1           0        3.940886   -5.109852   -4.972332
     80         12           0       -5.303088   -0.919560    0.497371
     81          6           0       -5.506032    1.589764   -2.060204
     82          6           0       -4.842272    1.612300    2.736097
     83          6           0       -4.671770   -3.114912    2.699484
     84          6           0       -4.639064   -3.235008   -2.021262
     85          7           0       -5.206698    1.276148    0.248715
     86          6           0       -5.358814    2.119433   -0.761277
     87          6           0       -5.433249    3.613338   -0.346213
     88          6           0       -4.650077    3.513697    1.052204
     89          6           0       -4.942291    2.053731    1.392510
     90          6           0       -3.145985    3.679819    0.912795
     91          6           0       -6.909639    4.104670   -0.144000
     92          6           0       -7.073845    5.622627   -0.041109
     93          1           0       -8.270810    6.233553   -0.612507
     94          7           0       -5.313254   -0.792053    2.477827
     95          6           0       -5.132778    0.318778    3.222649
     96          6           0       -5.209938   -0.119989    4.624680
     97          6           0       -5.286244   -1.606052    4.647606
     98          6           0       -5.067644   -1.902869    3.246113
     99          6           0       -5.286476    0.841310    5.775110
    100          6           0       -5.505300   -2.596737    5.750669
    101          8           0       -5.296635   -3.849991    5.581390
    102          6           0       -5.881248   -2.046336    7.061090
    103          7           0       -4.529819   -2.846244    0.386475
    104          6           0       -4.406225   -3.606078    1.488886
    105          6           0       -4.090787   -5.038906    1.131258
    106          6           0       -4.267700   -5.134655   -0.455286
    107          6           0       -4.581694   -3.654425   -0.764685
    108          6           0       -2.695732   -5.529432    1.518039
    109          6           0       -5.237341   -6.223525   -0.990860
    110          6           0       -6.658034   -5.887856   -0.597996
    111          7           0       -5.284098   -0.905162   -1.663070
    112          6           0       -4.953202   -1.977387   -2.520343
    113          6           0       -4.972019   -1.452576   -3.901158
    114          6           0       -5.292570   -0.095217   -3.748462
    115          6           0       -5.441760    0.209328   -2.368436
    116          6           0       -4.667563   -2.194365   -5.077243
    117          6           0       -5.528215    1.151625   -4.440234
    118          8           0       -5.623370    1.485700   -5.620520
    119          6           0       -5.552614    2.326537   -3.370007
    120          6           0       -6.756453    3.184109   -3.649074
    121          8           0       -7.904422    2.726786   -3.508995
    122          8           0       -6.359308    4.457807   -3.823231
    123          6           0       -7.519298    5.348909   -4.091894
    124          1           0       -4.465359    2.309778    3.484665
    125          1           0       -4.548924   -3.935148    3.410544
    126          1           0       -4.538957   -3.916018   -2.869128
    127          1           0       -4.919413    4.296017   -1.012328
    128          1           0       -5.086685    4.173648    1.797324
    129          1           0       -2.839249    3.719776   -0.121837
    130          1           0       -2.708336    2.820767    1.404255
    131          1           0       -2.809346    4.553995    1.477439
    132          1           0       -7.250990    3.810487    0.856837
    133          1           0       -7.547296    3.723868   -0.917952
    134          1           0       -6.174780    6.157728   -0.370194
    135          1           0       -7.173948    5.890127    1.013619
    136          1           0       -5.042541    1.863901    5.461733
    137          1           0       -4.484488    0.571839    6.470865
    138          1           0       -6.242096    0.793000    6.301523
    139          1           0       -5.110039   -1.357895    7.398340
    140          1           0       -6.080920   -2.912197    7.695346
    141          1           0       -6.798403   -1.458430    6.943547
    142          1           0       -4.789139   -5.718303    1.604358
    143          1           0       -3.317132   -5.365989   -0.958040
    144          1           0       -2.712489   -6.423744    2.169186
    145          1           0       -2.170066   -4.716784    2.001587
    146          1           0       -2.039911   -5.763240    0.681122
    147          1           0       -5.009634   -7.190480   -0.535556
    148          1           0       -5.187938   -6.354508   -2.066680
    149          1           0       -6.729548   -6.274241    0.423115
    150          1           0       -7.365720   -6.384772   -1.258512
    151          1           0       -6.807520   -4.802901   -0.551115
    152          1           0       -5.411163   -1.925960   -5.815844
    153          1           0       -4.667236   -3.264921   -4.883128
    154          1           0       -3.664700   -1.815887   -5.292394
    155          1           0       -4.620482    2.883323   -3.473474
    156          1           0       -7.314957    5.863509   -5.035883
    157          1           0       -7.628233    5.978057   -3.188538
    158          1           0       -8.471956    4.879939   -4.308575
 ---------------------------------------------------------------------

 SCF Done:  E(RCAM-B3LYP) =  -4069.81209274     A.U. after   19 cycles

 Excitation energies and oscillator strengths:

 Excited State   1:      Singlet-A      1.6720 eV  741.54 nm  f=0.3089  <S**2>=0.000
     310 -> 316       -0.15939
     311 -> 313        0.26773
     312 -> 314        0.63174
 This state for optimization and/or second-order correction.
 Total Energy, E(TD-HF/TD-DFT) =  -4069.75064869
 Copying the excited state density for this state as the 1-particle RhoCI density.

 Excited State   2:      Singlet-A      1.6787 eV  738.59 nm  f=0.3924  <S**2>=0.000
     309 -> 315       -0.16096
     311 -> 313        0.63119
     312 -> 314       -0.26744

 Excited State   3:      Singlet-A      2.1845 eV  567.57 nm  f=0.0954  <S**2>=0.000
     309 -> 313        0.12112
     310 -> 314        0.63137
     312 -> 316        0.26709

 Excited State   4:      Singlet-A      2.1918 eV  565.66 nm  f=0.1022  <S**2>=0.000
     309 -> 313        0.62925
     310 -> 314       -0.12043
     311 -> 315        0.27257

 Excited State   5:      Singlet-A      2.4847 eV  498.99 nm  f=0.0000  <S**2>=0.000
     312 -> 313        0.70709

 The electronic state is 1-A.
 Alpha  occ. eigenvalues --  -46.87885 -46.87500 -19.26351 -19.26315 -19.19106
 Alpha  occ. eigenvalues --  -19.19098 -19.18956 -19.18582 -19.18255 -19.17953
 Alpha  occ. eigenvalues --  -14.42530 -14.42345 -14.41540 -14.41181 -14.39496
 Alpha  occ. eigenvalues --  -14.39198 -14.38673 -14.38446 -10.39156 -10.39032
 Alpha  occ. eigenvalues --  -10.35591 -10.35262 -10.34473 -10.34132 -10.31745
 Alpha  occ. eigenvalues --  -10.31737 -10.31475 -10.31167 -10.30988 -10.30887
 Alpha  occ. eigenvalues --  -10.30651 -10.30603 -10.30305 -10.30241 -10.30213
 Alpha  occ. eigenvalues --  -10.30015 -10.29947 -10.29724 -10.29707 -10.29348
 Alpha  occ. eigenvalues --  -10.29274 -10.29257 -10.28794 -10.28621 -10.28601
 Alpha  occ. eigenvalues --  -10.28528 -10.28453 -10.28264 -10.28162 -10.28023
 Alpha  occ. eigenvalues --  -10.27882 -10.27859 -10.27804 -10.27683 -10.27606
 Alpha  occ. eigenvalues --  -10.27563 -10.27562 -10.27514 -10.27487 -10.27340
 Alpha  occ. eigenvalues --  -10.27339 -10.27323 -10.27253 -10.27235 -10.27113
 Alpha  occ. eigenvalues --  -10.26965 -10.26726 -10.26612 -10.26574 -10.26308
 Alpha  occ. eigenvalues --  -10.26296 -10.26276 -10.26107 -10.25917 -10.25905
 Alpha  occ. eigenvalues --  -10.25904 -10.25751 -10.25710 -10.25543 -10.25036
 Alpha  occ. eigenvalues --  -10.24921 -10.24885 -10.24815 -10.24735 -10.24535
 Alpha  occ. eigenvalues --  -10.24520  -3.16628  -3.16250  -1.91509  -1.91132
 Alpha  occ. eigenvalues --   -1.91096  -1.90938  -1.90721  -1.90558  -1.16702
 Alpha  occ. eigenvalues --   -1.16604  -1.08711  -1.08568  -1.07362  -1.06892
 Alpha  occ. eigenvalues --   -1.06835  -1.06719  -1.04661  -1.04349  -1.03850
 Alpha  occ. eigenvalues --   -1.03504  -1.03325  -1.02869  -1.02501  -1.01949
 Alpha  occ. eigenvalues --   -0.92055  -0.91855  -0.89618  -0.89307  -0.89237
 Alpha  occ. eigenvalues --   -0.89032  -0.88387  -0.88005  -0.87952  -0.87748
 Alpha  occ. eigenvalues --   -0.87651  -0.87529  -0.87379  -0.86984  -0.85043
 Alpha  occ. eigenvalues --   -0.84875  -0.84040  -0.83667  -0.83091  -0.82783
 Alpha  occ. eigenvalues --   -0.82725  -0.82528  -0.81660  -0.81496  -0.80681
 Alpha  occ. eigenvalues --   -0.80321  -0.78890  -0.78494  -0.77300  -0.77007
 Alpha  occ. eigenvalues --   -0.76998  -0.76759  -0.75990  -0.75723  -0.74992
 Alpha  occ. eigenvalues --   -0.74588  -0.72859  -0.72544  -0.71754  -0.71413
 Alpha  occ. eigenvalues --   -0.70013  -0.69540  -0.68943  -0.68703  -0.67733
 Alpha  occ. eigenvalues --   -0.67458  -0.67281  -0.67091  -0.65348  -0.65156
 Alpha  occ. eigenvalues --   -0.64937  -0.64700  -0.64626  -0.64523  -0.64366
 Alpha  occ. eigenvalues --   -0.64009  -0.62376  -0.62173  -0.60546  -0.60183
 Alpha  occ. eigenvalues --   -0.59867  -0.59672  -0.59073  -0.58836  -0.58591
 Alpha  occ. eigenvalues --   -0.58281  -0.57665  -0.57459  -0.57405  -0.57072
 Alpha  occ. eigenvalues --   -0.56396  -0.56072  -0.56047  -0.55796  -0.55618
 Alpha  occ. eigenvalues --   -0.55434  -0.55341  -0.55078  -0.54612  -0.54327
 Alpha  occ. eigenvalues --   -0.53947  -0.53797  -0.53398  -0.53302  -0.53082
 Alpha  occ. eigenvalues --   -0.53021  -0.53001  -0.52849  -0.52785  -0.52549
 Alpha  occ. eigenvalues --   -0.52547  -0.52200  -0.51995  -0.51746  -0.51684
 Alpha  occ. eigenvalues --   -0.51551  -0.51278  -0.51068  -0.50687  -0.50339
 Alpha  occ. eigenvalues --   -0.50131  -0.50020  -0.49847  -0.49655  -0.49596
 Alpha  occ. eigenvalues --   -0.49364  -0.49301  -0.49156  -0.49086  -0.48986
 Alpha  occ. eigenvalues --   -0.48668  -0.48573  -0.48543  -0.48444  -0.48222
 Alpha  occ. eigenvalues --   -0.48162  -0.47779  -0.47455  -0.47387  -0.46957
 Alpha  occ. eigenvalues --   -0.46880  -0.46613  -0.46553  -0.46448  -0.46424
 Alpha  occ. eigenvalues --   -0.46249  -0.46114  -0.45913  -0.45894  -0.45702
 Alpha  occ. eigenvalues --   -0.45300  -0.44989  -0.44660  -0.44600  -0.44395
 Alpha  occ. eigenvalues --   -0.44343  -0.44242  -0.44151  -0.44107  -0.44005
 Alpha  occ. eigenvalues --   -0.43916  -0.43825  -0.43573  -0.43461  -0.43448
 Alpha  occ. eigenvalues --   -0.43241  -0.43110  -0.42848  -0.42791  -0.42751
 Alpha  occ. eigenvalues --   -0.42743  -0.42363  -0.42097  -0.41805  -0.41790
 Alpha  occ. eigenvalues --   -0.41592  -0.41532  -0.41323  -0.41220  -0.40956
 Alpha  occ. eigenvalues --   -0.40925  -0.40835  -0.40662  -0.40600  -0.40565
 Alpha  occ. eigenvalues --   -0.40291  -0.40272  -0.40133  -0.39551  -0.39210
 Alpha  occ. eigenvalues --   -0.38560  -0.38144  -0.37796  -0.37545  -0.37412
 Alpha  occ. eigenvalues --   -0.37324  -0.37094  -0.37057  -0.36794  -0.36685
 Alpha  occ. eigenvalues --   -0.36275  -0.36047  -0.34372  -0.34100  -0.33852
 Alpha  occ. eigenvalues --   -0.33787  -0.33274  -0.33018  -0.31485  -0.31139
 Alpha  occ. eigenvalues --   -0.31124  -0.30820  -0.30112  -0.29861  -0.29548
 Alpha  occ. eigenvalues --   -0.29411  -0.29185  -0.29071  -0.24167  -0.23877
 Alpha  occ. eigenvalues --   -0.21215  -0.20958
 Alpha virt. eigenvalues --   -0.08866  -0.08642  -0.01844  -0.01518  -0.00162
 Alpha virt. eigenvalues --    0.00103   0.02109   0.02341   0.03016   0.03376
 Alpha virt. eigenvalues --    0.04653   0.04874   0.05022   0.05229   0.06144

 Mulliken charges:
               1
     1  Mg   0.838744
     2  C   -0.002949
     3  C   -0.093609
     4  C   -0.046374
     5  C   -0.063903
     6  N   -0.256843
     7  C   -0.052168
     8  C   -0.014118
     9  C   -0.087040
    10  C    0.046317
    11  C    0.104738
    12  C    0.053297
    13  C   -0.072199
    14  H    0.036807
    15  N   -0.433083
    16  C    0.168226
    17  C   -0.177041
    18  C   -0.004450
    19  C    0.148564
    20  C    0.110057
    21  C    0.011427
    22  O   -0.250458
    23  C    0.062758
    24  N   -0.341149
    25  C    0.041322
    26  C   -0.028047
    27  C   -0.023978
    28  C    0.074802
    29  C    0.076183
    30  C    0.035170
    31  C   -0.004505
    32  N   -0.310495
    33  C    0.080507
    34  C   -0.169596
    35  C    0.008358
    36  C    0.083020
    37  C    0.127325
    38  C    0.046019
    39  O   -0.188329
    40  C   -0.005274
    41  C    0.212975
    42  O   -0.257541
    43  O   -0.304613
    44  C    0.157795
    45  H   -0.017243
    46  H   -0.017371
    47  H   -0.041299
    48  H    0.001070
    49  H   -0.003466
    50  H    0.025482
    51  H    0.016316
    52  H    0.017015
    53  H    0.011695
    54  H    0.043855
    55  H    0.017797
    56  H    0.018704
    57  H    0.006508
    58  H    0.026853
    59  H    0.039479
    60  H    0.038052
    61  H    0.034709
    62  H    0.030901
    63  H    0.015680
    64  H    0.009687
    65  H    0.022849
    66  H    0.012751
    67  H    0.004981
    68  H    0.006004
    69  H    0.005320
    70  H    0.007257
    71  H    0.018864
    72  H    0.029253
    73  H    0.047616
    74  H    0.009345
    75  H    0.046185
    76  H    0.035421
    77  H    0.043053
    78  H    0.046921
    79  H    0.053108
    80  Mg   0.838082
    81  C   -0.017181
    82  C   -0.088075
    83  C   -0.045404
    84  C   -0.063079
    85  N   -0.254566
    86  C   -0.049990
    87  C   -0.015057
    88  C   -0.090444
    89  C    0.045657
    90  C    0.114319
    91  C    0.062608
    92  C   -0.077587
    93  H    0.034346
    94  N   -0.423482
    95  C    0.163000
    96  C   -0.174733
    97  C   -0.007897
    98  C    0.152270
    99  C    0.099441
   100  C    0.015321
   101  O   -0.253060
   102  C    0.061295
   103  N   -0.349957
   104  C    0.038281
   105  C   -0.020421
   106  C   -0.035096
   107  C    0.089026
   108  C    0.072575
   109  C    0.034595
   110  C   -0.007558
   111  N   -0.324071
   112  C    0.078331
   113  C   -0.162823
   114  C    0.001759
   115  C    0.096395
   116  C    0.131634
   117  C    0.041977
   118  O   -0.189111
   119  C    0.001061
   120  C    0.211157
   121  O   -0.250937
   122  O   -0.305985
   123  C    0.152140
   124  H   -0.019418
   125  H   -0.015337
   126  H   -0.039837
   127  H   -0.001725
   128  H   -0.004438
   129  H    0.021035
   130  H    0.015411
   131  H    0.016857
   132  H    0.014056
   133  H    0.037515
   134  H    0.020175
   135  H    0.019725
   136  H    0.008890
   137  H    0.025853
   138  H    0.039429
   139  H    0.037941
   140  H    0.036105
   141  H    0.033768
   142  H    0.013817
   143  H    0.015409
   144  H    0.024569
   145  H    0.012147
   146  H    0.010059
   147  H    0.006698
   148  H    0.003596
   149  H    0.010740
   150  H    0.017355
   151  H    0.029589
   152  H    0.045210
   153  H    0.008892
   154  H    0.047071
   155  H    0.033851
   156  H    0.043213
   157  H    0.049431
   158  H    0.053597
 Sum of Mulliken charges =  -0.00000

 Dipole moment (field-independent basis, Debye):
    X=              3.2665    Y=              5.4857    Z=              1.3639  Tot=              6.5286
 Quadrupole moment (field-independent basis, Debye-Ang):
   XX=           -520.5529   YY=           -506.1754   ZZ=           -492.3824
   XY=              7.5595   XZ=            -36.8993   YZ=              4.9684

 Normal termination of Gaussian 16 at Fri Sep 10 18:02:55 2021.
