 Gaussian 16, Revision A.03,
 Gaussian 16:  ES64L-G16RevA.03 25-Dec-2016

 -----------------------------------
 #p cam-b3lyp/Def2SVP td=(nstates=5)
 -----------------------------------

 --------------------------------
 TDDFT excited states in gaussian
 --------------------------------
 Symbolic Z-matrix:
 Charge =  0 Multiplicity = 1

                         Standard orientation:
 ---------------------------------------------------------------------
 Center     Atomic      Atomic             Coordinates (Angstroms)
 Number     Number       Type             X           Y           Z
 ---------------------------------------------------------------------
      1         12           0        7.694633   -0.847269    0.061426
      2          6           0        7.991501    2.092996   -1.958209
      3          6           0        8.592826    1.077106    2.732212
      4          6           0        7.881855   -3.507747    1.777066
      5          6           0        7.937398   -2.709384   -2.874430
      6          7           0        8.200702    1.300599    0.238071
      7          6           0        8.218715    2.331552   -0.600965
      8          6           0        8.427297    3.702512    0.109201
      9          6           0        9.154585    3.192164    1.433057
     10          6           0        8.589613    1.783929    1.493090
     11          6           0       10.671757    3.107492    1.300686
     12          6           0        7.071817    4.413975    0.438178
     13          6           0        7.186978    5.889650    0.831211
     14          1           0        6.138293    6.808896    0.415767
     15          7           0        7.688642   -1.112387    2.019110
     16          6           0        8.071678   -0.215111    2.959037
     17          6           0        7.882263   -0.885341    4.263489
     18          6           0        7.538195   -2.309753    3.997476
     19          6           0        7.717130   -2.374135    2.569465
     20          6           0        7.982013   -0.172365    5.577058
     21          6           0        7.125410   -3.437093    4.890138
     22          8           0        7.099200   -4.649866    4.486320
     23          6           0        6.833785   -3.091172    6.293111
     24          7           0        8.102519   -2.832840   -0.437342
     25          6           0        8.063599   -3.798559    0.487243
     26          6           0        8.106824   -5.159320   -0.142360
     27          6           0        7.937983   -4.925323   -1.712867
     28          6           0        7.907300   -3.377004   -1.718815
     29          6           0        9.379486   -5.977017    0.117862
     30          6           0        6.788752   -5.688531   -2.417992
     31          6           0        5.454012   -5.165293   -1.936547
     32          7           0        7.746169   -0.418662   -2.065705
     33          6           0        7.873532   -1.346160   -3.109831
     34          6           0        7.969557   -0.575304   -4.363079
     35          6           0        7.907645    0.756200   -3.956744
     36          6           0        7.807389    0.814045   -2.537274
     37          6           0        8.153853   -1.120067   -5.664502
     38          6           0        7.927663    2.144052   -4.389553
     39          8           0        7.903360    2.712026   -5.482397
     40          6           0        8.105460    3.067223   -3.104263
     41          6           0        7.086889    4.170835   -3.192924
     42          8           0        5.866855    3.924076   -3.103515
     43          8           0        7.710391    5.357353   -3.129970
     44          6           0        6.753997    6.495182   -3.182993
     45          1           0        9.090702    1.525353    3.594264
     46          1           0        7.840474   -4.453746    2.320953
     47          1           0        7.930026   -3.224184   -3.836916
     48          1           0        9.073844    4.398006   -0.426232
     49          1           0        8.848328    3.761059    2.310718
     50          1           0       10.992938    3.289018    0.275108
     51          1           0       10.934732    2.095259    1.608456
     52          1           0       11.160439    3.773520    2.012285
     53          1           0        6.667469    4.006238    1.364630
     54          1           0        6.372853    4.315791   -0.393167
     55          1           0        8.169016    6.292910    0.582432
     56          1           0        7.132997    5.958933    1.917713
     57          1           0        8.409332    0.822874    5.461112
     58          1           0        8.712541   -0.713281    6.178264
     59          1           0        7.026289   -0.140731    6.100435
     60          1           0        7.717590   -2.638761    6.743403
     61          1           0        6.469049   -4.006016    6.758814
     62          1           0        6.054604   -2.328687    6.314142
     63          1           0        7.288279   -5.782198    0.216015
     64          1           0        8.830155   -5.216127   -2.267968
     65          1           0        9.190073   -6.947734    0.576704
     66          1           0       10.045909   -5.375791    0.735679
     67          1           0        9.998357   -6.151775   -0.761840
     68          1           0        6.827303   -6.748034   -2.167164
     69          1           0        6.818680   -5.603592   -3.504335
     70          1           0        5.294041   -5.719913   -1.012622
     71          1           0        4.673382   -5.386868   -2.665061
     72          1           0        5.511238   -4.108186   -1.676285
     73          1           0        7.475328   -0.576300   -6.321686
     74          1           0        7.946773   -2.189886   -5.678921
     75          1           0        9.207703   -0.896476   -5.829622
     76          1           0        9.125715    3.448651   -3.130989
     77          1           0        7.058553    7.132040   -4.013590
     78          1           0        6.740971    6.935750   -2.185929
     79          1           0        5.731472    6.252236   -3.474126
     80         12           0       -8.174557   -0.436922   -0.100646
     81          6           0       -6.005735    1.857969    1.604859
     82          6           0      -10.577852    1.980795    0.015428
     83          6           0      -10.243171   -2.580310   -1.193420
     84          6           0       -6.041761   -2.996335    0.922225
     85          7           0       -8.171748    1.613567    0.728655
     86          6           0       -7.271305    2.400164    1.298593
     87          6           0       -7.727409    3.872564    1.481807
     88          6           0       -9.315425    3.633659    1.485819
     89          6           0       -9.371276    2.348169    0.662984
     90          6           0       -9.876516    3.341134    2.867459
     91          6           0       -7.287264    4.787882    0.285788
     92          6           0       -7.427036    6.290333    0.540504
     93          1           0       -6.431956    7.189716   -0.036911
     94          7           0       -9.944909   -0.189874   -0.962859
     95          6           0      -10.778101    0.862579   -0.823524
     96          6           0      -11.957799    0.553477   -1.646274
     97          6           0      -11.825232   -0.840032   -2.151539
     98          6           0      -10.650350   -1.274072   -1.422598
     99          6           0      -13.025593    1.563964   -1.949788
    100          6           0      -12.630961   -1.652310   -3.119630
    101          8           0      -12.473092   -2.919460   -3.230244
    102          6           0      -13.674687   -0.935766   -3.867090
    103          7           0       -8.267086   -2.508812    0.044444
    104          6           0       -9.243812   -3.201713   -0.566959
    105          6           0       -8.951446   -4.683187   -0.554696
    106          6           0       -7.451054   -4.820569   -0.018473
    107          6           0       -7.153500   -3.335555    0.284147
    108          6           0       -9.880148   -5.537405    0.307986
    109          6           0       -6.453479   -5.607039   -0.912319
    110          6           0       -6.195629   -4.844777   -2.192107
    111          7           0       -6.259144   -0.562334    0.891075
    112          6           0       -5.557321   -1.735317    1.245540
    113          6           0       -4.360528   -1.314610    2.002583
    114          6           0       -4.461967    0.083715    2.056289
    115          6           0       -5.649355    0.503382    1.397892
    116          6           0       -3.389261   -2.184354    2.573799
    117          6           0       -3.840041    1.299462    2.529453
    118          8           0       -2.772566    1.573110    3.076570
    119          6           0       -4.876773    2.493407    2.367932
    120          6           0       -4.158850    3.648119    1.724699
    121          8           0       -3.734170    3.558216    0.559291
    122          8           0       -4.283026    4.735381    2.507525
    123          6           0       -3.596645    5.909831    1.906386
    124          1           0      -11.469066    2.581460    0.199316
    125          1           0      -10.866018   -3.354793   -1.646977
    126          1           0       -5.276504   -3.727730    1.190798
    127          1           0       -7.418085    4.331381    2.413252
    128          1           0       -9.837088    4.437575    0.973041
    129          1           0       -9.094865    3.225063    3.603454
    130          1           0      -10.441236    2.423461    2.767386
    131          1           0      -10.599997    4.110800    3.151223
    132          1           0       -8.003000    4.669580   -0.537903
    133          1           0       -6.282251    4.564373   -0.015261
    134          1           0       -7.578310    6.515933    1.603119
    135          1           0       -8.343513    6.640124    0.059128
    136          1           0      -12.937172    2.448180   -1.306553
    137          1           0      -13.982315    1.114114   -1.663116
    138          1           0      -13.063821    1.831485   -3.007926
    139          1           0      -14.374853   -0.485106   -3.167715
    140          1           0      -14.081345   -1.663665   -4.571832
    141          1           0      -13.207202   -0.112571   -4.418841
    142          1           0       -9.006618   -5.096542   -1.554286
    143          1           0       -7.409285   -5.351852    0.943731
    144          1           0      -10.381310   -6.345192   -0.258053
    145          1           0      -10.610905   -4.887023    0.770090
    146          1           0       -9.408724   -6.005023    1.170714
    147          1           0       -6.883546   -6.568114   -1.204777
    148          1           0       -5.506457   -5.813022   -0.424749
    149          1           0       -7.042626   -5.129145   -2.823635
    150          1           0       -5.251125   -5.151440   -2.636967
    151          1           0       -6.257418   -3.763125   -2.025204
    152          1           0       -2.420364   -1.755335    2.355409
    153          1           0       -3.476713   -3.193522    2.176678
    154          1           0       -3.675913   -2.131612    3.627517
    155          1           0       -5.245603    2.743917    3.363308
    156          1           0       -2.887977    6.282183    2.652593
    157          1           0       -4.403253    6.597784    1.590376
    158          1           0       -2.940405    5.729312    1.063056
 ---------------------------------------------------------------------

 SCF Done:  E(RCAM-B3LYP) =  -4069.81160334     A.U. after   19 cycles

 Excitation energies and oscillator strengths:

 Excited State   1:      Singlet-A      1.6728 eV  741.17 nm  f=0.2496  <S**2>=0.000
     309 -> 315       -0.14895
     311 -> 313        0.59112
     312 -> 314       -0.34850
 This state for optimization and/or second-order correction.
 Total Energy, E(TD-HF/TD-DFT) =  -4069.75012814
 Copying the excited state density for this state as the 1-particle RhoCI density.

 Excited State   2:      Singlet-A      1.6826 eV  736.86 nm  f=0.5291  <S**2>=0.000
     310 -> 316        0.15172
     311 -> 313        0.34820
     312 -> 314        0.59053

 Excited State   3:      Singlet-A      2.1853 eV  567.35 nm  f=0.0488  <S**2>=0.000
     309 -> 313        0.61914
     310 -> 314       -0.17284
     311 -> 315        0.26264

 Excited State   4:      Singlet-A      2.1926 eV  565.48 nm  f=0.1432  <S**2>=0.000
     309 -> 313        0.17173
     310 -> 314        0.61716
     312 -> 316       -0.26807

 Excited State   5:      Singlet-A      2.7312 eV  453.95 nm  f=0.0000  <S**2>=0.000
     312 -> 313        0.70686

 The electronic state is 1-A.
 Alpha  occ. eigenvalues --  -46.87599 -46.87533 -19.26286 -19.26024 -19.19080
 Alpha  occ. eigenvalues --  -19.18740 -19.18658 -19.18568 -19.17996 -19.17921
 Alpha  occ. eigenvalues --  -14.42439 -14.42190 -14.41300 -14.41199 -14.39292
 Alpha  occ. eigenvalues --  -14.39141 -14.38538 -14.38326 -10.39015 -10.38804
 Alpha  occ. eigenvalues --  -10.35336 -10.35202 -10.34173 -10.34140 -10.31701
 Alpha  occ. eigenvalues --  -10.31433 -10.31251 -10.31149 -10.30967 -10.30646
 Alpha  occ. eigenvalues --  -10.30337 -10.30313 -10.30300 -10.30255 -10.30083
 Alpha  occ. eigenvalues --  -10.29962 -10.29835 -10.29680 -10.29378 -10.29378
 Alpha  occ. eigenvalues --  -10.29340 -10.28999 -10.28667 -10.28600 -10.28484
 Alpha  occ. eigenvalues --  -10.28345 -10.28264 -10.28104 -10.28091 -10.27942
 Alpha  occ. eigenvalues --  -10.27864 -10.27612 -10.27540 -10.27472 -10.27460
 Alpha  occ. eigenvalues --  -10.27425 -10.27413 -10.27406 -10.27328 -10.27320
 Alpha  occ. eigenvalues --  -10.27288 -10.27239 -10.27217 -10.27146 -10.26994
 Alpha  occ. eigenvalues --  -10.26904 -10.26630 -10.26405 -10.26362 -10.26156
 Alpha  occ. eigenvalues --  -10.26073 -10.26009 -10.25988 -10.25983 -10.25874
 Alpha  occ. eigenvalues --  -10.25786 -10.25773 -10.25619 -10.25352 -10.25247
 Alpha  occ. eigenvalues --  -10.24813 -10.24655 -10.24631 -10.24579 -10.24540
 Alpha  occ. eigenvalues --  -10.24476  -3.16349  -3.16275  -1.91231  -1.91156
 Alpha  occ. eigenvalues --   -1.90820  -1.90743  -1.90657  -1.90585  -1.16577
 Alpha  occ. eigenvalues --   -1.16369  -1.08602  -1.08379  -1.06971  -1.06910
 Alpha  occ. eigenvalues --   -1.06868  -1.06366  -1.04437  -1.04321  -1.03604
 Alpha  occ. eigenvalues --   -1.03509  -1.02979  -1.02978  -1.02157  -1.02052
 Alpha  occ. eigenvalues --   -0.91928  -0.91717  -0.89434  -0.89286  -0.89098
 Alpha  occ. eigenvalues --   -0.88929  -0.88162  -0.88059  -0.87733  -0.87626
 Alpha  occ. eigenvalues --   -0.87625  -0.87417  -0.87063  -0.87017  -0.84944
 Alpha  occ. eigenvalues --   -0.84724  -0.83816  -0.83713  -0.82875  -0.82721
 Alpha  occ. eigenvalues --   -0.82597  -0.82396  -0.81537  -0.81335  -0.80384
 Alpha  occ. eigenvalues --   -0.80343  -0.78577  -0.78543  -0.77088  -0.76974
 Alpha  occ. eigenvalues --   -0.76842  -0.76687  -0.75784  -0.75675  -0.74747
 Alpha  occ. eigenvalues --   -0.74672  -0.72640  -0.72527  -0.71526  -0.71430
 Alpha  occ. eigenvalues --   -0.69696  -0.69687  -0.68772  -0.68619  -0.67543
 Alpha  occ. eigenvalues --   -0.67390  -0.67142  -0.66953  -0.65215  -0.65027
 Alpha  occ. eigenvalues --   -0.64711  -0.64604  -0.64595  -0.64373  -0.64144
 Alpha  occ. eigenvalues --   -0.64034  -0.62218  -0.62046  -0.60282  -0.60193
 Alpha  occ. eigenvalues --   -0.59742  -0.59547  -0.58934  -0.58740  -0.58366
 Alpha  occ. eigenvalues --   -0.58255  -0.57492  -0.57329  -0.57178  -0.57066
 Alpha  occ. eigenvalues --   -0.56145  -0.56061  -0.55828  -0.55723  -0.55395
 Alpha  occ. eigenvalues --   -0.55272  -0.55188  -0.55107  -0.54426  -0.54283
 Alpha  occ. eigenvalues --   -0.53858  -0.53634  -0.53170  -0.53084  -0.53052
 Alpha  occ. eigenvalues --   -0.52966  -0.52840  -0.52661  -0.52614  -0.52500
 Alpha  occ. eigenvalues --   -0.52336  -0.52217  -0.51822  -0.51676  -0.51602
 Alpha  occ. eigenvalues --   -0.51354  -0.51143  -0.50951  -0.50420  -0.50316
 Alpha  occ. eigenvalues --   -0.49925  -0.49810  -0.49805  -0.49667  -0.49431
 Alpha  occ. eigenvalues --   -0.49262  -0.49145  -0.49052  -0.48963  -0.48849
 Alpha  occ. eigenvalues --   -0.48500  -0.48348  -0.48320  -0.48283  -0.48230
 Alpha  occ. eigenvalues --   -0.48197  -0.47538  -0.47447  -0.47062  -0.47053
 Alpha  occ. eigenvalues --   -0.46650  -0.46554  -0.46499  -0.46296  -0.46211
 Alpha  occ. eigenvalues --   -0.46112  -0.46026  -0.45922  -0.45763  -0.45579
 Alpha  occ. eigenvalues --   -0.45153  -0.44976  -0.44457  -0.44420  -0.44331
 Alpha  occ. eigenvalues --   -0.44259  -0.44073  -0.44018  -0.43904  -0.43883
 Alpha  occ. eigenvalues --   -0.43841  -0.43769  -0.43494  -0.43329  -0.43247
 Alpha  occ. eigenvalues --   -0.43138  -0.42870  -0.42841  -0.42782  -0.42493
 Alpha  occ. eigenvalues --   -0.42457  -0.42414  -0.41903  -0.41771  -0.41612
 Alpha  occ. eigenvalues --   -0.41457  -0.41402  -0.41279  -0.40936  -0.40898
 Alpha  occ. eigenvalues --   -0.40666  -0.40642  -0.40622  -0.40571  -0.40435
 Alpha  occ. eigenvalues --   -0.40340  -0.40171  -0.39957  -0.39362  -0.39222
 Alpha  occ. eigenvalues --   -0.38293  -0.38238  -0.37596  -0.37481  -0.37207
 Alpha  occ. eigenvalues --   -0.37141  -0.37083  -0.36999  -0.36703  -0.36458
 Alpha  occ. eigenvalues --   -0.36155  -0.35942  -0.34193  -0.34031  -0.33784
 Alpha  occ. eigenvalues --   -0.33493  -0.33115  -0.32930  -0.31217  -0.31099
 Alpha  occ. eigenvalues --   -0.30914  -0.30783  -0.29900  -0.29781  -0.29268
 Alpha  occ. eigenvalues --   -0.29191  -0.29151  -0.29066  -0.23976  -0.23824
 Alpha  occ. eigenvalues --   -0.21058  -0.20874
 Alpha virt. eigenvalues --   -0.08733  -0.08519  -0.01625  -0.01497   0.00028
 Alpha virt. eigenvalues --    0.00198   0.02266   0.02449   0.03309   0.03456
 Alpha virt. eigenvalues --    0.04786   0.04974   0.05237   0.05369   0.06238

 Mulliken charges:
               1
     1  Mg   0.840158
     2  C   -0.002427
     3  C   -0.093613
     4  C   -0.046005
     5  C   -0.064202
     6  N   -0.256730
     7  C   -0.052221
     8  C   -0.014212
     9  C   -0.087102
    10  C    0.046683
    11  C    0.104924
    12  C    0.053312
    13  C   -0.071616
    14  H    0.036098
    15  N   -0.433053
    16  C    0.168922
    17  C   -0.176782
    18  C   -0.003865
    19  C    0.148999
    20  C    0.110215
    21  C    0.012566
    22  O   -0.250207
    23  C    0.062207
    24  N   -0.341165
    25  C    0.041268
    26  C   -0.028057
    27  C   -0.023886
    28  C    0.074917
    29  C    0.076360
    30  C    0.035235
    31  C   -0.004453
    32  N   -0.310452
    33  C    0.080569
    34  C   -0.169786
    35  C    0.008234
    36  C    0.083345
    37  C    0.127298
    38  C    0.046271
    39  O   -0.188867
    40  C   -0.005470
    41  C    0.212589
    42  O   -0.255859
    43  O   -0.305144
    44  C    0.157756
    45  H   -0.017918
    46  H   -0.017293
    47  H   -0.041968
    48  H    0.000463
    49  H   -0.003917
    50  H    0.025191
    51  H    0.016204
    52  H    0.016240
    53  H    0.012394
    54  H    0.045034
    55  H    0.017086
    56  H    0.017947
    57  H    0.005774
    58  H    0.026208
    59  H    0.040543
    60  H    0.036936
    61  H    0.035157
    62  H    0.032730
    63  H    0.016297
    64  H    0.009016
    65  H    0.022741
    66  H    0.012447
    67  H    0.004364
    68  H    0.005700
    69  H    0.004472
    70  H    0.008427
    71  H    0.017781
    72  H    0.029982
    73  H    0.047549
    74  H    0.008811
    75  H    0.045514
    76  H    0.034639
    77  H    0.042254
    78  H    0.046242
    79  H    0.054199
    80  Mg   0.838215
    81  C   -0.016635
    82  C   -0.087818
    83  C   -0.045495
    84  C   -0.064884
    85  N   -0.254554
    86  C   -0.049856
    87  C   -0.015117
    88  C   -0.090504
    89  C    0.045806
    90  C    0.114441
    91  C    0.062512
    92  C   -0.077887
    93  H    0.035110
    94  N   -0.423449
    95  C    0.162954
    96  C   -0.174686
    97  C   -0.007818
    98  C    0.152127
    99  C    0.099404
   100  C    0.015593
   101  O   -0.253244
   102  C    0.061178
   103  N   -0.350098
   104  C    0.037486
   105  C   -0.019792
   106  C   -0.034814
   107  C    0.088972
   108  C    0.073710
   109  C    0.034702
   110  C   -0.007681
   111  N   -0.324170
   112  C    0.078620
   113  C   -0.162767
   114  C    0.002191
   115  C    0.096498
   116  C    0.131319
   117  C    0.042807
   118  O   -0.188201
   119  C    0.000757
   120  C    0.211134
   121  O   -0.249977
   122  O   -0.306017
   123  C    0.151958
   124  H   -0.019835
   125  H   -0.015644
   126  H   -0.040362
   127  H   -0.000907
   128  H   -0.004358
   129  H    0.022248
   130  H    0.014366
   131  H    0.016087
   132  H    0.014072
   133  H    0.038110
   134  H    0.020430
   135  H    0.019528
   136  H    0.008671
   137  H    0.025981
   138  H    0.039847
   139  H    0.038134
   140  H    0.036341
   141  H    0.034013
   142  H    0.014437
   143  H    0.012291
   144  H    0.025059
   145  H    0.011516
   146  H    0.005552
   147  H    0.006109
   148  H    0.003744
   149  H    0.010851
   150  H    0.018152
   151  H    0.030348
   152  H    0.046454
   153  H    0.008776
   154  H    0.046470
   155  H    0.034527
   156  H    0.043146
   157  H    0.049345
   158  H    0.054467
 Sum of Mulliken charges =  -0.00000

 Dipole moment (field-independent basis, Debye):
    X=             -2.1590    Y=              2.5888    Z=              4.4453  Tot=              5.5789
 Quadrupole moment (field-independent basis, Debye-Ang):
   XX=           -435.6426   YY=           -467.0065   ZZ=           -523.7716
   XY=            -29.6650   XZ=             19.6282   YZ=             27.8832

 Normal termination of Gaussian 16 at Sun Sep 12 00:57:07 2021.
