 Gaussian 16, Revision A.03,
 Gaussian 16:  ES64L-G16RevA.03 25-Dec-2016

 -----------------------------------
 #p cam-b3lyp/Def2SVP td=(nstates=5)
 -----------------------------------

 --------------------------------
 TDDFT excited states in gaussian
 --------------------------------
 Symbolic Z-matrix:
 Charge =  0 Multiplicity = 1

                         Standard orientation:
 ---------------------------------------------------------------------
 Center     Atomic      Atomic             Coordinates (Angstroms)
 Number     Number       Type             X           Y           Z
 ---------------------------------------------------------------------
      1         12           0        4.785690    0.119307    0.270239
      2          6           0        4.677655   -3.117728   -1.253619
      3          6           0        5.786996    1.344982   -2.752703
      4          6           0        5.325628    2.898830    1.698293
      5          6           0        4.888007   -1.498929    3.355121
      6          7           0        5.148304   -0.861377   -1.681021
      7          6           0        5.012721   -2.098623   -2.147935
      8          6           0        5.186365   -2.198377   -3.693015
      9          6           0        6.069396   -0.892551   -3.931914
     10          6           0        5.616552   -0.071265   -2.737618
     11          6           0        7.569681   -1.141989   -3.816042
     12          6           0        3.819365   -2.112263   -4.451714
     13          6           0        3.862989   -2.525556   -5.925702
     14          1           0        2.715933   -3.218197   -6.493028
     15          7           0        4.981974    1.932749   -0.488544
     16          6           0        5.384805    2.246332   -1.743406
     17          6           0        5.367416    3.722988   -1.819992
     18          6           0        5.104633    4.246571   -0.450722
     19          6           0        5.153561    3.032042    0.322519
     20          6           0        5.537290    4.482592   -3.099795
     21          6           0        4.860254    5.624339    0.078587
     22          8           0        4.884803    5.886609    1.329661
     23          6           0        4.676589    6.689976   -0.923274
     24          7           0        5.288678    0.635141    2.229461
     25          6           0        5.406746    1.915684    2.597230
     26          6           0        5.489920    2.049930    4.088873
     27          6           0        5.158479    0.604879    4.681940
     28          6           0        5.014715   -0.170030    3.348855
     29          6           0        6.837476    2.532322    4.643312
     30          6           0        4.007026    0.515813    5.714724
     31          6           0        2.688572    0.824379    5.041253
     32          7           0        4.606893   -1.926585    0.972664
     33          6           0        4.703331   -2.374428    2.298111
     34          6           0        4.625445   -3.846435    2.263478
     35          6           0        4.504984   -4.155507    0.910034
     36          6           0        4.533859   -2.954280    0.145501
     37          6           0        4.726504   -4.712986    3.387448
     38          6           0        4.383362   -5.222594   -0.069961
     39          8           0        4.215757   -6.441455   -0.008486
     40          6           0        4.612785   -4.601421   -1.518179
     41          6           0        3.512741   -5.109209   -2.410011
     42          8           0        2.327621   -4.765975   -2.222805
     43          8           0        4.051339   -5.721055   -3.475891
     44          6           0        3.013874   -6.222644   -4.416225
     45          1           0        6.329278    1.802538   -3.582469
     46          1           0        5.404243    3.843053    2.241157
     47          1           0        4.828236   -2.067031    4.285251
     48          1           0        5.727686   -3.081261   -4.033475
     49          1           0        5.805881   -0.387459   -4.860980
     50          1           0        7.779552   -2.150640   -3.460375
     51          1           0        7.933269   -0.403076   -3.101686
     52          1           0        8.072918   -0.921275   -4.757750
     53          1           0        3.534122   -1.065935   -4.560777
     54          1           0        3.054790   -2.694716   -3.936447
     55          1           0        4.785503   -3.055813   -6.163831
     56          1           0        3.905867   -1.621266   -6.532844
     57          1           0        5.878296    3.835771   -3.907187
     58          1           0        6.358238    5.183045   -2.947749
     59          1           0        4.634897    5.028214   -3.376047
     60          1           0        5.563304    6.746723   -1.554990
     61          1           0        4.424551    7.589492   -0.362740
     62          1           0        3.849339    6.418632   -1.579764
     63          1           0        4.755981    2.764762    4.458703
     64          1           0        6.013675    0.168947    5.198930
     65          1           0        6.762955    3.433276    5.252764
     66          1           0        7.513158    2.684044    3.802047
     67          1           0        7.382515    1.791899    5.228225
     68          1           0        4.145892    1.255812    6.502166
     69          1           0        3.929050   -0.462552    6.189036
     70          1           0        2.656444    1.913218    5.056394
     71          1           0        1.861500    0.401411    5.612446
     72          1           0        2.692741    0.513009    3.996496
     73          1           0        3.951755   -5.469015    3.260362
     74          1           0        4.597434   -4.166661    4.321511
     75          1           0        5.741223   -5.090120    3.261071
     76          1           0        5.595585   -4.934667   -1.850102
     77          1           0        3.192301   -7.289432   -4.551733
     78          1           0        3.062026   -5.585391   -5.299398
     79          1           0        1.989035   -6.231128   -4.043435
     80         12           0       -4.176646    0.991607    0.263399
     81          6           0       -6.819159   -1.436499    0.240354
     82          6           0       -6.005963    2.783909   -1.989566
     83          6           0       -1.679294    2.918089   -0.081990
     84          6           0       -2.104806   -1.480237    1.583701
     85          7           0       -6.143752    0.618322   -0.676489
     86          6           0       -7.084309   -0.307210   -0.562042
     87          6           0       -8.413435    0.033269   -1.288035
     88          6           0       -7.834264    1.054777   -2.383461
     89          6           0       -6.601325    1.548631   -1.629371
     90          6           0       -7.371676    0.370632   -3.659112
     91          6           0       -9.449597    0.733759   -0.340563
     92          6           0      -10.874098    0.815232   -0.893643
     93          1           0      -11.990983    0.688607    0.038566
     94          7           0       -4.066146    2.831756   -0.471585
     95          6           0       -4.905337    3.405114   -1.359450
     96          6           0       -4.379625    4.758994   -1.593566
     97          6           0       -3.069769    4.880402   -0.897686
     98          6           0       -2.873475    3.511463   -0.464606
     99          6           0       -5.144429    5.810365   -2.343970
    100          6           0       -2.140672    6.034529   -0.671885
    101          8           0       -0.943820    5.862258   -0.246808
    102          6           0       -2.641772    7.363529   -1.051542
    103          7           0       -2.130288    0.701375    0.488168
    104          6           0       -1.266129    1.719177    0.329374
    105          6           0        0.115319    1.341631    0.808382
    106          6           0       -0.056293   -0.065604    1.548533
    107          6           0       -1.557190   -0.311506    1.279791
    108          6           0        1.185069    1.218663   -0.276465
    109          6           0        0.457641   -0.158693    3.011366
    110          6           0       -0.392873    0.706543    3.913249
    111          7           0       -4.432209   -1.026116    0.992460
    112          6           0       -3.427177   -1.891725    1.476929
    113          6           0       -4.068057   -3.195193    1.746529
    114          6           0       -5.407402   -3.002788    1.375532
    115          6           0       -5.584136   -1.679409    0.888782
    116          6           0       -3.408809   -4.363921    2.221472
    117          6           0       -6.709596   -3.621552    1.275031
    118          8           0       -7.187255   -4.701415    1.620664
    119          6           0       -7.654411   -2.674135    0.417048
    120          6           0       -8.962505   -2.538264    1.147068
    121          8           0       -9.013826   -1.968679    2.251397
    122          8           0       -9.964499   -2.906578    0.328080
    123          6           0      -11.283296   -2.778602    1.003526
    124          1           0       -6.390173    3.309517   -2.864207
    125          1           0       -0.806403    3.574991   -0.078078
    126          1           0       -1.547647   -2.272312    2.088532
    127          1           0       -8.891141   -0.806386   -1.778511
    128          1           0       -8.524968    1.874506   -2.563274
    129          1           0       -7.399490   -0.705378   -3.572080
    130          1           0       -6.357733    0.710767   -3.824281
    131          1           0       -7.953265    0.731144   -4.512416
    132          1           0       -9.211084    1.803285   -0.277487
    133          1           0       -9.462626    0.263819    0.623600
    134          1           0      -11.018796    0.156407   -1.758484
    135          1           0      -11.034676    1.819901   -1.292218
    136          1           0       -6.000304    5.380395   -2.878772
    137          1           0       -4.485853    6.179533   -3.137608
    138          1           0       -5.439145    6.649620   -1.710364
    139          1           0       -2.900795    7.363668   -2.107657
    140          1           0       -1.871430    8.068354   -0.732687
    141          1           0       -3.568374    7.558676   -0.500227
    142          1           0        0.490596    2.068569    1.518204
    143          1           0        0.491030   -0.867383    1.031401
    144          1           0        2.059431    1.874139   -0.103548
    145          1           0        0.728497    1.438052   -1.232476
    146          1           0        1.572718    0.213134   -0.430909
    147          1           0        1.476898    0.229311    3.080090
    148          1           0        0.471569   -1.171233    3.400680
    149          1           0        0.043827    1.701404    3.784296
    150          1           0       -0.317381    0.373227    4.946321
    151          1           0       -1.427535    0.751623    3.553958
    152          1           0       -4.047000   -4.794104    2.981839
    153          1           0       -2.421485   -4.131303    2.614987
    154          1           0       -3.355772   -4.946809    1.298056
    155          1           0       -7.778660   -3.136083   -0.563126
    156          1           0      -11.771087   -3.756192    0.939823
    157          1           0      -11.790982   -1.929159    0.509099
    158          1           0      -11.283873   -2.611322    2.074258
 ---------------------------------------------------------------------

 SCF Done:  E(RCAM-B3LYP) =  -4069.80509887     A.U. after   19 cycles

 Excitation energies and oscillator strengths:

 Excited State   1:      Singlet-A      1.6415 eV  755.31 nm  f=0.0014  <S**2>=0.000
     309 -> 315       -0.11441
     310 -> 316        0.11903
     311 -> 313       -0.47468
     312 -> 314        0.49792
 This state for optimization and/or second-order correction.
 Total Energy, E(TD-HF/TD-DFT) =  -4069.74477470
 Copying the excited state density for this state as the 1-particle RhoCI density.

 Excited State   2:      Singlet-A      1.7055 eV  726.99 nm  f=0.6852  <S**2>=0.000
     309 -> 315        0.13189
     310 -> 316        0.12379
     311 -> 313        0.49507
     312 -> 314        0.47181

 Excited State   3:      Singlet-A      2.1822 eV  568.16 nm  f=0.1003  <S**2>=0.000
     309 -> 313       -0.16379
     310 -> 314        0.62218
     312 -> 316       -0.26058

 Excited State   4:      Singlet-A      2.1937 eV  565.19 nm  f=0.1002  <S**2>=0.000
     309 -> 313        0.61634
     310 -> 314        0.16143
     311 -> 315       -0.26924

 Excited State   5:      Singlet-A      2.3257 eV  533.11 nm  f=0.0006  <S**2>=0.000
     312 -> 313        0.70287

 The electronic state is 1-A.
 Alpha  occ. eigenvalues --  -46.87936 -46.87433 -19.26355 -19.26191 -19.19112
 Alpha  occ. eigenvalues --  -19.18994 -19.18677 -19.18558 -19.18238 -19.17842
 Alpha  occ. eigenvalues --  -14.42534 -14.42276 -14.41573 -14.41124 -14.39461
 Alpha  occ. eigenvalues --  -14.39134 -14.38700 -14.38363 -10.39168 -10.38919
 Alpha  occ. eigenvalues --  -10.35303 -10.35243 -10.34463 -10.34018 -10.31729
 Alpha  occ. eigenvalues --  -10.31618 -10.31515 -10.31071 -10.30969 -10.30845
 Alpha  occ. eigenvalues --  -10.30679 -10.30608 -10.30313 -10.30150 -10.30104
 Alpha  occ. eigenvalues --  -10.30057 -10.29876 -10.29691 -10.29664 -10.29323
 Alpha  occ. eigenvalues --  -10.29222 -10.29153 -10.28816 -10.28593 -10.28552
 Alpha  occ. eigenvalues --  -10.28530 -10.28443 -10.28207 -10.28188 -10.27962
 Alpha  occ. eigenvalues --  -10.27861 -10.27808 -10.27782 -10.27627 -10.27625
 Alpha  occ. eigenvalues --  -10.27566 -10.27486 -10.27448 -10.27435 -10.27318
 Alpha  occ. eigenvalues --  -10.27266 -10.27256 -10.27243 -10.27233 -10.27157
 Alpha  occ. eigenvalues --  -10.26851 -10.26773 -10.26546 -10.26326 -10.26323
 Alpha  occ. eigenvalues --  -10.26297 -10.26147 -10.26098 -10.25945 -10.25861
 Alpha  occ. eigenvalues --  -10.25634 -10.25627 -10.25505 -10.25504 -10.25447
 Alpha  occ. eigenvalues --  -10.24910 -10.24894 -10.24873 -10.24647 -10.24486
 Alpha  occ. eigenvalues --  -10.24454  -3.16619  -3.16183  -1.91502  -1.91090
 Alpha  occ. eigenvalues --   -1.91065  -1.90931  -1.90654  -1.90491  -1.16706
 Alpha  occ. eigenvalues --   -1.16482  -1.08701  -1.08449  -1.07065  -1.06819
 Alpha  occ. eigenvalues --   -1.06778  -1.06731  -1.04665  -1.04280  -1.03861
 Alpha  occ. eigenvalues --   -1.03436  -1.03326  -1.02805  -1.02510  -1.01886
 Alpha  occ. eigenvalues --   -0.92059  -0.91769  -0.89676  -0.89268  -0.89228
 Alpha  occ. eigenvalues --   -0.88967  -0.88422  -0.88039  -0.87959  -0.87757
 Alpha  occ. eigenvalues --   -0.87529  -0.87460  -0.87243  -0.86935  -0.85048
 Alpha  occ. eigenvalues --   -0.84821  -0.84175  -0.83692  -0.82953  -0.82774
 Alpha  occ. eigenvalues --   -0.82633  -0.82479  -0.81662  -0.81393  -0.80648
 Alpha  occ. eigenvalues --   -0.80245  -0.78822  -0.78420  -0.77341  -0.77052
 Alpha  occ. eigenvalues --   -0.76921  -0.76719  -0.75999  -0.75643  -0.75028
 Alpha  occ. eigenvalues --   -0.74714  -0.72874  -0.72463  -0.71756  -0.71426
 Alpha  occ. eigenvalues --   -0.70253  -0.69532  -0.68933  -0.68639  -0.67695
 Alpha  occ. eigenvalues --   -0.67405  -0.67235  -0.67033  -0.65399  -0.65106
 Alpha  occ. eigenvalues --   -0.64979  -0.64795  -0.64564  -0.64494  -0.64382
 Alpha  occ. eigenvalues --   -0.63913  -0.62390  -0.62081  -0.60466  -0.60152
 Alpha  occ. eigenvalues --   -0.59875  -0.59600  -0.59079  -0.58782  -0.58587
 Alpha  occ. eigenvalues --   -0.58220  -0.57669  -0.57396  -0.57346  -0.57047
 Alpha  occ. eigenvalues --   -0.56371  -0.56047  -0.55980  -0.55712  -0.55547
 Alpha  occ. eigenvalues --   -0.55470  -0.55266  -0.55104  -0.54667  -0.54388
 Alpha  occ. eigenvalues --   -0.53969  -0.53734  -0.53393  -0.53224  -0.53113
 Alpha  occ. eigenvalues --   -0.53033  -0.52986  -0.52918  -0.52716  -0.52687
 Alpha  occ. eigenvalues --   -0.52515  -0.52154  -0.51999  -0.51632  -0.51574
 Alpha  occ. eigenvalues --   -0.51482  -0.51285  -0.50935  -0.50485  -0.50376
 Alpha  occ. eigenvalues --   -0.50183  -0.49969  -0.49810  -0.49744  -0.49471
 Alpha  occ. eigenvalues --   -0.49319  -0.49251  -0.49143  -0.49008  -0.48910
 Alpha  occ. eigenvalues --   -0.48665  -0.48547  -0.48446  -0.48352  -0.48259
 Alpha  occ. eigenvalues --   -0.48171  -0.47689  -0.47409  -0.47341  -0.46962
 Alpha  occ. eigenvalues --   -0.46903  -0.46614  -0.46516  -0.46438  -0.46373
 Alpha  occ. eigenvalues --   -0.46316  -0.46068  -0.45944  -0.45867  -0.45617
 Alpha  occ. eigenvalues --   -0.45450  -0.45140  -0.44837  -0.44610  -0.44375
 Alpha  occ. eigenvalues --   -0.44332  -0.44248  -0.44156  -0.43993  -0.43939
 Alpha  occ. eigenvalues --   -0.43797  -0.43756  -0.43569  -0.43509  -0.43322
 Alpha  occ. eigenvalues --   -0.43215  -0.43112  -0.42983  -0.42758  -0.42736
 Alpha  occ. eigenvalues --   -0.42641  -0.42371  -0.42069  -0.41801  -0.41692
 Alpha  occ. eigenvalues --   -0.41603  -0.41428  -0.41285  -0.41203  -0.40952
 Alpha  occ. eigenvalues --   -0.40818  -0.40758  -0.40686  -0.40573  -0.40398
 Alpha  occ. eigenvalues --   -0.40252  -0.40083  -0.39981  -0.39665  -0.38780
 Alpha  occ. eigenvalues --   -0.38581  -0.38173  -0.37794  -0.37487  -0.37423
 Alpha  occ. eigenvalues --   -0.37322  -0.37004  -0.36841  -0.36785  -0.36558
 Alpha  occ. eigenvalues --   -0.36282  -0.35970  -0.34377  -0.34007  -0.33863
 Alpha  occ. eigenvalues --   -0.33684  -0.33281  -0.32943  -0.31254  -0.31118
 Alpha  occ. eigenvalues --   -0.31085  -0.30757  -0.30103  -0.29744  -0.29489
 Alpha  occ. eigenvalues --   -0.29389  -0.29116  -0.28972  -0.24176  -0.23801
 Alpha  occ. eigenvalues --   -0.21224  -0.20888
 Alpha virt. eigenvalues --   -0.08844  -0.08567  -0.01844  -0.01486  -0.00037
 Alpha virt. eigenvalues --    0.00153   0.02116   0.02444   0.03400   0.04013
 Alpha virt. eigenvalues --    0.04605   0.04932   0.05013   0.05343   0.06097

 Mulliken charges:
               1
     1  Mg   0.793363
     2  C    0.001251
     3  C   -0.091090
     4  C   -0.044147
     5  C   -0.063260
     6  N   -0.252621
     7  C   -0.056256
     8  C   -0.013142
     9  C   -0.087311
    10  C    0.045395
    11  C    0.104828
    12  C    0.052918
    13  C   -0.071903
    14  H    0.036287
    15  N   -0.435011
    16  C    0.170323
    17  C   -0.176619
    18  C   -0.002478
    19  C    0.143407
    20  C    0.110532
    21  C    0.017792
    22  O   -0.248499
    23  C    0.061015
    24  N   -0.334895
    25  C    0.037479
    26  C   -0.028817
    27  C   -0.027589
    28  C    0.070659
    29  C    0.076805
    30  C    0.060746
    31  C   -0.049101
    32  N   -0.307449
    33  C    0.076942
    34  C   -0.172070
    35  C    0.008444
    36  C    0.077031
    37  C    0.127691
    38  C    0.045710
    39  O   -0.188202
    40  C   -0.007019
    41  C    0.213058
    42  O   -0.258184
    43  O   -0.304612
    44  C    0.157498
    45  H   -0.017900
    46  H   -0.016242
    47  H   -0.042766
    48  H    0.000949
    49  H   -0.003737
    50  H    0.025652
    51  H    0.016726
    52  H    0.016934
    53  H    0.011800
    54  H    0.043687
    55  H    0.018032
    56  H    0.018113
    57  H    0.005387
    58  H    0.027058
    59  H    0.042136
    60  H    0.034887
    61  H    0.037526
    62  H    0.037490
    63  H    0.016905
    64  H    0.010158
    65  H    0.023830
    66  H    0.013189
    67  H    0.004947
    68  H    0.004558
    69  H    0.002966
    70  H    0.012061
    71  H    0.022547
    72  H    0.061941
    73  H    0.046759
    74  H    0.008519
    75  H    0.046562
    76  H    0.035594
    77  H    0.043375
    78  H    0.046499
    79  H    0.053839
    80  Mg   0.838090
    81  C   -0.017370
    82  C   -0.088299
    83  C   -0.046683
    84  C   -0.061289
    85  N   -0.254603
    86  C   -0.049411
    87  C   -0.015156
    88  C   -0.090437
    89  C    0.045567
    90  C    0.114594
    91  C    0.062617
    92  C   -0.077595
    93  H    0.034422
    94  N   -0.423036
    95  C    0.162340
    96  C   -0.175804
    97  C   -0.008851
    98  C    0.151274
    99  C    0.099887
   100  C    0.014447
   101  O   -0.254001
   102  C    0.061236
   103  N   -0.350161
   104  C    0.039520
   105  C   -0.022908
   106  C   -0.039714
   107  C    0.090303
   108  C    0.033297
   109  C    0.026075
   110  C   -0.004099
   111  N   -0.324504
   112  C    0.078199
   113  C   -0.161341
   114  C    0.002054
   115  C    0.096863
   116  C    0.132287
   117  C    0.042869
   118  O   -0.187624
   119  C    0.000834
   120  C    0.211157
   121  O   -0.251263
   122  O   -0.305610
   123  C    0.152161
   124  H   -0.020782
   125  H   -0.016269
   126  H   -0.035865
   127  H   -0.000837
   128  H   -0.004934
   129  H    0.022546
   130  H    0.014302
   131  H    0.015384
   132  H    0.013857
   133  H    0.037619
   134  H    0.020624
   135  H    0.019286
   136  H    0.008245
   137  H    0.024407
   138  H    0.039058
   139  H    0.037026
   140  H    0.035527
   141  H    0.034262
   142  H    0.015383
   143  H    0.023832
   144  H    0.068196
   145  H    0.011390
   146  H    0.026651
   147  H    0.002724
   148  H    0.003600
   149  H    0.011583
   150  H    0.017906
   151  H    0.028769
   152  H    0.044802
   153  H    0.010431
   154  H    0.050688
   155  H    0.035056
   156  H    0.043714
   157  H    0.049215
   158  H    0.053388
 Sum of Mulliken charges =  -0.00000

 Dipole moment (field-independent basis, Debye):
    X=              1.7583    Y=              5.5290    Z=             -6.3380  Tot=              8.5925
 Quadrupole moment (field-independent basis, Debye-Ang):
   XX=           -470.3073   YY=           -550.0996   ZZ=           -467.7041
   XY=            -29.2102   XZ=             18.4703   YZ=            -10.9016

 Normal termination of Gaussian 16 at Fri Sep 10 07:06:16 2021.
