 Gaussian 16, Revision A.03,
 Gaussian 16:  ES64L-G16RevA.03 25-Dec-2016

 -----------------------------------
 #p cam-b3lyp/Def2SVP td=(nstates=5)
 -----------------------------------

 --------------------------------
 TDDFT excited states in gaussian
 --------------------------------
 Symbolic Z-matrix:
 Charge =  0 Multiplicity = 1

                         Standard orientation:
 ---------------------------------------------------------------------
 Center     Atomic      Atomic             Coordinates (Angstroms)
 Number     Number       Type             X           Y           Z
 ---------------------------------------------------------------------
      1         12           0      -15.779644   -0.776878    0.080594
      2          6           0      -15.981844    2.790470    0.293556
      3          6           0      -16.654770   -0.481590   -3.204224
      4          6           0      -16.051261   -3.934890   -0.018448
      5          6           0      -16.040872   -0.851565    3.555049
      6          7           0      -16.232651    0.985151   -1.180630
      7          6           0      -16.216219    2.301148   -0.993409
      8          6           0      -16.396832    3.114761   -2.309762
      9          6           0      -17.149807    2.014684   -3.184323
     10          6           0      -16.621436    0.762505   -2.506980
     11          6           0      -18.667270    2.051132   -3.034392
     12          6           0      -15.026993    3.518101   -2.952095
     13          6           0      -15.108449    4.582387   -4.050281
     14          1           0      -14.032708    5.555701   -4.163374
     15          7           0      -15.799595   -2.013384   -1.460025
     16          6           0      -16.168894   -1.719222   -2.729818
     17          6           0      -16.009380   -2.970828   -3.500997
     18          6           0      -15.699046   -4.062840   -2.536996
     19          6           0      -15.865547   -3.376964   -1.281118
     20          6           0      -16.103849   -3.034744   -4.994563
     21          6           0      -15.323829   -5.499629   -2.718605
     22          8           0      -15.324502   -6.330809   -1.747156
     23          6           0      -15.037276   -5.934502   -4.097668
     24          7           0      -16.232968   -2.209310    1.529825
     25          6           0      -16.227683   -3.514104    1.235769
     26          6           0      -16.299314   -4.353758    2.476651
     27          6           0      -16.109184   -3.348209    3.702406
     28          6           0      -16.039090   -2.019927    2.909297
     29          6           0      -17.594843   -5.154066    2.669323
     30          6           0      -14.972869   -3.669167    4.705498
     31          6           0      -13.630043   -3.505079    4.029486
     32          7           0      -15.799405    0.688226    1.681882
     33          6           0      -15.940062    0.435600    3.054132
     34          6           0      -16.004163    1.744481    3.729995
     35          6           0      -15.912408    2.673684    2.695583
     36          6           0      -15.824638    1.988724    1.450024
     37          6           0      -16.189479    1.953823    5.125082
     38          6           0      -15.892889    4.085966    2.350712
     39          8           0      -15.843438    5.135165    2.994318
     40          6           0      -16.059754    4.218744    0.772627
     41          6           0      -15.012633    5.182291    0.284340
     42          8           0      -13.800203    4.892116    0.340714
     43          8           0      -15.606355    6.182749   -0.384331
     44          6           0      -14.620869    7.158895   -0.921088
     45          1           0      -17.149519   -0.528765   -4.176303
     46          1           0      -16.039280   -5.026591    0.003522
     47          1           0      -16.037151   -0.796446    4.645188
     48          1           0      -17.020206    4.003806   -2.212659
     49          1           0      -16.837808    2.041209   -4.228198
     50          1           0      -18.973660    2.743957   -2.250785
     51          1           0      -18.958901    1.032605   -2.777397
     52          1           0      -19.145817    2.267795   -3.989812
     53          1           0      -14.642247    2.680413   -3.533739
     54          1           0      -14.322633    3.843853   -2.185879
     55          1           0      -16.077431    5.082371   -4.049680
     56          1           0      -15.063382    4.080127   -5.016668
     57          1           0      -16.504568   -2.111138   -5.410400
     58          1           0      -16.853753   -3.788350   -5.234209
     59          1           0      -15.152808   -3.303130   -5.454805
     60          1           0      -15.913666   -5.755467   -4.720914
     61          1           0      -14.700501   -6.967892   -4.023251
     62          1           0      -14.239205   -5.313236   -4.505173
     63          1           0      -15.500422   -5.093945    2.494619
     64          1           0      -17.002974   -3.287136    4.323762
     65          1           0      -17.434679   -6.227065    2.777601
     66          1           0      -18.251792   -4.939782    1.826832
     67          1           0      -18.209301   -4.833593    3.510248
     68          1           0      -15.040803   -4.704845    5.036711
     69          1           0      -14.989973   -3.035553    5.592341
     70          1           0      -13.493293   -4.460701    3.524593
     71          1           0      -12.848193   -3.340210    4.771604
     72          1           0      -13.662925   -2.732375    3.261154
     73          1           0      -15.490936    2.740126    5.410975
     74          1           0      -16.009533    1.039464    5.690035
     75          1           0      -17.235633    2.258727    5.146307
     76          1           0      -17.069671    4.586575    0.594049
     77          1           0      -14.900975    8.140714   -0.539243
     78          1           0      -14.606424    7.021827   -2.002480
     79          1           0      -13.602045    7.073477   -0.541561
     80         12           0       15.978389   -0.776489    0.074222
     81          6           0       15.615952    2.788399    0.272392
     82          6           0       15.249855   -0.516085   -3.247833
     83          6           0       15.846422   -3.944475   -0.043586
     84          6           0       15.546982   -0.873217    3.531137
     85          7           0       15.512232    0.965765   -1.206221
     86          6           0       15.463932    2.278112   -1.033716
     87          6           0       15.320156    3.094469   -2.346142
     88          6           0       14.649917    1.959310   -3.263225
     89          6           0       15.195160    0.720260   -2.556036
     90          6           0       13.133138    1.931477   -3.174078
     91          6           0       16.706826    3.552186   -2.920298
     92          6           0       16.628603    4.609593   -4.023721
     93          1           0       17.673689    5.627514   -4.087624
     94          7           0       16.087997   -2.009630   -1.476872
     95          6           0       15.775322   -1.732812   -2.760182
     96          6           0       16.007623   -2.977913   -3.508458
     97          6           0       16.325189   -4.057878   -2.535040
     98          6           0       16.072924   -3.368890   -1.285337
     99          6           0       15.996960   -3.039954   -5.008275
    100          6           0       16.768620   -5.479779   -2.701664
    101          8           0       16.756095   -6.308029   -1.723558
    102          6           0       17.129198   -5.898695   -4.064003
    103          7           0       15.522566   -2.222554    1.496700
    104          6           0       15.591023   -3.531788    1.198106
    105          6           0       15.491033   -4.381088    2.442718
    106          6           0       15.584442   -3.358858    3.669052
    107          6           0       15.634819   -2.028436    2.886213
    108          6           0       14.220109   -5.219868    2.575368
    109          6           0       16.683508   -3.633207    4.731812
    110          6           0       18.052152   -3.424996    4.124473
    111          7           0       15.826146    0.678685    1.663984
    112          6           0       15.622089    0.423032    3.037692
    113          6           0       15.471641    1.731690    3.706441
    114          6           0       15.576465    2.664463    2.663635
    115          6           0       15.757825    1.984308    1.429130
    116          6           0       15.220674    1.933388    5.092966
    117          6           0       15.564311    4.069419    2.325033
    118          8           0       15.532168    5.117742    2.968241
    119          6           0       15.462782    4.207533    0.744844
    120          6           0       16.492385    5.209377    0.299047
    121          8           0       17.705698    4.968540    0.427466
    122          8           0       15.884092    6.185256   -0.399523
    123          6           0       16.865705    7.197397   -0.872641
    124          1           0       14.810976   -0.572854   -4.244352
    125          1           0       15.901644   -5.035089   -0.012270
    126          1           0       15.507354   -0.814593    4.620939
    127          1           0       14.662909    3.952994   -2.277388
    128          1           0       15.018132    2.008349   -4.284688
    129          1           0       12.761715    2.604492   -2.415638
    130          1           0       12.871285    0.909306   -2.933960
    131          1           0       12.694090    2.132462   -4.155489
    132          1           0       17.151524    2.723158   -3.485713
    133          1           0       17.349604    3.897350   -2.133962
    134          1           0       15.636350    5.073445   -4.080513
    135          1           0       16.747862    4.112715   -4.989589
    136          1           0       15.571827   -2.128136   -5.445582
    137          1           0       15.293060   -3.830321   -5.290613
    138          1           0       16.977951   -3.274204   -5.427145
    139          1           0       16.278459   -5.749728   -4.724698
    140          1           0       17.504814   -6.919098   -3.966186
    141          1           0       17.929995   -5.246563   -4.430132
    142          1           0       16.317747   -5.078267    2.502610
    143          1           0       14.655233   -3.342299    4.257377
    144          1           0       14.421210   -6.301596    2.691584
    145          1           0       13.599943   -5.039483    1.707379
    146          1           0       13.561287   -4.933812    3.393487
    147          1           0       16.643732   -4.675602    5.057355
    148          1           0       16.590756   -3.015113    5.618573
    149          1           0       18.247267   -4.377788    3.623269
    150          1           0       18.789622   -3.228760    4.900139
    151          1           0       18.026250   -2.646196    3.353467
    152          1           0       15.864643    2.742306    5.411477
    153          1           0       15.405774    1.027487    5.666410
    154          1           0       14.158515    2.190706    5.063499
    155          1           0       14.448145    4.530582    0.508752
    156          1           0       16.523661    8.170068   -0.505767
    157          1           0       16.925812    7.065439   -1.969322
    158          1           0       17.866869    7.155817   -0.459863
 ---------------------------------------------------------------------

 SCF Done:  E(RCAM-B3LYP) =  -4069.81176190     A.U. after   19 cycles

 Excitation energies and oscillator strengths:

 Excited State   1:      Singlet-A      1.6753 eV  740.07 nm  f=0.2108  <S**2>=0.000
     310 -> 316        0.16849
     311 -> 314       -0.16409
     312 -> 313        0.66614
     310 <- 316        0.10158
 This state for optimization and/or second-order correction.
 Total Energy, E(TD-HF/TD-DFT) =  -4069.75019557
 Copying the excited state density for this state as the 1-particle RhoCI density.

 Excited State   2:      Singlet-A      1.6801 eV  737.95 nm  f=0.5666  <S**2>=0.000
     309 -> 315        0.17051
     311 -> 314        0.66577
     312 -> 313        0.16404
     309 <- 315        0.10209

 Excited State   3:      Singlet-A      2.1861 eV  567.15 nm  f=0.0950  <S**2>=0.000
     310 -> 313        0.64209
     312 -> 316       -0.27294

 Excited State   4:      Singlet-A      2.1925 eV  565.49 nm  f=0.1051  <S**2>=0.000
     309 -> 314        0.64031
     311 -> 315       -0.27813

 Excited State   5:      Singlet-A      3.0652 eV  404.48 nm  f=0.0000  <S**2>=0.000
     311 -> 313        0.70711

 The electronic state is 1-A.
 Alpha  occ. eigenvalues --  -46.87794 -46.87660 -19.26347 -19.26280 -19.19159
 Alpha  occ. eigenvalues --  -19.19016 -19.18813 -19.18715 -19.18166 -19.18049
 Alpha  occ. eigenvalues --  -14.42497 -14.42447 -14.41447 -14.41359 -14.39400
 Alpha  occ. eigenvalues --  -14.39352 -14.38599 -14.38584 -10.39089 -10.39076
 Alpha  occ. eigenvalues --  -10.35447 -10.35393 -10.34386 -10.34227 -10.31754
 Alpha  occ. eigenvalues --  -10.31675 -10.31402 -10.31308 -10.31023 -10.30906
 Alpha  occ. eigenvalues --  -10.30567 -10.30504 -10.30397 -10.30360 -10.30204
 Alpha  occ. eigenvalues --  -10.30141 -10.29917 -10.29894 -10.29628 -10.29437
 Alpha  occ. eigenvalues --  -10.29401 -10.29252 -10.28747 -10.28718 -10.28654
 Alpha  occ. eigenvalues --  -10.28537 -10.28404 -10.28362 -10.28140 -10.28114
 Alpha  occ. eigenvalues --  -10.28000 -10.27790 -10.27724 -10.27669 -10.27582
 Alpha  occ. eigenvalues --  -10.27517 -10.27498 -10.27483 -10.27480 -10.27469
 Alpha  occ. eigenvalues --  -10.27465 -10.27446 -10.27401 -10.27375 -10.27155
 Alpha  occ. eigenvalues --  -10.27049 -10.26703 -10.26693 -10.26417 -10.26410
 Alpha  occ. eigenvalues --  -10.26232 -10.26180 -10.26137 -10.26023 -10.26016
 Alpha  occ. eigenvalues --  -10.25934 -10.25848 -10.25839 -10.25432 -10.25396
 Alpha  occ. eigenvalues --  -10.24872 -10.24830 -10.24785 -10.24731 -10.24690
 Alpha  occ. eigenvalues --  -10.24683  -3.16537  -3.16410  -1.91418  -1.91292
 Alpha  occ. eigenvalues --   -1.91005  -1.90881  -1.90847  -1.90718  -1.16641
 Alpha  occ. eigenvalues --   -1.16629  -1.08656  -1.08623  -1.07215  -1.06967
 Alpha  occ. eigenvalues --   -1.06943  -1.06638  -1.04578  -1.04495  -1.03758
 Alpha  occ. eigenvalues --   -1.03663  -1.03231  -1.03038  -1.02408  -1.02111
 Alpha  occ. eigenvalues --   -0.91986  -0.91969  -0.89516  -0.89494  -0.89185
 Alpha  occ. eigenvalues --   -0.89151  -0.88284  -0.88220  -0.87867  -0.87792
 Alpha  occ. eigenvalues --   -0.87684  -0.87670  -0.87272  -0.87121  -0.84999
 Alpha  occ. eigenvalues --   -0.84980  -0.83933  -0.83876  -0.82966  -0.82933
 Alpha  occ. eigenvalues --   -0.82652  -0.82646  -0.81595  -0.81582  -0.80593
 Alpha  occ. eigenvalues --   -0.80442  -0.78795  -0.78636  -0.77216  -0.77144
 Alpha  occ. eigenvalues --   -0.76931  -0.76898  -0.75920  -0.75838  -0.74895
 Alpha  occ. eigenvalues --   -0.74802  -0.72771  -0.72698  -0.71669  -0.71580
 Alpha  occ. eigenvalues --   -0.69904  -0.69757  -0.68871  -0.68827  -0.67638
 Alpha  occ. eigenvalues --   -0.67601  -0.67218  -0.67200  -0.65284  -0.65271
 Alpha  occ. eigenvalues --   -0.64851  -0.64770  -0.64653  -0.64618  -0.64266
 Alpha  occ. eigenvalues --   -0.64203  -0.62294  -0.62277  -0.60440  -0.60340
 Alpha  occ. eigenvalues --   -0.59802  -0.59796  -0.58992  -0.58984  -0.58501
 Alpha  occ. eigenvalues --   -0.58425  -0.57581  -0.57553  -0.57306  -0.57236
 Alpha  occ. eigenvalues --   -0.56307  -0.56204  -0.55975  -0.55885  -0.55518
 Alpha  occ. eigenvalues --   -0.55452  -0.55336  -0.55247  -0.54520  -0.54487
 Alpha  occ. eigenvalues --   -0.53912  -0.53892  -0.53296  -0.53227  -0.53220
 Alpha  occ. eigenvalues --   -0.53141  -0.52912  -0.52902  -0.52754  -0.52669
 Alpha  occ. eigenvalues --   -0.52435  -0.52401  -0.51911  -0.51883  -0.51659
 Alpha  occ. eigenvalues --   -0.51614  -0.51200  -0.51193  -0.50571  -0.50476
 Alpha  occ. eigenvalues --   -0.50028  -0.49980  -0.49916  -0.49867  -0.49512
 Alpha  occ. eigenvalues --   -0.49488  -0.49212  -0.49202  -0.49103  -0.49093
 Alpha  occ. eigenvalues --   -0.48590  -0.48558  -0.48459  -0.48443  -0.48375
 Alpha  occ. eigenvalues --   -0.48339  -0.47692  -0.47594  -0.47294  -0.47118
 Alpha  occ. eigenvalues --   -0.46794  -0.46709  -0.46554  -0.46553  -0.46356
 Alpha  occ. eigenvalues --   -0.46270  -0.46159  -0.46085  -0.45821  -0.45818
 Alpha  occ. eigenvalues --   -0.45208  -0.45198  -0.44574  -0.44513  -0.44505
 Alpha  occ. eigenvalues --   -0.44476  -0.44142  -0.44127  -0.44086  -0.44078
 Alpha  occ. eigenvalues --   -0.44017  -0.43939  -0.43552  -0.43491  -0.43385
 Alpha  occ. eigenvalues --   -0.43383  -0.43024  -0.42929  -0.42900  -0.42695
 Alpha  occ. eigenvalues --   -0.42651  -0.42553  -0.42006  -0.41964  -0.41701
 Alpha  occ. eigenvalues --   -0.41668  -0.41531  -0.41459  -0.41138  -0.40989
 Alpha  occ. eigenvalues --   -0.40867  -0.40822  -0.40723  -0.40699  -0.40568
 Alpha  occ. eigenvalues --   -0.40493  -0.40232  -0.40227  -0.39438  -0.39425
 Alpha  occ. eigenvalues --   -0.38466  -0.38350  -0.37746  -0.37654  -0.37317
 Alpha  occ. eigenvalues --   -0.37266  -0.37261  -0.37199  -0.36770  -0.36709
 Alpha  occ. eigenvalues --   -0.36216  -0.36189  -0.34283  -0.34253  -0.33860
 Alpha  occ. eigenvalues --   -0.33767  -0.33183  -0.33175  -0.31343  -0.31274
 Alpha  occ. eigenvalues --   -0.31033  -0.30972  -0.30025  -0.29954  -0.29447
 Alpha  occ. eigenvalues --   -0.29327  -0.29319  -0.29211  -0.24078  -0.24036
 Alpha  occ. eigenvalues --   -0.21125  -0.21117
 Alpha virt. eigenvalues --   -0.08792  -0.08771  -0.01747  -0.01684  -0.00056
 Alpha virt. eigenvalues --   -0.00029   0.02204   0.02208   0.03126   0.03228
 Alpha virt. eigenvalues --    0.04721   0.04730   0.05102   0.05167   0.06180

 Mulliken charges:
               1
     1  Mg   0.838774
     2  C   -0.002974
     3  C   -0.094128
     4  C   -0.045874
     5  C   -0.063960
     6  N   -0.256778
     7  C   -0.052458
     8  C   -0.014021
     9  C   -0.087001
    10  C    0.046324
    11  C    0.104813
    12  C    0.053473
    13  C   -0.071792
    14  H    0.036124
    15  N   -0.433142
    16  C    0.168421
    17  C   -0.177174
    18  C   -0.004010
    19  C    0.148711
    20  C    0.110183
    21  C    0.012272
    22  O   -0.249629
    23  C    0.062483
    24  N   -0.341176
    25  C    0.041258
    26  C   -0.028178
    27  C   -0.023985
    28  C    0.074870
    29  C    0.076165
    30  C    0.035118
    31  C   -0.004503
    32  N   -0.310471
    33  C    0.080417
    34  C   -0.169688
    35  C    0.008359
    36  C    0.082971
    37  C    0.127306
    38  C    0.046138
    39  O   -0.188406
    40  C   -0.005317
    41  C    0.212866
    42  O   -0.257097
    43  O   -0.304799
    44  C    0.157692
    45  H   -0.017618
    46  H   -0.016842
    47  H   -0.041473
    48  H    0.000946
    49  H   -0.004048
    50  H    0.025481
    51  H    0.016447
    52  H    0.016649
    53  H    0.011190
    54  H    0.044130
    55  H    0.017875
    56  H    0.017929
    57  H    0.005864
    58  H    0.026814
    59  H    0.039522
    60  H    0.037341
    61  H    0.035634
    62  H    0.031483
    63  H    0.016551
    64  H    0.009468
    65  H    0.023209
    66  H    0.012542
    67  H    0.004760
    68  H    0.006369
    69  H    0.004749
    70  H    0.008771
    71  H    0.018165
    72  H    0.028975
    73  H    0.047600
    74  H    0.009124
    75  H    0.046016
    76  H    0.035152
    77  H    0.042964
    78  H    0.046382
    79  H    0.053701
    80  Mg   0.837895
    81  C   -0.016832
    82  C   -0.087795
    83  C   -0.045525
    84  C   -0.064863
    85  N   -0.254557
    86  C   -0.049833
    87  C   -0.015091
    88  C   -0.090499
    89  C    0.045754
    90  C    0.114366
    91  C    0.062518
    92  C   -0.077892
    93  H    0.034901
    94  N   -0.423498
    95  C    0.162921
    96  C   -0.174632
    97  C   -0.007814
    98  C    0.152126
    99  C    0.099373
   100  C    0.015561
   101  O   -0.253186
   102  C    0.061206
   103  N   -0.350084
   104  C    0.037558
   105  C   -0.019864
   106  C   -0.034805
   107  C    0.088922
   108  C    0.073637
   109  C    0.034722
   110  C   -0.007669
   111  N   -0.324117
   112  C    0.078443
   113  C   -0.163106
   114  C    0.002248
   115  C    0.096213
   116  C    0.131492
   117  C    0.042415
   118  O   -0.187817
   119  C    0.000898
   120  C    0.211275
   121  O   -0.251040
   122  O   -0.305620
   123  C    0.152036
   124  H   -0.019667
   125  H   -0.015571
   126  H   -0.040422
   127  H   -0.000621
   128  H   -0.004341
   129  H    0.022507
   130  H    0.014438
   131  H    0.016280
   132  H    0.013906
   133  H    0.037679
   134  H    0.020805
   135  H    0.019575
   136  H    0.008752
   137  H    0.026133
   138  H    0.039781
   139  H    0.038245
   140  H    0.036390
   141  H    0.033888
   142  H    0.014394
   143  H    0.012462
   144  H    0.025141
   145  H    0.011653
   146  H    0.005717
   147  H    0.006275
   148  H    0.003675
   149  H    0.010926
   150  H    0.017936
   151  H    0.030088
   152  H    0.046021
   153  H    0.008521
   154  H    0.047016
   155  H    0.035080
   156  H    0.043943
   157  H    0.049479
   158  H    0.053574
 Sum of Mulliken charges =  -0.00000

 Dipole moment (field-independent basis, Debye):
    X=             -3.7636    Y=             -2.5251    Z=             -7.8495  Tot=              9.0639
 Quadrupole moment (field-independent basis, Debye-Ang):
   XX=           -508.4932   YY=           -552.0101   ZZ=           -447.1169
   XY=             -2.9178   XZ=             -0.8452   YZ=            -48.6926

 Normal termination of Gaussian 16 at Sun Sep 12 19:56:43 2021.
