 Gaussian 16, Revision A.03,
 Gaussian 16:  ES64L-G16RevA.03 25-Dec-2016

 -----------------------------------
 #p cam-b3lyp/Def2SVP td=(nstates=5)
 -----------------------------------

 --------------------------------
 TDDFT excited states in gaussian
 --------------------------------
 Symbolic Z-matrix:
 Charge =  0 Multiplicity = 1

                         Standard orientation:
 ---------------------------------------------------------------------
 Center     Atomic      Atomic             Coordinates (Angstroms)
 Number     Number       Type             X           Y           Z
 ---------------------------------------------------------------------
      1         12           0       -5.220263   -0.652334    0.270346
      2          6           0       -5.347484    2.917842    0.047029
      3          6           0       -6.220356   -0.743277   -2.990729
      4          6           0       -5.554240   -3.791301    0.573608
      5          6           0       -5.343741   -0.292624    3.734595
      6          7           0       -5.690511    0.951141   -1.181680
      7          6           0       -5.642164    2.279430   -1.159718
      8          6           0       -5.860106    2.928811   -2.559068
      9          6           0       -6.667743    1.747346   -3.261819
     10          6           0       -6.136072    0.576065   -2.454756
     11          6           0       -8.177061    1.837431   -3.060956
     12          6           0       -4.509782    3.217883   -3.297169
     13          6           0       -4.615285    4.140500   -4.514954
     14          1           0       -3.527029    5.067077   -4.787904
     15          7           0       -5.324746   -2.068277   -1.103349
     16          6           0       -5.738979   -1.924112   -2.385112
     17          6           0       -5.633697   -3.264515   -3.000674
     18          6           0       -5.305417   -4.236507   -1.921064
     19          6           0       -5.408814   -3.397547   -0.754516
     20          6           0       -5.788963   -3.509575   -4.470228
     21          6           0       -4.964515   -5.693099   -1.937130
     22          8           0       -4.941796   -6.398128   -0.870831
     23          6           0       -4.741443   -6.301003   -3.261415
     24          7           0       -5.641827   -1.884482    1.901827
     25          6           0       -5.672539   -3.215315    1.771728
     26          6           0       -5.710097   -3.893926    3.108895
     27          6           0       -5.452476   -2.749857    4.192633
     28          6           0       -5.389477   -1.531311    3.238984
     29          6           0       -7.011532   -4.633927    3.447531
     30          6           0       -4.283131   -2.971365    5.184594
     31          6           0       -2.965585   -2.923173    4.443753
     32          7           0       -5.148780    0.998802    1.677358
     33          6           0       -5.239141    0.920378    3.074626
     34          6           0       -5.251849    2.303640    3.585011
     35          6           0       -5.184269    3.096040    2.440730
     36          6           0       -5.159098    2.261100    1.287243
     37          6           0       -5.377330    2.687397    4.949350
     38          6           0       -5.152320    4.454282    1.923029
     39          8           0       -5.057699    5.573285    2.429363
     40          6           0       -5.379636    4.395654    0.348000
     41          6           0       -4.335151    5.267025   -0.294708
     42          8           0       -3.127037    4.957737   -0.248162
     43          8           0       -4.936439    6.191162   -1.059538
     44          6           0       -3.955233    7.070507   -1.749567
     45          1           0       -6.754357   -0.898177   -3.930298
     46          1           0       -5.561673   -4.871974    0.730223
     47          1           0       -5.295424   -0.103831    4.808595
     48          1           0       -6.462477    3.837372   -2.549651
     49          1           0       -6.397281    1.637869   -4.311860
     50          1           0       -8.438960    2.628419   -2.358341
     51          1           0       -8.477057    0.865383   -2.669015
     52          1           0       -8.689308    1.945960   -4.017304
     53          1           0       -4.164220    2.306204   -3.784498
     54          1           0       -3.769426    3.618926   -2.604086
     55          1           0       -5.574012    4.659266   -4.540102
     56          1           0       -4.618220    3.522184   -5.412661
     57          1           0       -6.188758   -2.635071   -4.982039
     58          1           0       -6.561718   -4.269214   -4.586451
     59          1           0       -4.862229   -3.854731   -4.928883
     60          1           0       -5.638569   -6.179616   -3.868852
     61          1           0       -4.421218   -7.324960   -3.072158
     62          1           0       -3.948896   -5.753451   -3.772301
     63          1           0       -4.925014   -4.644740    3.188576
     64          1           0       -6.319426   -2.591885    4.834597
     65          1           0       -6.867129   -5.688886    3.681872
     66          1           0       -7.697539   -4.509688    2.610123
     67          1           0       -7.585826   -4.198101    4.264635
     68          1           0       -4.356999   -3.956521    5.643895
     69          1           0       -4.252999   -2.233175    5.986105
     70          1           0       -2.866901   -3.936612    4.056411
     71          1           0       -2.151767   -2.686524    5.129981
     72          1           0       -3.014792   -2.250371    3.587364
     73          1           0       -4.653432    3.486370    5.109299
     74          1           0       -5.191962    1.845584    5.616127
     75          1           0       -6.415955    3.016964    4.971710
     76          1           0       -6.388876    4.762208    0.163086
     77          1           0       -4.201565    8.098140   -1.482127
     78          1           0       -3.986575    6.801063   -2.805419
     79          1           0       -2.923816    7.008668   -1.400722
     80         12           0        5.360037   -0.897012   -0.131928
     81          6           0        5.261803    2.625459    0.547496
     82          6           0        4.380430   -0.158829   -3.314699
     83          6           0        5.000710   -4.008798   -0.637019
     84          6           0        5.208795   -1.424084    3.309734
     85          7           0        4.911397    1.022963   -1.134260
     86          6           0        4.968046    2.301652   -0.793513
     87          6           0        4.773435    3.291005   -1.973708
     88          6           0        3.953365    2.327405   -2.962553
     89          6           0        4.468197    0.976469   -2.470014
     90          6           0        2.450760    2.375624   -2.740747
     91          6           0        6.136436    3.739699   -2.608479
     92          6           0        6.040813    4.936228   -3.557661
     93          1           0        7.144794    5.891653   -3.586624
     94          7           0        5.256416   -1.918902   -1.830032
     95          6           0        4.859070   -1.457553   -3.034419
     96          6           0        4.942645   -2.604316   -3.952085
     97          6           0        5.263968   -3.819819   -3.155840
     98          6           0        5.163451   -3.288401   -1.811370
     99          6           0        4.804395   -2.467148   -5.440540
    100          6           0        5.593086   -5.230494   -3.540393
    101          8           0        5.603980   -6.178471   -2.677808
    102          6           0        5.810648   -5.486043   -4.971770
    103          7           0        4.924141   -2.489441    1.131606
    104          6           0        4.877374   -3.749553    0.664859
    105          6           0        4.821767   -4.748495    1.795968
    106          6           0        5.085987   -3.904166    3.128217
    107          6           0        5.163424   -2.487206    2.518597
    108          6           0        3.511255   -5.522696    1.935933
    109          6           0        6.247207   -4.379348    4.043883
    110          6           0        7.572343   -4.172134    3.346424
    111          7           0        5.439764    0.341959    1.636309
    112          6           0        5.332256   -0.080565    2.979440
    113          6           0        5.327921    1.134864    3.819167
    114          6           0        5.410677    2.189489    2.897544
    115          6           0        5.442552    1.668900    1.575624
    116          6           0        5.206350    1.165943    5.237050
    117          6           0        5.467614    3.625179    2.741848
    118          8           0        5.560848    4.579543    3.512720
    119          6           0        5.246218    3.976281    1.207536
    120          6           0        6.302298    4.967094    0.800697
    121          8           0        7.502553    4.641800    0.787302
    122          8           0        5.707335    6.060100    0.289094
    123          6           0        6.714156    7.067468   -0.139087
    124          1           0        3.858202   -0.058166   -4.266559
    125          1           0        4.982991   -5.095357   -0.749024
    126          1           0        5.263069   -1.507626    4.397273
    127          1           0        4.184836    4.169436   -1.737729
    128          1           0        4.238817    2.489493   -3.998704
    129          1           0        2.190278    2.962958   -1.872804
    130          1           0        2.139688    1.347538   -2.609132
    131          1           0        1.947387    2.729382   -3.645075
    132          1           0        6.474892    2.968286   -3.312110
    133          1           0        6.863977    3.940377   -1.846224
    134          1           0        5.081603    5.460001   -3.465310
    135          1           0        6.045671    4.565126   -4.585409
    136          1           0        4.408619   -1.482580   -5.718728
    137          1           0        4.026837   -3.171395   -5.755699
    138          1           0        5.729118   -2.700291   -5.972711
    139          1           0        4.920751   -5.202333   -5.528605
    140          1           0        6.121784   -6.530394   -5.038181
    141          1           0        6.621671   -4.838596   -5.323430
    142          1           0        5.600564   -5.494008    1.692150
    143          1           0        4.211679   -3.911806    3.795569
    144          1           0        3.646168   -6.620075    1.895724
    145          1           0        2.835724   -5.193842    1.157438
    146          1           0        2.943258   -5.309573    2.839902
    147          1           0        6.162553   -5.451546    4.237239
    148          1           0        6.270539   -3.879386    5.006428
    149          1           0        7.659410   -5.060105    2.713157
    150          1           0        8.382883   -4.122874    4.070729
    151          1           0        7.536878   -3.298208    2.685633
    152          1           0        5.928575    1.887224    5.595716
    153          1           0        5.375080    0.183123    5.672196
    154          1           0        4.165642    1.485772    5.336604
    155          1           0        4.240307    4.385663    1.106992
    156          1           0        6.471326    8.001322    0.377296
    157          1           0        6.674615    7.078156   -1.244557
    158          1           0        7.740628    6.914070    0.172810
 ---------------------------------------------------------------------

 SCF Done:  E(RCAM-B3LYP) =  -4069.81155771     A.U. after   19 cycles

 Excitation energies and oscillator strengths:

 Excited State   1:      Singlet-A      1.6574 eV  748.06 nm  f=0.0114  <S**2>=0.000
     309 -> 315       -0.11270
     310 -> 316        0.12617
     311 -> 313       -0.45557
     312 -> 314        0.51440
 This state for optimization and/or second-order correction.
 Total Energy, E(TD-HF/TD-DFT) =  -4069.75064864
 Copying the excited state density for this state as the 1-particle RhoCI density.

 Excited State   2:      Singlet-A      1.6960 eV  731.06 nm  f=0.7094  <S**2>=0.000
     309 -> 315        0.13475
     310 -> 316        0.11812
     311 -> 313        0.51251
     312 -> 314        0.45396

 Excited State   3:      Singlet-A      2.1823 eV  568.14 nm  f=0.0281  <S**2>=0.000
     309 -> 313       -0.25658
     310 -> 314        0.59077
     311 -> 315        0.10689
     312 -> 316       -0.24753

 Excited State   4:      Singlet-A      2.1950 eV  564.84 nm  f=0.1537  <S**2>=0.000
     309 -> 313        0.58694
     310 -> 314        0.25342
     311 -> 315       -0.25768
     312 -> 316       -0.11220

 Excited State   5:      Singlet-A      2.4826 eV  499.41 nm  f=0.0000  <S**2>=0.000
     312 -> 313        0.70710

 The electronic state is 1-A.
 Alpha  occ. eigenvalues --  -46.87881 -46.87481 -19.26403 -19.26125 -19.19138
 Alpha  occ. eigenvalues --  -19.18949 -19.18873 -19.18587 -19.18233 -19.17834
 Alpha  occ. eigenvalues --  -14.42542 -14.42311 -14.41532 -14.41183 -14.39485
 Alpha  occ. eigenvalues --  -14.39180 -14.38667 -14.38416 -10.39195 -10.38873
 Alpha  occ. eigenvalues --  -10.35507 -10.35269 -10.34457 -10.34006 -10.31811
 Alpha  occ. eigenvalues --  -10.31553 -10.31498 -10.31109 -10.31009 -10.30838
 Alpha  occ. eigenvalues --  -10.30652 -10.30582 -10.30287 -10.30221 -10.30177
 Alpha  occ. eigenvalues --  -10.29994 -10.29987 -10.29715 -10.29705 -10.29333
 Alpha  occ. eigenvalues --  -10.29276 -10.29232 -10.28884 -10.28752 -10.28501
 Alpha  occ. eigenvalues --  -10.28496 -10.28448 -10.28236 -10.28220 -10.27909
 Alpha  occ. eigenvalues --  -10.27865 -10.27824 -10.27817 -10.27660 -10.27577
 Alpha  occ. eigenvalues --  -10.27573 -10.27518 -10.27494 -10.27492 -10.27377
 Alpha  occ. eigenvalues --  -10.27375 -10.27305 -10.27293 -10.27246 -10.27221
 Alpha  occ. eigenvalues --  -10.26894 -10.26802 -10.26515 -10.26462 -10.26337
 Alpha  occ. eigenvalues --  -10.26336 -10.26260 -10.26097 -10.26019 -10.25878
 Alpha  occ. eigenvalues --  -10.25768 -10.25702 -10.25671 -10.25494 -10.25233
 Alpha  occ. eigenvalues --  -10.24905 -10.24866 -10.24776 -10.24687 -10.24616
 Alpha  occ. eigenvalues --  -10.24514  -3.16624  -3.16231  -1.91506  -1.91113
 Alpha  occ. eigenvalues --   -1.91092  -1.90934  -1.90702  -1.90539  -1.16750
 Alpha  occ. eigenvalues --   -1.16422  -1.08692  -1.08434  -1.07273  -1.06842
 Alpha  occ. eigenvalues --   -1.06758  -1.06732  -1.04673  -1.04306  -1.03844
 Alpha  occ. eigenvalues --   -1.03484  -1.03313  -1.02864  -1.02492  -1.01932
 Alpha  occ. eigenvalues --   -0.92057  -0.91787  -0.89598  -0.89332  -0.89313
 Alpha  occ. eigenvalues --   -0.88935  -0.88364  -0.88062  -0.87935  -0.87770
 Alpha  occ. eigenvalues --   -0.87613  -0.87506  -0.87350  -0.86986  -0.85100
 Alpha  occ. eigenvalues --   -0.84807  -0.84014  -0.83720  -0.83037  -0.82810
 Alpha  occ. eigenvalues --   -0.82753  -0.82470  -0.81685  -0.81402  -0.80688
 Alpha  occ. eigenvalues --   -0.80261  -0.78874  -0.78482  -0.77313  -0.77045
 Alpha  occ. eigenvalues --   -0.76970  -0.76708  -0.76024  -0.75631  -0.74977
 Alpha  occ. eigenvalues --   -0.74631  -0.72853  -0.72522  -0.71759  -0.71386
 Alpha  occ. eigenvalues --   -0.69986  -0.69612  -0.68981  -0.68641  -0.67725
 Alpha  occ. eigenvalues --   -0.67429  -0.67345  -0.67038  -0.65401  -0.65073
 Alpha  occ. eigenvalues --   -0.64944  -0.64719  -0.64590  -0.64466  -0.64350
 Alpha  occ. eigenvalues --   -0.64041  -0.62398  -0.62082  -0.60518  -0.60192
 Alpha  occ. eigenvalues --   -0.59912  -0.59594  -0.59072  -0.58812  -0.58588
 Alpha  occ. eigenvalues --   -0.58242  -0.57674  -0.57389  -0.57339  -0.57067
 Alpha  occ. eigenvalues --   -0.56389  -0.56092  -0.56034  -0.55693  -0.55600
 Alpha  occ. eigenvalues --   -0.55423  -0.55287  -0.55073  -0.54616  -0.54309
 Alpha  occ. eigenvalues --   -0.54020  -0.53706  -0.53378  -0.53322  -0.53066
 Alpha  occ. eigenvalues --   -0.53013  -0.52964  -0.52847  -0.52721  -0.52523
 Alpha  occ. eigenvalues --   -0.52518  -0.52262  -0.51971  -0.51730  -0.51701
 Alpha  occ. eigenvalues --   -0.51480  -0.51282  -0.51016  -0.50649  -0.50359
 Alpha  occ. eigenvalues --   -0.50114  -0.50002  -0.49807  -0.49712  -0.49610
 Alpha  occ. eigenvalues --   -0.49318  -0.49299  -0.49199  -0.49014  -0.48887
 Alpha  occ. eigenvalues --   -0.48684  -0.48534  -0.48520  -0.48362  -0.48217
 Alpha  occ. eigenvalues --   -0.48180  -0.47788  -0.47423  -0.47381  -0.46963
 Alpha  occ. eigenvalues --   -0.46887  -0.46675  -0.46536  -0.46441  -0.46365
 Alpha  occ. eigenvalues --   -0.46242  -0.46107  -0.45906  -0.45905  -0.45625
 Alpha  occ. eigenvalues --   -0.45278  -0.45039  -0.44660  -0.44602  -0.44326
 Alpha  occ. eigenvalues --   -0.44297  -0.44228  -0.44195  -0.44101  -0.43927
 Alpha  occ. eigenvalues --   -0.43925  -0.43770  -0.43587  -0.43485  -0.43361
 Alpha  occ. eigenvalues --   -0.43197  -0.43112  -0.42800  -0.42742  -0.42739
 Alpha  occ. eigenvalues --   -0.42701  -0.42403  -0.42104  -0.41799  -0.41789
 Alpha  occ. eigenvalues --   -0.41652  -0.41471  -0.41278  -0.41231  -0.40981
 Alpha  occ. eigenvalues --   -0.40907  -0.40793  -0.40655  -0.40580  -0.40524
 Alpha  occ. eigenvalues --   -0.40387  -0.40322  -0.40052  -0.39524  -0.39286
 Alpha  occ. eigenvalues --   -0.38558  -0.38186  -0.37894  -0.37479  -0.37404
 Alpha  occ. eigenvalues --   -0.37376  -0.37099  -0.37013  -0.36818  -0.36571
 Alpha  occ. eigenvalues --   -0.36290  -0.36037  -0.34370  -0.34071  -0.33882
 Alpha  occ. eigenvalues --   -0.33656  -0.33271  -0.32997  -0.31405  -0.31144
 Alpha  occ. eigenvalues --   -0.31120  -0.30790  -0.30094  -0.29734  -0.29524
 Alpha  occ. eigenvalues --   -0.29393  -0.29167  -0.29025  -0.24165  -0.23852
 Alpha  occ. eigenvalues --   -0.21210  -0.20940
 Alpha virt. eigenvalues --   -0.08853  -0.08617  -0.01831  -0.01511  -0.00135
 Alpha virt. eigenvalues --    0.00133   0.02131   0.02402   0.03015   0.03391
 Alpha virt. eigenvalues --    0.04605   0.04917   0.04988   0.05381   0.06013

 Mulliken charges:
               1
     1  Mg   0.838518
     2  C   -0.003308
     3  C   -0.094744
     4  C   -0.045637
     5  C   -0.063713
     6  N   -0.256696
     7  C   -0.052774
     8  C   -0.013886
     9  C   -0.086899
    10  C    0.046033
    11  C    0.104783
    12  C    0.053745
    13  C   -0.071254
    14  H    0.034376
    15  N   -0.433166
    16  C    0.168284
    17  C   -0.177423
    18  C   -0.003821
    19  C    0.148681
    20  C    0.110248
    21  C    0.012597
    22  O   -0.249251
    23  C    0.062453
    24  N   -0.341067
    25  C    0.041170
    26  C   -0.028239
    27  C   -0.023965
    28  C    0.074743
    29  C    0.076097
    30  C    0.035093
    31  C   -0.004494
    32  N   -0.310538
    33  C    0.080437
    34  C   -0.169229
    35  C    0.008649
    36  C    0.083010
    37  C    0.127174
    38  C    0.046398
    39  O   -0.187683
    40  C   -0.005527
    41  C    0.213232
    42  O   -0.257749
    43  O   -0.304608
    44  C    0.157667
    45  H   -0.017721
    46  H   -0.016601
    47  H   -0.041155
    48  H    0.001160
    49  H   -0.004579
    50  H    0.025672
    51  H    0.016731
    52  H    0.016636
    53  H    0.010265
    54  H    0.043469
    55  H    0.018659
    56  H    0.017545
    57  H    0.005488
    58  H    0.027070
    59  H    0.038957
    60  H    0.037184
    61  H    0.036287
    62  H    0.031255
    63  H    0.016602
    64  H    0.009696
    65  H    0.023371
    66  H    0.012614
    67  H    0.004902
    68  H    0.006391
    69  H    0.004991
    70  H    0.008608
    71  H    0.017630
    72  H    0.029265
    73  H    0.048423
    74  H    0.009279
    75  H    0.046150
    76  H    0.035318
    77  H    0.043596
    78  H    0.045778
    79  H    0.053343
    80  Mg   0.837970
    81  C   -0.016400
    82  C   -0.087936
    83  C   -0.045772
    84  C   -0.065076
    85  N   -0.254648
    86  C   -0.048666
    87  C   -0.015270
    88  C   -0.090857
    89  C    0.046170
    90  C    0.114190
    91  C    0.062590
    92  C   -0.077475
    93  H    0.034166
    94  N   -0.423394
    95  C    0.162837
    96  C   -0.175348
    97  C   -0.008220
    98  C    0.152001
    99  C    0.099792
   100  C    0.015147
   101  O   -0.253435
   102  C    0.061392
   103  N   -0.350035
   104  C    0.037560
   105  C   -0.019815
   106  C   -0.034693
   107  C    0.089141
   108  C    0.073711
   109  C    0.034799
   110  C   -0.007578
   111  N   -0.324322
   112  C    0.078972
   113  C   -0.162964
   114  C    0.003109
   115  C    0.096167
   116  C    0.131244
   117  C    0.043207
   118  O   -0.187107
   119  C    0.000452
   120  C    0.210957
   121  O   -0.251726
   122  O   -0.304791
   123  C    0.152269
   124  H   -0.020654
   125  H   -0.015900
   126  H   -0.040875
   127  H    0.001015
   128  H   -0.005600
   129  H    0.027882
   130  H    0.013754
   131  H    0.014769
   132  H    0.013351
   133  H    0.037509
   134  H    0.021141
   135  H    0.018835
   136  H    0.008165
   137  H    0.024722
   138  H    0.039249
   139  H    0.037445
   140  H    0.035941
   141  H    0.033744
   142  H    0.014011
   143  H    0.012078
   144  H    0.024949
   145  H    0.012294
   146  H    0.005401
   147  H    0.005943
   148  H    0.003352
   149  H    0.010798
   150  H    0.017591
   151  H    0.030295
   152  H    0.045854
   153  H    0.007838
   154  H    0.048043
   155  H    0.038565
   156  H    0.044099
   157  H    0.049035
   158  H    0.053046
 Sum of Mulliken charges =  -0.00000

 Dipole moment (field-independent basis, Debye):
    X=             -4.4840    Y=             -2.0903    Z=             -7.2188  Tot=              8.7514
 Quadrupole moment (field-independent basis, Debye-Ang):
   XX=           -518.2006   YY=           -549.6856   ZZ=           -449.8851
   XY=             -1.4314   XZ=              0.2686   YZ=            -46.9636

 Normal termination of Gaussian 16 at Sat Sep  4 02:01:50 2021.
