 Gaussian 16, Revision A.03,
 Gaussian 16:  ES64L-G16RevA.03 25-Dec-2016

 -----------------------------------
 #p cam-b3lyp/Def2SVP td=(nstates=5)
 -----------------------------------

 --------------------------------
 TDDFT excited states in gaussian
 --------------------------------
 Symbolic Z-matrix:
 Charge =  0 Multiplicity = 1

                         Standard orientation:
 ---------------------------------------------------------------------
 Center     Atomic      Atomic             Coordinates (Angstroms)
 Number     Number       Type             X           Y           Z
 ---------------------------------------------------------------------
      1         12           0       -4.359743    0.613557    0.703700
      2          6           0       -4.970565   -2.097385   -1.552382
      3          6           0       -4.795979   -1.608309    3.256360
      4          6           0       -4.275073    3.068086    2.709875
      5          6           0       -5.092219    2.775831   -1.929494
      6          7           0       -4.819024   -1.551935    0.722443
      7          6           0       -4.969861   -2.486352   -0.210984
      8          6           0       -5.051716   -3.930457    0.368010
      9          6           0       -5.553499   -3.583047    1.840938
     10          6           0       -4.993421   -2.176868    1.962996
     11          6           0       -7.072152   -3.519631    1.968117
     12          6           0       -3.657011   -4.641801    0.390800
     13          6           0       -3.698448   -6.153563    0.632073
     14          1           0       -2.727948   -6.998082   -0.047828
     15          7           0       -4.032622    0.665702    2.651294
     16          6           0       -4.251064   -0.336470    3.536291
     17          6           0       -3.852681    0.193112    4.858227
     18          6           0       -3.564285    1.645489    4.698469
     19          6           0       -3.976368    1.859614    3.334755
     20          6           0       -3.731076   -0.659710    6.083649
     21          6           0       -3.015723    2.679027    5.630677
     22          8           0       -3.062480    3.928607    5.364336
     23          6           0       -2.495205    2.190394    6.920383
     24          7           0       -4.854174    2.631438    0.500401
     25          6           0       -4.668295    3.492261    1.507087
     26          6           0       -4.821478    4.911711    1.047049
     27          6           0       -4.912524    4.852709   -0.546055
     28          6           0       -4.875482    3.315218   -0.727764
     29          6           0       -6.037955    5.666900    1.600117
     30          6           0       -3.899011    5.713962   -1.340696
     31          6           0       -2.500586    5.172741   -1.144269
     32          7           0       -4.758884    0.416179   -1.420629
     33          6           0       -5.061179    1.447856   -2.321148
     34          6           0       -5.358508    0.814891   -3.619230
     35          6           0       -5.223825   -0.550931   -3.377906
     36          6           0       -4.890785   -0.759453   -2.009003
     37          6           0       -5.757431    1.492656   -4.804949
     38          6           0       -5.307924   -1.883994   -3.952125
     39          8           0       -5.461159   -2.329869   -5.090197
     40          6           0       -5.266903   -2.944471   -2.764888
     41          6           0       -4.271342   -4.008227   -3.139842
     42          8           0       -3.054502   -3.744460   -3.224070
     43          8           0       -4.869997   -5.208683   -3.107304
     44          6           0       -3.929720   -6.311732   -3.440945
     45          1           0       -5.142771   -2.158439    4.133306
     46          1           0       -4.149390    3.950494    3.340746
     47          1           0       -5.246102    3.391628   -2.817507
     48          1           0       -5.774150   -4.578783   -0.128162
     49          1           0       -5.103981   -4.236201    2.588631
     50          1           0       -7.557001   -3.596670    0.995026
     51          1           0       -7.285895   -2.552916    2.424482
     52          1           0       -7.433572   -4.269744    2.672024
     53          1           0       -3.107598   -4.327306    1.278099
     54          1           0       -3.105069   -4.438265   -0.527492
     55          1           0       -4.706021   -6.550159    0.503941
     56          1           0       -3.465851   -6.338550    1.680823
     57          1           0       -4.166665   -1.646200    5.929883
     58          1           0       -4.355270   -0.203925    6.851992
     59          1           0       -2.702037   -0.725619    6.437296
     60          1           0       -3.290466    1.671696    7.456164
     61          1           0       -2.063315    3.057752    7.418390
     62          1           0       -1.719396    1.448299    6.729688
     63          1           0       -3.958206    5.510965    1.333548
     64          1           0       -5.885406    5.181096   -0.912576
     65          1           0       -5.780400    6.586481    2.126179
     66          1           0       -6.590461    4.987219    2.248240
     67          1           0       -6.794174    5.921330    0.857947
     68          1           0       -3.901019    6.738992   -0.971568
     69          1           0       -4.107086    5.746210   -2.410236
     70          1           0       -2.193359    5.627849   -0.203354
     71          1           0       -1.851771    5.489690   -1.961456
     72          1           0       -2.508852    4.092667   -0.996428
     73          1           0       -5.193737    1.038883   -5.620000
     74          1           0       -5.560919    2.562267   -4.734819
     75          1           0       -6.822949    1.263934   -4.819513
     76          1           0       -6.275695   -3.344240   -2.666672
     77          1           0       -4.363765   -6.861995   -4.275840
     78          1           0       -3.750392   -6.857016   -2.514170
     79          1           0       -2.970365   -6.015206   -3.866444
     80         12           0        4.505019    0.606477   -0.869343
     81          6           0        4.666346   -2.301629    1.227319
     82          6           0        4.122966    2.451572    1.973948
     83          6           0        3.909381    3.126289   -2.703235
     84          6           0        3.757559   -1.521332   -3.526295
     85          7           0        4.422059    0.034588    1.265684
     86          6           0        4.556399   -1.093426    1.946766
     87          6           0        4.654538   -0.908306    3.484841
     88          6           0        3.905719    0.507231    3.604926
     89          6           0        4.193291    1.055105    2.208569
     90          6           0        2.400158    0.379765    3.767269
     91          6           0        6.139847   -0.816422    3.982249
     92          6           0        6.320129   -0.945560    5.496380
     93          1           0        7.507841   -1.629738    6.000065
     94          7           0        4.565851    2.544809   -0.447748
     95          6           0        4.413981    3.119153    0.764003
     96          6           0        4.522256    4.568844    0.538514
     97          6           0        4.585828    4.811951   -0.928311
     98          6           0        4.329606    3.476107   -1.428256
     99          6           0        4.636128    5.560464    1.659744
    100          6           0        4.823551    6.045334   -1.745912
    101          8           0        4.599531    6.070302   -3.007663
    102          6           0        5.237050    7.249551   -1.010819
    103          7           0        3.712044    0.803075   -2.781118
    104          6           0        3.609263    2.009299   -3.366248
    105          6           0        3.272193    1.877437   -4.832324
    106          6           0        3.408516    0.319363   -5.166060
    107          6           0        3.727880   -0.215180   -3.752676
    108          6           0        1.882925    2.365755   -5.242035
    109          6           0        4.354692   -0.069895   -6.334776
    110          6           0        5.787708    0.235014   -5.962111
    111          7           0        4.432133   -1.530777   -1.177369
    112          6           0        4.070338   -2.210087   -2.361315
    113          6           0        4.059307   -3.653916   -2.048803
    114          6           0        4.395685   -3.713471   -0.687993
    115          6           0        4.582053   -2.398364   -0.182747
    116          6           0        3.718925   -4.698408   -2.953954
    117          6           0        4.625088   -4.589242    0.438548
    118          8           0        4.693685   -5.808104    0.591469
    119          6           0        4.686737   -3.707616    1.759663
    120          6           0        5.890834   -4.139864    2.550756
    121          8           0        7.037815   -3.959864    2.105078
    122          8           0        5.500858   -4.493198    3.789082
    123          6           0        6.661677   -4.919166    4.615445
    124          1           0        3.771141    3.096021    2.780040
    125          1           0        3.797031    3.954688   -3.406528
    126          1           0        3.630201   -2.255254   -4.324933
    127          1           0        4.130316   -1.656806    4.066837
    128          1           0        4.366700    1.134860    4.363174
    129          1           0        2.068007   -0.641741    3.656184
    130          1           0        1.967279    1.004265    2.996776
    131          1           0        2.085555    0.815044    4.720102
    132          1           0        6.503477    0.208887    3.836506
    133          1           0        6.754522   -1.539435    3.482188
    134          1           0        5.417935   -1.329851    5.987615
    135          1           0        6.448966    0.054661    5.917061
    136          1           0        4.393581    5.103488    2.627077
    137          1           0        3.849420    6.307264    1.507256
    138          1           0        5.604146    6.065687    1.678544
    139          1           0        4.480697    7.498009   -0.270099
    140          1           0        5.444784    8.001313   -1.774735
    141          1           0        6.156189    7.023992   -0.458623
    142          1           0        3.976062    2.430360   -5.442217
    143          1           0        2.443650   -0.120771   -5.457884
    144          1           0        1.907978    3.142748   -6.029263
    145          1           0        1.376794    2.734505   -4.359770
    146          1           0        1.204311    1.588781   -5.589903
    147          1           0        4.129819    0.530096   -7.219986
    148          1           0        4.277232   -1.112574   -6.624272
    149          1           0        5.881280    1.300472   -6.192609
    150          1           0        6.474184   -0.360132   -6.560927
    151          1           0        5.947997    0.115608   -4.884287
    152          1           0        4.446182   -5.486028   -2.808187
    153          1           0        3.713881   -4.346423   -3.983449
    154          1           0        2.714413   -4.944216   -2.599258
    155          1           0        3.757329   -3.871341    2.306438
    156          1           0        6.438405   -5.924451    4.985885
    157          1           0        6.798784   -4.122853    5.370974
    158          1           0        7.604391   -5.085502    4.107433
 ---------------------------------------------------------------------

 SCF Done:  E(RCAM-B3LYP) =  -4069.81220184     A.U. after   19 cycles

 Excitation energies and oscillator strengths:

 Excited State   1:      Singlet-A      1.6656 eV  744.37 nm  f=0.2657  <S**2>=0.000
     309 -> 315        0.10885
     310 -> 316       -0.13198
     311 -> 313       -0.43546
     312 -> 314        0.53024
 This state for optimization and/or second-order correction.
 Total Energy, E(TD-HF/TD-DFT) =  -4069.75099152
 Copying the excited state density for this state as the 1-particle RhoCI density.

 Excited State   2:      Singlet-A      1.6808 eV  737.63 nm  f=0.4048  <S**2>=0.000
     309 -> 315       -0.13513
     310 -> 316       -0.11162
     311 -> 313        0.52952
     312 -> 314        0.43516

 Excited State   3:      Singlet-A      2.1847 eV  567.51 nm  f=0.0966  <S**2>=0.000
     310 -> 314        0.64003
     312 -> 316        0.27166

 Excited State   4:      Singlet-A      2.1900 eV  566.14 nm  f=0.1004  <S**2>=0.000
     309 -> 313        0.63863
     311 -> 315        0.27505

 Excited State   5:      Singlet-A      2.3491 eV  527.80 nm  f=0.0000  <S**2>=0.000
     312 -> 313        0.70707

 The electronic state is 1-A.
 Alpha  occ. eigenvalues --  -46.87902 -46.87457 -19.26336 -19.26313 -19.19095
 Alpha  occ. eigenvalues --  -19.19094 -19.19018 -19.18549 -19.18283 -19.17912
 Alpha  occ. eigenvalues --  -14.42544 -14.42309 -14.41551 -14.41138 -14.39520
 Alpha  occ. eigenvalues --  -14.39154 -14.38693 -14.38394 -10.39154 -10.39020
 Alpha  occ. eigenvalues --  -10.35655 -10.35229 -10.34498 -10.34092 -10.31754
 Alpha  occ. eigenvalues --  -10.31700 -10.31487 -10.31127 -10.31005 -10.30864
 Alpha  occ. eigenvalues --  -10.30671 -10.30625 -10.30319 -10.30188 -10.30154
 Alpha  occ. eigenvalues --  -10.30023 -10.29898 -10.29755 -10.29662 -10.29378
 Alpha  occ. eigenvalues --  -10.29222 -10.29196 -10.28786 -10.28634 -10.28629
 Alpha  occ. eigenvalues --  -10.28479 -10.28460 -10.28223 -10.28163 -10.28039
 Alpha  occ. eigenvalues --  -10.27914 -10.27823 -10.27805 -10.27719 -10.27631
 Alpha  occ. eigenvalues --  -10.27585 -10.27549 -10.27503 -10.27471 -10.27302
 Alpha  occ. eigenvalues --  -10.27272 -10.27267 -10.27247 -10.27204 -10.27101
 Alpha  occ. eigenvalues --  -10.26937 -10.26693 -10.26680 -10.26624 -10.26280
 Alpha  occ. eigenvalues --  -10.26276 -10.26234 -10.26121 -10.25970 -10.25955
 Alpha  occ. eigenvalues --  -10.25855 -10.25684 -10.25571 -10.25535 -10.25087
 Alpha  occ. eigenvalues --  -10.24951 -10.24901 -10.24711 -10.24677 -10.24494
 Alpha  occ. eigenvalues --  -10.24485  -3.16644  -3.16207  -1.91526  -1.91112
 Alpha  occ. eigenvalues --   -1.91089  -1.90955  -1.90678  -1.90515  -1.16689
 Alpha  occ. eigenvalues --   -1.16600  -1.08737  -1.08529  -1.07425  -1.06880
 Alpha  occ. eigenvalues --   -1.06805  -1.06715  -1.04676  -1.04315  -1.03864
 Alpha  occ. eigenvalues --   -1.03461  -1.03346  -1.02821  -1.02519  -1.01903
 Alpha  occ. eigenvalues --   -0.92072  -0.91814  -0.89610  -0.89263  -0.89233
 Alpha  occ. eigenvalues --   -0.89036  -0.88378  -0.87982  -0.87973  -0.87759
 Alpha  occ. eigenvalues --   -0.87575  -0.87488  -0.87429  -0.86932  -0.85044
 Alpha  occ. eigenvalues --   -0.84866  -0.84020  -0.83640  -0.83144  -0.82746
 Alpha  occ. eigenvalues --   -0.82728  -0.82514  -0.81660  -0.81467  -0.80694
 Alpha  occ. eigenvalues --   -0.80288  -0.78930  -0.78436  -0.77301  -0.76986
 Alpha  occ. eigenvalues --   -0.76985  -0.76741  -0.75992  -0.75705  -0.74986
 Alpha  occ. eigenvalues --   -0.74577  -0.72877  -0.72491  -0.71763  -0.71395
 Alpha  occ. eigenvalues --   -0.69978  -0.69507  -0.68951  -0.68688  -0.67757
 Alpha  occ. eigenvalues --   -0.67422  -0.67282  -0.67075  -0.65346  -0.65144
 Alpha  occ. eigenvalues --   -0.64944  -0.64698  -0.64587  -0.64498  -0.64359
 Alpha  occ. eigenvalues --   -0.63973  -0.62370  -0.62148  -0.60580  -0.60138
 Alpha  occ. eigenvalues --   -0.59875  -0.59657  -0.59084  -0.58798  -0.58605
 Alpha  occ. eigenvalues --   -0.58244  -0.57676  -0.57426  -0.57415  -0.57033
 Alpha  occ. eigenvalues --   -0.56424  -0.56040  -0.56023  -0.55778  -0.55650
 Alpha  occ. eigenvalues --   -0.55422  -0.55306  -0.55049  -0.54598  -0.54305
 Alpha  occ. eigenvalues --   -0.53945  -0.53802  -0.53431  -0.53317  -0.53040
 Alpha  occ. eigenvalues --   -0.53015  -0.52995  -0.52877  -0.52763  -0.52519
 Alpha  occ. eigenvalues --   -0.52508  -0.52160  -0.52025  -0.51696  -0.51642
 Alpha  occ. eigenvalues --   -0.51533  -0.51280  -0.51029  -0.50752  -0.50298
 Alpha  occ. eigenvalues --   -0.50119  -0.50059  -0.49833  -0.49631  -0.49614
 Alpha  occ. eigenvalues --   -0.49339  -0.49326  -0.49159  -0.49063  -0.48962
 Alpha  occ. eigenvalues --   -0.48677  -0.48613  -0.48547  -0.48420  -0.48191
 Alpha  occ. eigenvalues --   -0.48137  -0.47792  -0.47428  -0.47408  -0.46923
 Alpha  occ. eigenvalues --   -0.46882  -0.46610  -0.46526  -0.46461  -0.46411
 Alpha  occ. eigenvalues --   -0.46256  -0.46066  -0.45902  -0.45872  -0.45662
 Alpha  occ. eigenvalues --   -0.45295  -0.44982  -0.44683  -0.44614  -0.44386
 Alpha  occ. eigenvalues --   -0.44310  -0.44245  -0.44148  -0.44127  -0.43985
 Alpha  occ. eigenvalues --   -0.43882  -0.43790  -0.43579  -0.43460  -0.43424
 Alpha  occ. eigenvalues --   -0.43225  -0.43120  -0.42824  -0.42779  -0.42721
 Alpha  occ. eigenvalues --   -0.42718  -0.42330  -0.42077  -0.41803  -0.41780
 Alpha  occ. eigenvalues --   -0.41585  -0.41504  -0.41308  -0.41228  -0.41003
 Alpha  occ. eigenvalues --   -0.40911  -0.40826  -0.40649  -0.40584  -0.40554
 Alpha  occ. eigenvalues --   -0.40263  -0.40251  -0.40135  -0.39505  -0.39169
 Alpha  occ. eigenvalues --   -0.38545  -0.38127  -0.37782  -0.37545  -0.37409
 Alpha  occ. eigenvalues --   -0.37319  -0.37061  -0.37025  -0.36785  -0.36675
 Alpha  occ. eigenvalues --   -0.36269  -0.36021  -0.34388  -0.34059  -0.33854
 Alpha  occ. eigenvalues --   -0.33769  -0.33292  -0.32969  -0.31544  -0.31140
 Alpha  occ. eigenvalues --   -0.31107  -0.30783  -0.30138  -0.29820  -0.29586
 Alpha  occ. eigenvalues --   -0.29440  -0.29133  -0.29010  -0.24183  -0.23831
 Alpha  occ. eigenvalues --   -0.21235  -0.20911
 Alpha virt. eigenvalues --   -0.08894  -0.08591  -0.01863  -0.01476  -0.00203
 Alpha virt. eigenvalues --    0.00140   0.02084   0.02386   0.02846   0.03481
 Alpha virt. eigenvalues --    0.04654   0.04898   0.05023   0.05245   0.06174

 Mulliken charges:
               1
     1  Mg   0.838879
     2  C   -0.002858
     3  C   -0.093876
     4  C   -0.046357
     5  C   -0.063933
     6  N   -0.256904
     7  C   -0.051911
     8  C   -0.014105
     9  C   -0.087010
    10  C    0.046392
    11  C    0.104762
    12  C    0.053389
    13  C   -0.072854
    14  H    0.038889
    15  N   -0.433018
    16  C    0.168077
    17  C   -0.177446
    18  C   -0.004787
    19  C    0.148555
    20  C    0.110139
    21  C    0.010849
    22  O   -0.250351
    23  C    0.062859
    24  N   -0.341285
    25  C    0.041518
    26  C   -0.028013
    27  C   -0.024088
    28  C    0.075291
    29  C    0.076193
    30  C    0.035043
    31  C   -0.004611
    32  N   -0.310550
    33  C    0.080718
    34  C   -0.169978
    35  C    0.008235
    36  C    0.083144
    37  C    0.127381
    38  C    0.045837
    39  O   -0.188350
    40  C   -0.005172
    41  C    0.212970
    42  O   -0.257675
    43  O   -0.304625
    44  C    0.157742
    45  H   -0.017347
    46  H   -0.017396
    47  H   -0.041153
    48  H    0.001143
    49  H   -0.003480
    50  H    0.025507
    51  H    0.016196
    52  H    0.017020
    53  H    0.011415
    54  H    0.044062
    55  H    0.017497
    56  H    0.018593
    57  H    0.006613
    58  H    0.026899
    59  H    0.038241
    60  H    0.038397
    61  H    0.034484
    62  H    0.029519
    63  H    0.015862
    64  H    0.009639
    65  H    0.022903
    66  H    0.012556
    67  H    0.005050
    68  H    0.006320
    69  H    0.005171
    70  H    0.007372
    71  H    0.020965
    72  H    0.028641
    73  H    0.047101
    74  H    0.009487
    75  H    0.046386
    76  H    0.035513
    77  H    0.043075
    78  H    0.047449
    79  H    0.053119
    80  Mg   0.838053
    81  C   -0.017250
    82  C   -0.088194
    83  C   -0.045593
    84  C   -0.060816
    85  N   -0.254506
    86  C   -0.050094
    87  C   -0.014976
    88  C   -0.090519
    89  C    0.045264
    90  C    0.114587
    91  C    0.062685
    92  C   -0.077441
    93  H    0.034441
    94  N   -0.423455
    95  C    0.162560
    96  C   -0.174539
    97  C   -0.008223
    98  C    0.152170
    99  C    0.099393
   100  C    0.015140
   101  O   -0.253743
   102  C    0.061303
   103  N   -0.349908
   104  C    0.037926
   105  C   -0.020243
   106  C   -0.035695
   107  C    0.088881
   108  C    0.072939
   109  C    0.034564
   110  C   -0.007532
   111  N   -0.324333
   112  C    0.078218
   113  C   -0.161240
   114  C    0.001687
   115  C    0.096654
   116  C    0.131517
   117  C    0.042244
   118  O   -0.189271
   119  C    0.000937
   120  C    0.211094
   121  O   -0.250898
   122  O   -0.306147
   123  C    0.152148
   124  H   -0.019083
   125  H   -0.016006
   126  H   -0.038494
   127  H   -0.002291
   128  H   -0.004671
   129  H    0.021075
   130  H    0.016625
   131  H    0.013837
   132  H    0.014240
   133  H    0.037679
   134  H    0.019471
   135  H    0.019589
   136  H    0.009048
   137  H    0.026349
   138  H    0.039097
   139  H    0.038150
   140  H    0.035761
   141  H    0.033787
   142  H    0.013641
   143  H    0.017138
   144  H    0.023580
   145  H    0.011035
   146  H    0.009666
   147  H    0.006261
   148  H    0.004385
   149  H    0.010410
   150  H    0.017380
   151  H    0.029593
   152  H    0.044466
   153  H    0.009250
   154  H    0.049801
   155  H    0.033566
   156  H    0.043108
   157  H    0.049173
   158  H    0.053676
 Sum of Mulliken charges =  -0.00000

 Dipole moment (field-independent basis, Debye):
    X=             -3.0594    Y=              1.7510    Z=              6.2551  Tot=              7.1799
 Quadrupole moment (field-independent basis, Debye-Ang):
   XX=           -519.7722   YY=           -511.8531   ZZ=           -487.4837
   XY=             24.1118   XZ=             -2.2072   YZ=            -12.7030

 Normal termination of Gaussian 16 at Fri Sep  3 22:17:19 2021.
