 Gaussian 16, Revision A.03,
 Gaussian 16:  ES64L-G16RevA.03 25-Dec-2016

 -----------------------------------
 #p cam-b3lyp/Def2SVP td=(nstates=5)
 -----------------------------------

 --------------------------------
 TDDFT excited states in gaussian
 --------------------------------
 Symbolic Z-matrix:
 Charge =  0 Multiplicity = 1

                         Standard orientation:
 ---------------------------------------------------------------------
 Center     Atomic      Atomic             Coordinates (Angstroms)
 Number     Number       Type             X           Y           Z
 ---------------------------------------------------------------------
      1         12           0       -4.433468   -0.634091   -0.139024
      2          6           0       -4.597470    2.773352    0.944787
      3          6           0       -5.124917    0.489341   -3.285906
      4          6           0       -4.743047   -3.660594   -1.034045
      5          6           0       -4.883821   -1.560299    3.190387
      6          7           0       -4.792921    1.397029   -0.942761
      7          6           0       -4.768436    2.624664   -0.433367
      8          6           0       -4.866074    3.743629   -1.513069
      9          6           0       -5.585665    2.915227   -2.669762
     10          6           0       -5.112223    1.520514   -2.300232
     11          6           0       -7.108376    2.954202   -2.590183
     12          6           0       -3.457947    4.256542   -1.966753
     13          6           0       -3.464947    5.561544   -2.768174
     14          1           0       -2.371271    6.503222   -2.582529
     15          7           0       -4.386938   -1.449301   -1.937946
     16          6           0       -4.682690   -0.839855   -3.111143
     17          6           0       -4.498932   -1.865171   -4.160733
     18          6           0       -4.256517   -3.169933   -3.484770
     19          6           0       -4.481388   -2.812405   -2.107459
     20          6           0       -4.513107   -1.554450   -5.625998
     21          6           0       -3.891947   -4.526476   -3.999562
     22          8           0       -3.956840   -5.572115   -3.266758
     23          6           0       -3.537050   -4.613628   -5.427671
     24          7           0       -4.984556   -2.368214    0.884085
     25          6           0       -4.981406   -3.559112    0.275204
     26          6           0       -5.131881   -4.677810    1.263036
     27          6           0       -4.994618   -4.012829    2.708273
     28          6           0       -4.863198   -2.531832    2.275092
     29          6           0       -6.446921   -5.465745    1.186628
     30          6           0       -3.918954   -4.602778    3.654490
     31          6           0       -2.539285   -4.312494    3.107364
     32          7           0       -4.519770    0.388539    1.773520
     33          6           0       -4.738156   -0.192348    3.031117
     34          6           0       -4.820687    0.909486    4.007447
     35          6           0       -4.660079    2.063205    3.242605
     36          6           0       -4.514363    1.706126    1.871637
     37          6           0       -5.078499    0.771530    5.399903
     38          6           0       -4.602310    3.515846    3.261422
     39          8           0       -4.573315    4.371131    4.147503
     40          6           0       -4.681457    4.039944    1.759794
     41          6           0       -3.596136    5.065899    1.578680
     42          8           0       -2.392687    4.738292    1.620538
     43          8           0       -4.138785    6.216443    1.151687
     44          6           0       -3.112197    7.268269    0.923795
     45          1           0       -5.566804    0.697831   -4.262230
     46          1           0       -4.747404   -4.723610   -1.283878
     47          1           0       -4.938486   -1.777135    4.258772
     48          1           0       -5.481419    4.597329   -1.228514
     49          1           0       -5.217154    3.191173   -3.657575
     50          1           0       -7.447198    3.439244   -1.674838
     51          1           0       -7.427606    1.911985   -2.609378
     52          1           0       -7.531335    3.413639   -3.483940
     53          1           0       -3.053857    3.579059   -2.718942
     54          1           0       -2.791747    4.363210   -1.109942
     55          1           0       -4.425512    6.071671   -2.690755
     56          1           0       -3.374480    5.313375   -3.825731
     57          1           0       -4.877839   -0.546173   -5.818072
     58          1           0       -5.259277   -2.204718   -6.082169
     59          1           0       -3.542308   -1.725915   -6.091273
     60          1           0       -4.375772   -4.262236   -6.029018
     61          1           0       -3.219161   -5.641907   -5.596311
     62          1           0       -2.709514   -3.932468   -5.628054
     63          1           0       -4.345476   -5.420584    1.135450
     64          1           0       -5.919870   -4.083596    3.280615
     65          1           0       -6.307752   -6.536022    1.032211
     66          1           0       -7.054162   -5.031795    0.392753
     67          1           0       -7.101598   -5.347220    2.049627
     68          1           0       -4.019102   -5.686013    3.713804
     69          1           0       -3.975365   -4.208443    4.669167
     70          1           0       -2.388599   -5.116535    2.387889
     71          1           0       -1.796639   -4.357747    3.904634
     72          1           0       -2.519723   -3.372912    2.554834
     73          1           0       -4.385667    1.443386    5.906423
     74          1           0       -4.942156   -0.258799    5.727676
     75          1           0       -6.119938    1.089700    5.444936
     76          1           0       -5.675003    4.467587    1.628998
     77          1           0       -3.398975    8.132026    1.523725
     78          1           0       -3.041005    7.403087   -0.155631
     79          1           0       -2.116746    7.064094    1.319685
     80         12           0        4.556031   -0.876191    0.295368
     81          6           0        4.479540    2.640872   -0.414223
     82          6           0        3.825042   -1.403957   -2.994269
     83          6           0        4.171850   -3.951195    0.976651
     84          6           0        4.144826   -0.065153    3.659720
     85          7           0        4.219996    0.518717   -1.387954
     86          6           0        4.277447    1.831812   -1.551767
     87          6           0        4.188933    2.300158   -3.029051
     88          6           0        3.423597    1.027161   -3.639466
     89          6           0        3.874076   -0.032933   -2.636491
     90          6           0        1.910134    1.142316   -3.565312
     91          6           0        5.603146    2.487804   -3.682364
     92          6           0        5.600734    3.236112   -5.017201
     93          1           0        6.722884    4.119500   -5.321935
     94          7           0        4.555421   -2.464800   -0.894122
     95          6           0        4.255890   -2.496219   -2.209634
     96          6           0        4.382784   -3.903920   -2.617630
     97          6           0        4.620985   -4.725587   -1.399908
     98          6           0        4.433853   -3.726498   -0.367008
     99          6           0        4.355719   -4.340524   -4.053620
    100          6           0        4.948737   -6.174021   -1.197867
    101          8           0        4.877932   -6.725680   -0.043096
    102          6           0        5.264427   -6.949507   -2.406350
    103          7           0        3.997668   -1.876968    2.030011
    104          6           0        3.959584   -3.220386    2.071269
    105          6           0        3.801960   -3.718372    3.488147
    106          6           0        3.985702   -2.430971    4.418956
    107          6           0        4.135637   -1.348738    3.327303
    108          6           0        2.469460   -4.393849    3.811502
    109          6           0        5.067610   -2.514673    5.530331
    110          6           0        6.443775   -2.574626    4.907454
    111          7           0        4.532093    0.939681    1.465879
    112          6           0        4.318906    1.055017    2.857043
    113          6           0        4.278060    2.497538    3.173119
    114          6           0        4.448666    3.126466    1.930609
    115          6           0        4.565937    2.145312    0.909293
    116          6           0        4.054545    3.060950    4.461032
    117          6           0        4.545593    4.397363    1.249328
    118          8           0        4.601783    5.573016    1.607671
    119          6           0        4.443249    4.140751   -0.315941
    120          6           0        5.545756    4.913698   -0.986413
    121          8           0        6.737037    4.618092   -0.786241
    122          8           0        5.011589    5.727085   -1.915622
    123          6           0        6.066867    6.506876   -2.615726
    124          1           0        3.375415   -1.675006   -3.949915
    125          1           0        4.140488   -4.999653    1.282006
    126          1           0        4.118336    0.268885    4.699138
    127          1           0        3.602526    3.197386   -3.186786
    128          1           0        3.786709    0.788265   -4.635677
    129          1           0        1.599193    2.011713   -3.005310
    130          1           0        1.569740    0.237457   -3.079094
    131          1           0        1.480933    1.123713   -4.571181
    132          1           0        5.976216    1.510734   -4.015390
    133          1           0        6.277335    2.968026   -3.000102
    134          1           0        4.648070    3.747449   -5.201362
    135          1           0        5.672724    2.504263   -5.825430
    136          1           0        4.001053   -3.537590   -4.711568
    137          1           0        3.589096   -5.118491   -4.136897
    138          1           0        5.311759   -4.749256   -4.387680
    139          1           0        4.423177   -6.905092   -3.093948
    140          1           0        5.558510   -7.938739   -2.050249
    141          1           0        6.111687   -6.475774   -2.914628
    142          1           0        4.571109   -4.440933    3.731923
    143          1           0        3.065294   -2.193624    4.972430
    144          1           0        2.584863   -5.423851    4.198624
    145          1           0        1.858965   -4.389504    2.918295
    146          1           0        1.841751   -3.860020    4.522971
    147          1           0        4.947628   -3.435036    6.107109
    148          1           0        5.031068   -1.687914    6.231843
    149          1           0        6.558715   -3.635229    4.664568
    150          1           0        7.200436   -2.248183    5.618041
    151          1           0        6.473932   -2.015487    3.965056
    152          1           0        4.763178    3.870642    4.573904
    153          1           0        4.171464    2.316919    5.246217
    154          1           0        3.015991    3.385467    4.354384
    155          1           0        3.455712    4.472898   -0.638481
    156          1           0        5.806014    7.564417   -2.509682
    157          1           0        6.107890    6.098740   -3.643092
    158          1           0        7.064698    6.491766   -2.193179
 ---------------------------------------------------------------------

 SCF Done:  E(RCAM-B3LYP) =  -4069.81142947     A.U. after   19 cycles

 Excitation energies and oscillator strengths:

 Excited State   1:      Singlet-A      1.6501 eV  751.37 nm  f=0.0459  <S**2>=0.000
     309 -> 315       -0.11540
     310 -> 316        0.12115
     311 -> 313       -0.47261
     312 -> 314        0.49917
 This state for optimization and/or second-order correction.
 Total Energy, E(TD-HF/TD-DFT) =  -4069.75078925
 Copying the excited state density for this state as the 1-particle RhoCI density.

 Excited State   2:      Singlet-A      1.7006 eV  729.05 nm  f=0.6403  <S**2>=0.000
     309 -> 315        0.13120
     310 -> 316        0.12403
     311 -> 313        0.49684
     312 -> 314        0.47057

 Excited State   3:      Singlet-A      2.1824 eV  568.12 nm  f=0.0215  <S**2>=0.000
     309 -> 313       -0.35768
     310 -> 314        0.53589
     311 -> 315        0.14906
     312 -> 316       -0.22495

 Excited State   4:      Singlet-A      2.1941 eV  565.08 nm  f=0.1589  <S**2>=0.000
     309 -> 313        0.53205
     310 -> 314        0.35376
     311 -> 315       -0.23349
     312 -> 316       -0.15649

 Excited State   5:      Singlet-A      2.3489 eV  527.84 nm  f=0.0000  <S**2>=0.000
     312 -> 313        0.70708

 The electronic state is 1-A.
 Alpha  occ. eigenvalues --  -46.87891 -46.87443 -19.26239 -19.26215 -19.19002
 Alpha  occ. eigenvalues --  -19.18993 -19.18947 -19.18508 -19.18230 -19.17790
 Alpha  occ. eigenvalues --  -14.42547 -14.42293 -14.41540 -14.41146 -14.39505
 Alpha  occ. eigenvalues --  -14.39135 -14.38678 -14.38362 -10.39061 -10.38923
 Alpha  occ. eigenvalues --  -10.35586 -10.35189 -10.34446 -10.33968 -10.31668
 Alpha  occ. eigenvalues --  -10.31574 -10.31495 -10.31099 -10.31007 -10.30840
 Alpha  occ. eigenvalues --  -10.30664 -10.30600 -10.30309 -10.30158 -10.30122
 Alpha  occ. eigenvalues --  -10.30000 -10.29944 -10.29734 -10.29665 -10.29363
 Alpha  occ. eigenvalues --  -10.29219 -10.29161 -10.28838 -10.28618 -10.28607
 Alpha  occ. eigenvalues --  -10.28588 -10.28460 -10.28210 -10.28181 -10.28016
 Alpha  occ. eigenvalues --  -10.27892 -10.27829 -10.27757 -10.27696 -10.27653
 Alpha  occ. eigenvalues --  -10.27581 -10.27516 -10.27489 -10.27474 -10.27339
 Alpha  occ. eigenvalues --  -10.27303 -10.27268 -10.27236 -10.27205 -10.27199
 Alpha  occ. eigenvalues --  -10.26810 -10.26809 -10.26610 -10.26595 -10.26316
 Alpha  occ. eigenvalues --  -10.26263 -10.26238 -10.26117 -10.25978 -10.25935
 Alpha  occ. eigenvalues --  -10.25932 -10.25711 -10.25494 -10.25468 -10.25262
 Alpha  occ. eigenvalues --  -10.24925 -10.24875 -10.24767 -10.24614 -10.24578
 Alpha  occ. eigenvalues --  -10.24473  -3.16634  -3.16193  -1.91516  -1.91102
 Alpha  occ. eigenvalues --   -1.91075  -1.90944  -1.90664  -1.90500  -1.16593
 Alpha  occ. eigenvalues --   -1.16503  -1.08679  -1.08397  -1.07349  -1.06785
 Alpha  occ. eigenvalues --   -1.06762  -1.06616  -1.04676  -1.04290  -1.03853
 Alpha  occ. eigenvalues --   -1.03448  -1.03330  -1.02816  -1.02505  -1.01886
 Alpha  occ. eigenvalues --   -0.92049  -0.91761  -0.89603  -0.89293  -0.89280
 Alpha  occ. eigenvalues --   -0.89013  -0.88367  -0.88034  -0.87965  -0.87770
 Alpha  occ. eigenvalues --   -0.87528  -0.87471  -0.87408  -0.86913  -0.85075
 Alpha  occ. eigenvalues --   -0.84844  -0.84008  -0.83696  -0.83108  -0.82745
 Alpha  occ. eigenvalues --   -0.82733  -0.82491  -0.81618  -0.81412  -0.80666
 Alpha  occ. eigenvalues --   -0.80250  -0.78916  -0.78412  -0.77311  -0.76996
 Alpha  occ. eigenvalues --   -0.76967  -0.76740  -0.75985  -0.75667  -0.74966
 Alpha  occ. eigenvalues --   -0.74629  -0.72868  -0.72470  -0.71751  -0.71396
 Alpha  occ. eigenvalues --   -0.69985  -0.69586  -0.68967  -0.68663  -0.67731
 Alpha  occ. eigenvalues --   -0.67396  -0.67327  -0.67045  -0.65370  -0.65109
 Alpha  occ. eigenvalues --   -0.64924  -0.64687  -0.64570  -0.64478  -0.64349
 Alpha  occ. eigenvalues --   -0.64015  -0.62310  -0.62106  -0.60558  -0.60135
 Alpha  occ. eigenvalues --   -0.59898  -0.59625  -0.59069  -0.58786  -0.58583
 Alpha  occ. eigenvalues --   -0.58221  -0.57630  -0.57382  -0.57332  -0.57031
 Alpha  occ. eigenvalues --   -0.56408  -0.55991  -0.55986  -0.55731  -0.55622
 Alpha  occ. eigenvalues --   -0.55392  -0.55259  -0.55063  -0.54557  -0.54321
 Alpha  occ. eigenvalues --   -0.53985  -0.53773  -0.53405  -0.53318  -0.53022
 Alpha  occ. eigenvalues --   -0.52976  -0.52965  -0.52875  -0.52732  -0.52513
 Alpha  occ. eigenvalues --   -0.52494  -0.52228  -0.52001  -0.51715  -0.51560
 Alpha  occ. eigenvalues --   -0.51496  -0.51265  -0.50994  -0.50735  -0.50299
 Alpha  occ. eigenvalues --   -0.50124  -0.50040  -0.49816  -0.49688  -0.49615
 Alpha  occ. eigenvalues --   -0.49307  -0.49301  -0.49178  -0.49017  -0.48910
 Alpha  occ. eigenvalues --   -0.48651  -0.48572  -0.48511  -0.48370  -0.48189
 Alpha  occ. eigenvalues --   -0.48143  -0.47786  -0.47423  -0.47387  -0.46936
 Alpha  occ. eigenvalues --   -0.46883  -0.46644  -0.46523  -0.46445  -0.46406
 Alpha  occ. eigenvalues --   -0.46225  -0.46067  -0.45873  -0.45868  -0.45605
 Alpha  occ. eigenvalues --   -0.45279  -0.45029  -0.44653  -0.44612  -0.44353
 Alpha  occ. eigenvalues --   -0.44276  -0.44236  -0.44183  -0.44093  -0.43947
 Alpha  occ. eigenvalues --   -0.43891  -0.43739  -0.43532  -0.43474  -0.43385
 Alpha  occ. eigenvalues --   -0.43208  -0.43105  -0.42765  -0.42757  -0.42694
 Alpha  occ. eigenvalues --   -0.42646  -0.42368  -0.42085  -0.41796  -0.41782
 Alpha  occ. eigenvalues --   -0.41622  -0.41457  -0.41303  -0.41224  -0.40971
 Alpha  occ. eigenvalues --   -0.40940  -0.40813  -0.40648  -0.40563  -0.40538
 Alpha  occ. eigenvalues --   -0.40337  -0.40316  -0.40101  -0.39518  -0.39252
 Alpha  occ. eigenvalues --   -0.38548  -0.38182  -0.37835  -0.37527  -0.37405
 Alpha  occ. eigenvalues --   -0.37354  -0.37077  -0.37017  -0.36726  -0.36617
 Alpha  occ. eigenvalues --   -0.36233  -0.36040  -0.34376  -0.34038  -0.33768
 Alpha  occ. eigenvalues --   -0.33689  -0.33269  -0.32957  -0.31474  -0.31124
 Alpha  occ. eigenvalues --   -0.31070  -0.30762  -0.30085  -0.29697  -0.29560
 Alpha  occ. eigenvalues --   -0.29415  -0.29099  -0.28945  -0.24171  -0.23814
 Alpha  occ. eigenvalues --   -0.21225  -0.20897
 Alpha virt. eigenvalues --   -0.08875  -0.08562  -0.01847  -0.01472  -0.00172
 Alpha virt. eigenvalues --    0.00182   0.02119   0.02455   0.02852   0.03489
 Alpha virt. eigenvalues --    0.04629   0.04914   0.05103   0.05338   0.06106

 Mulliken charges:
               1
     1  Mg   0.838645
     2  C   -0.002785
     3  C   -0.094955
     4  C   -0.045488
     5  C   -0.064159
     6  N   -0.256708
     7  C   -0.052505
     8  C   -0.013803
     9  C   -0.086841
    10  C    0.046069
    11  C    0.104815
    12  C    0.053617
    13  C   -0.072241
    14  H    0.037517
    15  N   -0.433063
    16  C    0.168069
    17  C   -0.178049
    18  C   -0.004414
    19  C    0.148783
    20  C    0.110339
    21  C    0.011962
    22  O   -0.248994
    23  C    0.062948
    24  N   -0.341199
    25  C    0.041186
    26  C   -0.028341
    27  C   -0.024040
    28  C    0.075188
    29  C    0.076052
    30  C    0.034988
    31  C   -0.005729
    32  N   -0.310595
    33  C    0.080798
    34  C   -0.169871
    35  C    0.008605
    36  C    0.083254
    37  C    0.127321
    38  C    0.046332
    39  O   -0.187460
    40  C   -0.005321
    41  C    0.212935
    42  O   -0.256473
    43  O   -0.305213
    44  C    0.156681
    45  H   -0.017797
    46  H   -0.016571
    47  H   -0.041486
    48  H    0.001500
    49  H   -0.004583
    50  H    0.025760
    51  H    0.016459
    52  H    0.016674
    53  H    0.009449
    54  H    0.044625
    55  H    0.018404
    56  H    0.016906
    57  H    0.005769
    58  H    0.027082
    59  H    0.037340
    60  H    0.037696
    61  H    0.035393
    62  H    0.029189
    63  H    0.017196
    64  H    0.009658
    65  H    0.023565
    66  H    0.012472
    67  H    0.004846
    68  H    0.006978
    69  H    0.004182
    70  H    0.010677
    71  H    0.017568
    72  H    0.029108
    73  H    0.047618
    74  H    0.008901
    75  H    0.046420
    76  H    0.035299
    77  H    0.043532
    78  H    0.045978
    79  H    0.056327
    80  Mg   0.837903
    81  C   -0.016067
    82  C   -0.088052
    83  C   -0.045134
    84  C   -0.063570
    85  N   -0.254379
    86  C   -0.049300
    87  C   -0.014993
    88  C   -0.090723
    89  C    0.045694
    90  C    0.114312
    91  C    0.062705
    92  C   -0.077314
    93  H    0.034414
    94  N   -0.423400
    95  C    0.162591
    96  C   -0.174848
    97  C   -0.007776
    98  C    0.151657
    99  C    0.099446
   100  C    0.015661
   101  O   -0.253681
   102  C    0.061239
   103  N   -0.349785
   104  C    0.037032
   105  C   -0.019846
   106  C   -0.035164
   107  C    0.089090
   108  C    0.073106
   109  C    0.034719
   110  C   -0.007505
   111  N   -0.324727
   112  C    0.079048
   113  C   -0.160526
   114  C    0.004114
   115  C    0.096335
   116  C    0.130149
   117  C    0.044885
   118  O   -0.187533
   119  C    0.000003
   120  C    0.210807
   121  O   -0.251380
   122  O   -0.305708
   123  C    0.152255
   124  H   -0.021561
   125  H   -0.016003
   126  H   -0.039809
   127  H   -0.001124
   128  H   -0.005612
   129  H    0.024311
   130  H    0.014906
   131  H    0.012855
   132  H    0.013849
   133  H    0.037817
   134  H    0.019840
   135  H    0.018956
   136  H    0.007225
   137  H    0.026085
   138  H    0.039032
   139  H    0.038524
   140  H    0.035910
   141  H    0.033301
   142  H    0.013963
   143  H    0.012788
   144  H    0.024057
   145  H    0.013179
   146  H    0.004742
   147  H    0.005545
   148  H    0.003950
   149  H    0.010608
   150  H    0.017657
   151  H    0.030316
   152  H    0.045050
   153  H    0.007605
   154  H    0.053539
   155  H    0.037228
   156  H    0.043250
   157  H    0.048801
   158  H    0.053478
 Sum of Mulliken charges =  -0.00000

 Dipole moment (field-independent basis, Debye):
    X=             -3.8033    Y=             -1.8708    Z=             -7.2015  Tot=              8.3562
 Quadrupole moment (field-independent basis, Debye-Ang):
   XX=           -518.9607   YY=           -544.3069   ZZ=           -454.9301
   XY=            -11.8743   XZ=             -1.0201   YZ=            -41.7534

 Normal termination of Gaussian 16 at Fri Sep  3 23:09:55 2021.
