 Gaussian 16, Revision A.03,
 Gaussian 16:  ES64L-G16RevA.03 25-Dec-2016

 -----------------------------------
 #p cam-b3lyp/Def2SVP td=(nstates=5)
 -----------------------------------

 --------------------------------
 TDDFT excited states in gaussian
 --------------------------------
 Symbolic Z-matrix:
 Charge =  0 Multiplicity = 1

                         Standard orientation:
 ---------------------------------------------------------------------
 Center     Atomic      Atomic             Coordinates (Angstroms)
 Number     Number       Type             X           Y           Z
 ---------------------------------------------------------------------
      1         12           0        6.860654    0.401124    0.753241
      2          6           0        7.186483   -2.603232   -1.165065
      3          6           0        7.998552    2.094308   -1.981971
      4          6           0        7.014190    3.001470    2.561899
      5          6           0        6.848830   -1.598041    3.607862
      6          7           0        7.479223   -0.279332   -1.260462
      7          6           0        7.500326   -1.450652   -1.888741
      8          6           0        7.814345   -1.330180   -3.410008
      9          6           0        8.588761    0.063421   -3.397597
     10          6           0        7.960474    0.679423   -2.159969
     11          6           0       10.090305   -0.075979   -3.168607
     12          6           0        6.515375   -1.256016   -4.281161
     13          6           0        6.723615   -1.465290   -5.783890
     14          1           0        5.699147   -2.167823   -6.541690
     15          7           0        6.951021    2.309070    0.248837
     16          6           0        7.428891    2.818056   -0.912137
     17          6           0        7.280281    4.285449   -0.805579
     18          6           0        6.853328    4.599679    0.586206
     19          6           0        6.949013    3.301426    1.203266
     20          6           0        7.487551    5.219326   -1.958255
     21          6           0        6.436853    5.870545    1.256714
     22          8           0        6.329453    5.965752    2.527137
     23          6           0        6.241024    7.041042    0.382283
     24          7           0        7.143439    0.691937    2.800946
     25          6           0        7.109418    1.917741    3.335015
     26          6           0        7.051504    1.859370    4.832739
     27          6           0        6.806868    0.326272    5.206259
     28          6           0        6.850928   -0.274174    3.779447
     29          6           0        8.295597    2.372278    5.571096
     30          6           0        5.584486    0.007455    6.103229
     31          6           0        4.305586    0.294018    5.348648
     32          7           0        6.814176   -1.727542    1.174748
     33          6           0        6.838037   -2.337791    2.437167
     34          6           0        6.901240   -3.793615    2.212114
     35          6           0        6.926650   -3.929304    0.825467
     36          6           0        6.908635   -2.639001    0.222902
     37          6           0        6.986066   -4.790379    3.223895
     38          6           0        6.989694   -4.863374   -0.286915
     39          8           0        6.932017   -6.089198   -0.394252
     40          6           0        7.283400   -4.039055   -1.617352
     41          6           0        6.316119   -4.512130   -2.668007
     42          8           0        5.092454   -4.294556   -2.555446
     43          8           0        6.998897   -4.931276   -3.744424
     44          6           0        6.097269   -5.386694   -4.836127
     45          1           0        8.564856    2.700526   -2.691717
     46          1           0        6.957437    3.868622    3.223159
     47          1           0        6.762865   -2.287410    4.449784
     48          1           0        8.462950   -2.113014   -3.803589
     49          1           0        8.359844    0.664042   -4.277695
     50          1           0       10.362203   -1.102374   -2.922626
     51          1           0       10.320700    0.588871   -2.335909
     52          1           0       10.649598    0.307940   -4.022173
     53          1           0        6.144053   -0.231245   -4.286256
     54          1           0        5.767200   -1.962040   -3.919099
     55          1           0        7.708627   -1.882274   -5.995513
     56          1           0        6.733733   -0.488030   -6.266653
     57          1           0        7.955439    4.715246   -2.802961
     58          1           0        8.223414    5.958038   -1.641208
     59          1           0        6.565159    5.721326   -2.250695
     60          1           0        7.169440    7.253169   -0.148372
     61          1           0        5.858948    7.834722    1.023329
     62          1           0        5.502075    6.792575   -0.380060
     63          1           0        6.225013    2.456598    5.215699
     64          1           0        7.651559   -0.103142    5.745494
     65          1           0        8.085275    3.175371    6.277857
     66          1           0        9.023775    2.688794    4.824862
     67          1           0        8.855252    1.607784    6.109382
     68          1           0        5.585605    0.645359    6.986419
     69          1           0        5.557859   -1.028230    6.442198
     70          1           0        4.170717    1.364958    5.496061
     71          1           0        3.475727   -0.266978    5.779727
     72          1           0        4.428371    0.125299    4.278628
     73          1           0        6.299079   -5.583531    2.929058
     74          1           0        6.726931   -4.385079    4.201742
     75          1           0        8.038657   -5.063402    3.150639
     76          1           0        8.317852   -4.244078   -1.891209
     77          1           0        6.385515   -6.407961   -5.085451
     78          1           0        6.161224   -4.636189   -5.624198
     79          1           0        5.049533   -5.528084   -4.568548
     80         12           0       -6.323958    0.593291   -0.373663
     81          6           0       -8.971385   -1.689241    0.438867
     82          6           0       -8.732477    2.818873   -1.311964
     83          6           0       -4.020814    2.451719   -1.517886
     84          6           0       -4.174854   -2.148790   -0.463156
     85          7           0       -8.532064    0.465506   -0.387641
     86          6           0       -9.428433   -0.428500    0.001744
     87          6           0      -10.893578    0.084174   -0.006150
     88          6           0      -10.732195    1.256748   -1.091458
     89          6           0       -9.248348    1.564011   -0.900516
     90          6           0      -10.942485    0.786600   -2.521174
     91          6           0      -11.336500    0.649654    1.388867
     92          6           0      -12.841542    0.881186    1.540495
     93          1           0      -13.455338    0.638508    2.843120
     94          7           0       -6.336389    2.527270   -0.818814
     95          6           0       -7.406321    3.278102   -1.154662
     96          6           0       -6.885435    4.630545   -1.407144
     97          6           0       -5.399135    4.578364   -1.353419
     98          6           0       -5.189259    3.148493   -1.246227
     99          6           0       -7.776431    5.825055   -1.587901
    100          6           0       -4.341265    5.638799   -1.404597
    101          8           0       -3.105330    5.348967   -1.581467
    102          6           0       -4.805677    7.031995   -1.335095
    103          7           0       -4.426202    0.188999   -1.120276
    104          6           0       -3.607079    1.184479   -1.502349
    105          6           0       -2.205403    0.676090   -1.741567
    106          6           0       -2.197343   -0.830374   -1.204823
    107          6           0       -3.684953   -0.967306   -0.812824
    108          6           0       -1.727252    0.701445   -3.193159
    109          6           0       -1.118129   -1.195573   -0.149078
    110          6           0       -1.396004   -0.467303    1.146218
    111          7           0       -6.463779   -1.508751    0.105830
    112          6           0       -5.451260   -2.483719   -0.029598
    113          6           0       -6.054459   -3.788212    0.312278
    114          6           0       -7.392556   -3.482386    0.602909
    115          6           0       -7.613054   -2.088797    0.433199
    116          6           0       -5.389555   -5.046357    0.279429
    117          6           0       -8.671263   -4.023151    1.004383
    118          8           0       -9.070664   -5.127147    1.372373
    119          6           0       -9.781361   -2.905287    0.793560
    120          6           0      -10.624228   -2.847157    2.038036
    121          8           0      -10.131906   -2.476061    3.118082
    122          8           0      -11.915115   -3.028614    1.704781
    123          6           0      -12.791918   -2.968378    2.904540
    124          1           0       -9.394403    3.502711   -1.844051
    125          1           0       -3.164032    3.063484   -1.809671
    126          1           0       -3.546661   -3.037481   -0.372171
    127          1           0      -11.625888   -0.638491   -0.345651
    128          1           0      -11.337169    2.121521   -0.831562
    129          1           0      -11.049649   -0.286297   -2.580828
    130          1           0      -10.067283    1.110452   -3.069072
    131          1           0      -11.790423    1.311946   -2.969886
    132          1           0      -10.976734    1.681940    1.487383
    133          1           0      -10.985780    0.020569    2.183762
    134          1           0      -13.416398    0.388397    0.746989
    135          1           0      -13.045073    1.945226    1.397607
    136          1           0       -8.821049    5.527973   -1.742570
    137          1           0       -7.486670    6.300271   -2.531342
    138          1           0       -7.674629    6.552614   -0.779841
    139          1           0       -5.491929    7.225281   -2.156171
    140          1           0       -3.899991    7.640316   -1.295835
    141          1           0       -5.377018    7.164558   -0.409557
    142          1           0       -1.483059    1.253796   -1.178027
    143          1           0       -2.018564   -1.551078   -2.016275
    144          1           0       -0.796625    1.282463   -3.336057
    145          1           0       -2.523047    1.100857   -3.807734
    146          1           0       -1.558205   -0.276410   -3.640839
    147          1           0       -0.132245   -0.865352   -0.485467
    148          1           0       -1.050832   -2.260028    0.049400
    149          1           0       -0.949566    0.517068    0.976559
    150          1           0       -0.921137   -0.977328    1.981928
    151          1           0       -2.472485   -0.320354    1.291988
    152          1           0       -5.682148   -5.576640    1.175913
    153          1           0       -4.309882   -4.924116    0.223395
    154          1           0       -5.804016   -5.461969   -0.642943
    155          1           0      -10.365606   -3.185139   -0.083884
    156          1           0      -13.365064   -3.900371    2.928512
    157          1           0      -13.364936   -2.026969    2.808828
    158          1           0      -12.313332   -2.989353    3.876633
 ---------------------------------------------------------------------

 SCF Done:  E(RCAM-B3LYP) =  -4069.81208901     A.U. after   19 cycles

 Excitation energies and oscillator strengths:

 Excited State   1:      Singlet-A      1.6642 eV  745.00 nm  f=0.0106  <S**2>=0.000
     309 -> 315       -0.10777
     310 -> 316        0.13299
     311 -> 313       -0.43065
     312 -> 314        0.53484
 This state for optimization and/or second-order correction.
 Total Energy, E(TD-HF/TD-DFT) =  -4069.75093042
 Copying the excited state density for this state as the 1-particle RhoCI density.

 Excited State   2:      Singlet-A      1.6896 eV  733.82 nm  f=0.7304  <S**2>=0.000
     309 -> 315        0.13891
     310 -> 316        0.11109
     311 -> 313        0.53364
     312 -> 314        0.42973

 Excited State   3:      Singlet-A      2.1850 eV  567.43 nm  f=0.1040  <S**2>=0.000
     310 -> 314        0.64162
     312 -> 316       -0.27203

 Excited State   4:      Singlet-A      2.1941 eV  565.07 nm  f=0.0979  <S**2>=0.000
     309 -> 313        0.63952
     311 -> 315       -0.27854

 Excited State   5:      Singlet-A      2.6590 eV  466.28 nm  f=0.0000  <S**2>=0.000
     312 -> 313        0.70683

 The electronic state is 1-A.
 Alpha  occ. eigenvalues --  -46.87805 -46.87528 -19.26342 -19.26259 -19.19089
 Alpha  occ. eigenvalues --  -19.19064 -19.18766 -19.18623 -19.18184 -19.17935
 Alpha  occ. eigenvalues --  -14.42457 -14.42372 -14.41450 -14.41213 -14.39402
 Alpha  occ. eigenvalues --  -14.39225 -14.38598 -14.38467 -10.39142 -10.38992
 Alpha  occ. eigenvalues --  -10.35396 -10.35304 -10.34406 -10.34112 -10.31739
 Alpha  occ. eigenvalues --  -10.31676 -10.31419 -10.31181 -10.30913 -10.30912
 Alpha  occ. eigenvalues --  -10.30578 -10.30507 -10.30262 -10.30226 -10.30193
 Alpha  occ. eigenvalues --  -10.29984 -10.29922 -10.29739 -10.29625 -10.29308
 Alpha  occ. eigenvalues --  -10.29272 -10.29245 -10.28770 -10.28622 -10.28579
 Alpha  occ. eigenvalues --  -10.28578 -10.28369 -10.28286 -10.28130 -10.28040
 Alpha  occ. eigenvalues --  -10.27874 -10.27790 -10.27729 -10.27573 -10.27545
 Alpha  occ. eigenvalues --  -10.27481 -10.27440 -10.27430 -10.27412 -10.27376
 Alpha  occ. eigenvalues --  -10.27359 -10.27344 -10.27275 -10.27184 -10.27182
 Alpha  occ. eigenvalues --  -10.26940 -10.26749 -10.26605 -10.26352 -10.26317
 Alpha  occ. eigenvalues --  -10.26241 -10.26157 -10.26016 -10.25935 -10.25843
 Alpha  occ. eigenvalues --  -10.25800 -10.25769 -10.25671 -10.25411 -10.25226
 Alpha  occ. eigenvalues --  -10.24836 -10.24784 -10.24747 -10.24665 -10.24555
 Alpha  occ. eigenvalues --  -10.24461  -3.16549  -3.16278  -1.91431  -1.91161
 Alpha  occ. eigenvalues --   -1.91017  -1.90859  -1.90749  -1.90586  -1.16692
 Alpha  occ. eigenvalues --   -1.16551  -1.08646  -1.08543  -1.07164  -1.06878
 Alpha  occ. eigenvalues --   -1.06849  -1.06708  -1.04588  -1.04372  -1.03761
 Alpha  occ. eigenvalues --   -1.03530  -1.03235  -1.02898  -1.02413  -1.01976
 Alpha  occ. eigenvalues --   -0.91983  -0.91862  -0.89511  -0.89313  -0.89205
 Alpha  occ. eigenvalues --   -0.89043  -0.88276  -0.88028  -0.87872  -0.87677
 Alpha  occ. eigenvalues --   -0.87651  -0.87553  -0.87245  -0.87013  -0.84993
 Alpha  occ. eigenvalues --   -0.84888  -0.83926  -0.83682  -0.82925  -0.82815
 Alpha  occ. eigenvalues --   -0.82647  -0.82538  -0.81609  -0.81477  -0.80601
 Alpha  occ. eigenvalues --   -0.80324  -0.78781  -0.78514  -0.77216  -0.77016
 Alpha  occ. eigenvalues --   -0.76949  -0.76762  -0.75936  -0.75724  -0.74891
 Alpha  occ. eigenvalues --   -0.74643  -0.72773  -0.72558  -0.71674  -0.71449
 Alpha  occ. eigenvalues --   -0.69892  -0.69529  -0.68877  -0.68712  -0.67639
 Alpha  occ. eigenvalues --   -0.67476  -0.67224  -0.67101  -0.65302  -0.65159
 Alpha  occ. eigenvalues --   -0.64864  -0.64632  -0.64628  -0.64526  -0.64263
 Alpha  occ. eigenvalues --   -0.64016  -0.62326  -0.62153  -0.60421  -0.60213
 Alpha  occ. eigenvalues --   -0.59815  -0.59684  -0.58991  -0.58854  -0.58507
 Alpha  occ. eigenvalues --   -0.58289  -0.57610  -0.57438  -0.57304  -0.57088
 Alpha  occ. eigenvalues --   -0.56307  -0.56074  -0.56011  -0.55778  -0.55504
 Alpha  occ. eigenvalues --   -0.55346  -0.55344  -0.55086  -0.54538  -0.54326
 Alpha  occ. eigenvalues --   -0.53912  -0.53808  -0.53289  -0.53216  -0.53098
 Alpha  occ. eigenvalues --   -0.53025  -0.52931  -0.52781  -0.52729  -0.52576
 Alpha  occ. eigenvalues --   -0.52422  -0.52152  -0.51919  -0.51729  -0.51620
 Alpha  occ. eigenvalues --   -0.51559  -0.51204  -0.51058  -0.50522  -0.50373
 Alpha  occ. eigenvalues --   -0.50014  -0.49897  -0.49867  -0.49694  -0.49508
 Alpha  occ. eigenvalues --   -0.49383  -0.49215  -0.49105  -0.49092  -0.48986
 Alpha  occ. eigenvalues --   -0.48608  -0.48456  -0.48445  -0.48419  -0.48241
 Alpha  occ. eigenvalues --   -0.48215  -0.47689  -0.47469  -0.47287  -0.46994
 Alpha  occ. eigenvalues --   -0.46798  -0.46569  -0.46561  -0.46441  -0.46359
 Alpha  occ. eigenvalues --   -0.46168  -0.46127  -0.45938  -0.45839  -0.45691
 Alpha  occ. eigenvalues --   -0.45191  -0.45052  -0.44589  -0.44490  -0.44404
 Alpha  occ. eigenvalues --   -0.44342  -0.44137  -0.44093  -0.44014  -0.44012
 Alpha  occ. eigenvalues --   -0.43917  -0.43836  -0.43513  -0.43424  -0.43389
 Alpha  occ. eigenvalues --   -0.43261  -0.43030  -0.42819  -0.42767  -0.42734
 Alpha  occ. eigenvalues --   -0.42650  -0.42376  -0.42011  -0.41791  -0.41709
 Alpha  occ. eigenvalues --   -0.41543  -0.41538  -0.41326  -0.41143  -0.40874
 Alpha  occ. eigenvalues --   -0.40864  -0.40788  -0.40627  -0.40567  -0.40564
 Alpha  occ. eigenvalues --   -0.40297  -0.40254  -0.40136  -0.39424  -0.39195
 Alpha  occ. eigenvalues --   -0.38463  -0.38175  -0.37770  -0.37548  -0.37315
 Alpha  occ. eigenvalues --   -0.37278  -0.37104  -0.37075  -0.36752  -0.36654
 Alpha  occ. eigenvalues --   -0.36210  -0.36064  -0.34292  -0.34119  -0.33829
 Alpha  occ. eigenvalues --   -0.33759  -0.33192  -0.33042  -0.31299  -0.31181
 Alpha  occ. eigenvalues --   -0.31036  -0.30843  -0.30046  -0.29839  -0.29440
 Alpha  occ. eigenvalues --   -0.29325  -0.29209  -0.29083  -0.24086  -0.23903
 Alpha  occ. eigenvalues --   -0.21128  -0.20983
 Alpha virt. eigenvalues --   -0.08770  -0.08665  -0.01746  -0.01549  -0.00040
 Alpha virt. eigenvalues --    0.00077   0.02195   0.02337   0.03047   0.03359
 Alpha virt. eigenvalues --    0.04706   0.04850   0.05044   0.05266   0.06149

 Mulliken charges:
               1
     1  Mg   0.837537
     2  C   -0.003523
     3  C   -0.094027
     4  C   -0.045609
     5  C   -0.063943
     6  N   -0.256825
     7  C   -0.052846
     8  C   -0.013869
     9  C   -0.086993
    10  C    0.046203
    11  C    0.104765
    12  C    0.053424
    13  C   -0.071769
    14  H    0.035633
    15  N   -0.433305
    16  C    0.168473
    17  C   -0.176785
    18  C   -0.003548
    19  C    0.148758
    20  C    0.110054
    21  C    0.012941
    22  O   -0.249308
    23  C    0.062126
    24  N   -0.341090
    25  C    0.041245
    26  C   -0.028284
    27  C   -0.023940
    28  C    0.074615
    29  C    0.076123
    30  C    0.035087
    31  C   -0.004520
    32  N   -0.310299
    33  C    0.079838
    34  C   -0.170075
    35  C    0.008223
    36  C    0.082277
    37  C    0.127404
    38  C    0.045615
    39  O   -0.188656
    40  C   -0.005108
    41  C    0.213128
    42  O   -0.258384
    43  O   -0.304507
    44  C    0.157776
    45  H   -0.017411
    46  H   -0.016464
    47  H   -0.041385
    48  H    0.000960
    49  H   -0.003907
    50  H    0.025505
    51  H    0.016585
    52  H    0.016783
    53  H    0.011168
    54  H    0.043197
    55  H    0.018121
    56  H    0.018277
    57  H    0.005786
    58  H    0.026934
    59  H    0.040622
    60  H    0.037004
    61  H    0.036140
    62  H    0.032833
    63  H    0.016929
    64  H    0.009537
    65  H    0.023452
    66  H    0.012516
    67  H    0.004821
    68  H    0.006707
    69  H    0.004773
    70  H    0.009379
    71  H    0.018285
    72  H    0.028095
    73  H    0.047257
    74  H    0.009235
    75  H    0.046116
    76  H    0.035318
    77  H    0.043221
    78  H    0.046519
    79  H    0.053044
    80  Mg   0.837646
    81  C   -0.017083
    82  C   -0.088117
    83  C   -0.045506
    84  C   -0.064784
    85  N   -0.254596
    86  C   -0.049860
    87  C   -0.015095
    88  C   -0.090462
    89  C    0.045695
    90  C    0.114473
    91  C    0.062580
    92  C   -0.077746
    93  H    0.034651
    94  N   -0.423388
    95  C    0.162777
    96  C   -0.174990
    97  C   -0.008134
    98  C    0.152061
    99  C    0.099505
   100  C    0.015399
   101  O   -0.253807
   102  C    0.061314
   103  N   -0.350113
   104  C    0.037521
   105  C   -0.019849
   106  C   -0.035680
   107  C    0.088737
   108  C    0.074081
   109  C    0.034914
   110  C   -0.007978
   111  N   -0.324172
   112  C    0.078600
   113  C   -0.162729
   114  C    0.002138
   115  C    0.096352
   116  C    0.131250
   117  C    0.042460
   118  O   -0.187917
   119  C    0.000923
   120  C    0.211208
   121  O   -0.251043
   122  O   -0.305665
   123  C    0.152097
   124  H   -0.020144
   125  H   -0.016067
   126  H   -0.038603
   127  H   -0.000818
   128  H   -0.004598
   129  H    0.022367
   130  H    0.014361
   131  H    0.015916
   132  H    0.013896
   133  H    0.037672
   134  H    0.020677
   135  H    0.019442
   136  H    0.008539
   137  H    0.025578
   138  H    0.039454
   139  H    0.037936
   140  H    0.035704
   141  H    0.034017
   142  H    0.014130
   143  H    0.014246
   144  H    0.024108
   145  H    0.010560
   146  H    0.006853
   147  H    0.008550
   148  H    0.006649
   149  H    0.010021
   150  H    0.018474
   151  H    0.028824
   152  H    0.046007
   153  H    0.010158
   154  H    0.046968
   155  H    0.034821
   156  H    0.043778
   157  H    0.049355
   158  H    0.053518
 Sum of Mulliken charges =  -0.00000

 Dipole moment (field-independent basis, Debye):
    X=              0.6360    Y=              6.5840    Z=             -4.5706  Tot=              8.0401
 Quadrupole moment (field-independent basis, Debye-Ang):
   XX=           -434.4449   YY=           -544.6351   ZZ=           -481.7299
   XY=            -29.4094   XZ=              0.5339   YZ=             -8.5526

 Normal termination of Gaussian 16 at Sat Sep 11 03:21:39 2021.
