 Gaussian 16, Revision A.03,
 Gaussian 16:  ES64L-G16RevA.03 25-Dec-2016

 -----------------------------------
 #p cam-b3lyp/Def2SVP td=(nstates=5)
 -----------------------------------

 --------------------------------
 TDDFT excited states in gaussian
 --------------------------------
 Symbolic Z-matrix:
 Charge =  0 Multiplicity = 1

                         Standard orientation:
 ---------------------------------------------------------------------
 Center     Atomic      Atomic             Coordinates (Angstroms)
 Number     Number       Type             X           Y           Z
 ---------------------------------------------------------------------
      1         12           0       -5.223276   -0.683932    0.044401
      2          6           0       -5.366938    2.849991    0.594820
      3          6           0       -6.066564   -0.062224   -3.202969
      4          6           0       -5.547362   -3.812942   -0.356707
      5          6           0       -5.513958   -1.084131    3.494184
      6          7           0       -5.636201    1.197755   -1.046192
      7          6           0       -5.599073    2.489487   -0.734389
      8          6           0       -5.755218    3.427659   -1.968417
      9          6           0       -6.519527    2.429158   -2.948633
     10          6           0       -6.017897    1.109137   -2.390210
     11          6           0       -8.037327    2.477854   -2.805755
     12          6           0       -4.373589    3.866116   -2.560522
     13          6           0       -4.428134    5.031293   -3.552863
     14          1           0       -3.335229    5.991886   -3.565770
     15          7           0       -5.251579   -1.767761   -1.607072
     16          6           0       -5.605525   -1.347716   -2.845446
     17          6           0       -5.460905   -2.522912   -3.731267
     18          6           0       -5.176898   -3.706946   -2.873656
     19          6           0       -5.341997   -3.140805   -1.559272
     20          6           0       -5.544296   -2.442814   -5.224713
     21          6           0       -4.824531   -5.126323   -3.188837
     22          8           0       -4.847133   -6.045988   -2.300987
     23          6           0       -4.534162   -5.433032   -4.601160
     24          7           0       -5.712485   -2.239514    1.347656
     25          6           0       -5.726842   -3.510316    0.930713
     26          6           0       -5.822723   -4.462794    2.085499
     27          6           0       -5.625611   -3.581884    3.402654
     28          6           0       -5.526655   -2.185629    2.740122
     29          6           0       -7.133103   -5.254897    2.192673
     30          6           0       -4.503068   -4.016719    4.377966
     31          6           0       -3.152213   -3.812714    3.729375
     32          7           0       -5.231310    0.622351    1.777780
     33          6           0       -5.387361    0.242869    3.118793
     34          6           0       -5.434845    1.482458    3.915806
     35          6           0       -5.319008    2.504074    2.975207
     36          6           0       -5.232696    1.939248    1.670671
     37          6           0       -5.627932    1.561390    5.323258
     38          6           0       -5.272845    3.942192    2.766538
     39          8           0       -5.210918    4.924390    3.507446
     40          6           0       -5.424611    4.227373    1.207222
     41          6           0       -4.357437    5.214434    0.819719
     42          8           0       -3.150577    4.898941    0.856061
     43          8           0       -4.928727    6.284237    0.245531
     44          6           0       -3.922569    7.289531   -0.189421
     45          1           0       -6.554122   -0.008024   -4.178310
     46          1           0       -5.553994   -4.901825   -0.438729
     47          1           0       -5.518168   -1.133019    4.584618
     48          1           0       -6.364261    4.314260   -1.791130
     49          1           0       -6.198650    2.549356   -3.983192
     50          1           0       -8.338334    3.098289   -1.961730
     51          1           0       -8.348193    1.444787   -2.648825
     52          1           0       -8.504365    2.792785   -3.739281
     53          1           0       -3.998326    3.080911   -3.216794
     54          1           0       -3.670079    4.105083   -1.762214
     55          1           0       -5.388508    5.545911   -3.510931
     56          1           0       -4.383701    4.622509   -4.562378
     57          1           0       -5.925971   -1.476943   -5.553289
     58          1           0       -6.304846   -3.156909   -5.539897
     59          1           0       -4.594213   -2.682889   -5.702247
     60          1           0       -5.402310   -5.180152   -5.210192
     61          1           0       -4.215499   -6.474576   -4.623315
     62          1           0       -3.722429   -4.789952   -4.942463
     63          1           0       -5.036616   -5.215265    2.038072
     64          1           0       -6.523263   -3.564480    4.021194
     65          1           0       -6.991965   -6.335980    2.199307
     66          1           0       -7.779471   -4.949939    1.370177
     67          1           0       -7.748877   -5.005104    3.056295
     68          1           0       -4.591168   -5.077849    4.608592
     69          1           0       -4.516678   -3.470123    5.320992
     70          1           0       -3.027518   -4.718240    3.136664
     71          1           0       -2.373747   -3.732947    4.488875
     72          1           0       -3.165797   -2.969979    3.037928
     73          1           0       -4.918559    2.304534    5.687259
     74          1           0       -5.468048    0.594423    5.799718
     75          1           0       -6.668927    1.881239    5.366641
     76          1           0       -6.426689    4.628220    1.057942
     77          1           0       -4.189153    8.235355    0.282368
     78          1           0       -3.901653    7.255703   -1.278836
     79          1           0       -2.908451    7.150504    0.186843
     80         12           0        5.365704   -0.868909    0.105713
     81          6           0        5.223696    2.714675   -0.023961
     82          6           0        4.509790   -0.873273   -3.196104
     83          6           0        5.041616   -4.019488    0.296083
     84          6           0        5.080366   -0.616304    3.569878
     85          7           0        4.948049    0.772567   -1.316738
     86          6           0        4.985001    2.095702   -1.268677
     87          6           0        4.832703    2.793868   -2.646689
     88          6           0        4.057184    1.622806   -3.425176
     89          6           0        4.558502    0.423026   -2.623993
     90          6           0        2.546741    1.698966   -3.276516
     91          6           0        6.217680    3.107946   -3.313941
     92          6           0        6.154118    4.060947   -4.509559
     93          1           0        7.253795    5.000652   -4.709845
     94          7           0        5.334514   -2.245438   -1.323550
     95          6           0        4.983138   -2.070039   -2.614693
     96          6           0        5.108582   -3.391491   -3.248867
     97          6           0        5.403844   -4.394081   -2.189454
     98          6           0        5.247441   -3.577328   -1.002631
     99          6           0        5.028919   -3.591985   -4.734423
    100          6           0        5.754715   -5.850412   -2.236146
    101          8           0        5.735870   -6.581646   -1.183641
    102          6           0        6.030198   -6.416111   -3.564904
    103          7           0        4.887586   -2.144803    1.676000
    104          6           0        4.865428   -3.477833    1.501443
    105          6           0        4.769697   -4.199694    2.824378
    106          6           0        4.976742   -3.075738    3.943050
    107          6           0        5.071553   -1.829728    3.035378
    108          6           0        3.458386   -4.940777    3.084466
    109          6           0        6.102921   -3.318723    4.984851
    110          6           0        7.453719   -3.254527    4.309119
    111          7           0        5.369191    0.734520    1.553835
    112          6           0        5.210423    0.621110    2.952411
    113          6           0        5.166916    1.993165    3.498305
    114          6           0        5.281179    2.816432    2.367968
    115          6           0        5.368031    2.014336    1.198106
    116          6           0        4.988959    2.338371    4.867719
    117          6           0        5.337378    4.181770    1.897433
    118          8           0        5.395346    5.285314    2.438328
    119          6           0        5.175438    4.178422    0.316238
    120          6           0        6.242089    5.067602   -0.261797
    121          8           0        7.443470    4.763822   -0.156910
    122          8           0        5.662704    6.010641   -1.026889
    123          6           0        6.680901    6.910539   -1.631269
    124          1           0        4.025326   -0.994745   -4.165344
    125          1           0        5.033565   -5.103769    0.429314
    126          1           0        5.091801   -0.454184    4.649813
    127          1           0        4.230987    3.694757   -2.635459
    128          1           0        4.382799    1.553323   -4.459830
    129          1           0        2.249164    2.461668   -2.572325
    130          1           0        2.235608    0.722103   -2.930139
    131          1           0        2.078002    1.835052   -4.255336
    132          1           0        6.587512    2.203558   -3.813997
    133          1           0        6.913398    3.483572   -2.589027
    134          1           0        5.189499    4.579072   -4.572855
    135          1           0        6.201580    3.469859   -5.427370
    136          1           0        4.639811   -2.699832   -5.240433
    137          1           0        4.267885   -4.359279   -4.913175
    138          1           0        5.975156   -3.925501   -5.165780
    139          1           0        5.161778   -6.275959   -4.204174
    140          1           0        6.348719   -7.444611   -3.384337
    141          1           0        6.851445   -5.852592   -4.021638
    142          1           0        5.555570   -4.938951    2.919294
    143          1           0        4.076662   -2.946028    4.561811
    144          1           0        3.600044   -6.017514    3.295780
    145          1           0        2.812750   -4.803215    2.227278
    146          1           0        2.853918   -4.538931    3.895838
    147          1           0        6.015796   -4.321739    5.409744
    148          1           0        6.085615   -2.616220    5.811402
    149          1           0        7.570126   -4.260194    3.894193
    150          1           0        8.234607   -3.033819    5.034070
    151          1           0        7.440345   -2.550741    3.468788
    152          1           0        5.692903    3.131231    5.082952
    153          1           0        5.144971    1.479881    5.517661
    154          1           0        3.943605    2.658216    4.853979
    155          1           0        4.172363    4.541364    0.088894
    156          1           0        6.413286    7.932727   -1.346309
    157          1           0        6.685261    6.673615   -2.711828
    158          1           0        7.694893    6.844556   -1.254547
 ---------------------------------------------------------------------

 SCF Done:  E(RCAM-B3LYP) =  -4069.81138581     A.U. after   19 cycles

 Excitation energies and oscillator strengths:

 Excited State   1:      Singlet-A      1.6571 eV  748.20 nm  f=0.0101  <S**2>=0.000
     309 -> 315       -0.11404
     310 -> 316        0.12495
     311 -> 313       -0.46140
     312 -> 314        0.50915
 This state for optimization and/or second-order correction.
 Total Energy, E(TD-HF/TD-DFT) =  -4069.75048866
 Copying the excited state density for this state as the 1-particle RhoCI density.

 Excited State   2:      Singlet-A      1.6965 eV  730.81 nm  f=0.7085  <S**2>=0.000
     309 -> 315        0.13337
     310 -> 316        0.12018
     311 -> 313        0.50726
     312 -> 314        0.45979

 Excited State   3:      Singlet-A      2.1831 eV  567.93 nm  f=0.0219  <S**2>=0.000
     309 -> 313       -0.28465
     310 -> 314        0.57751
     311 -> 315        0.11898
     312 -> 316       -0.24303

 Excited State   4:      Singlet-A      2.1942 eV  565.05 nm  f=0.1602  <S**2>=0.000
     309 -> 313        0.57407
     310 -> 314        0.28157
     311 -> 315       -0.25152
     312 -> 316       -0.12435

 Excited State   5:      Singlet-A      2.4849 eV  498.95 nm  f=0.0000  <S**2>=0.000
     312 -> 313        0.70709

 The electronic state is 1-A.
 Alpha  occ. eigenvalues --  -46.87875 -46.87489 -19.26307 -19.26192 -19.19048
 Alpha  occ. eigenvalues --  -19.18998 -19.18895 -19.18569 -19.18215 -19.17840
 Alpha  occ. eigenvalues --  -14.42532 -14.42331 -14.41525 -14.41191 -14.39483
 Alpha  occ. eigenvalues --  -14.39184 -14.38660 -14.38419 -10.39111 -10.38922
 Alpha  occ. eigenvalues --  -10.35531 -10.35250 -10.34435 -10.34015 -10.31684
 Alpha  occ. eigenvalues --  -10.31629 -10.31483 -10.31135 -10.30995 -10.30866
 Alpha  occ. eigenvalues --  -10.30645 -10.30579 -10.30288 -10.30218 -10.30180
 Alpha  occ. eigenvalues --  -10.29990 -10.29987 -10.29717 -10.29706 -10.29336
 Alpha  occ. eigenvalues --  -10.29275 -10.29227 -10.28847 -10.28674 -10.28575
 Alpha  occ. eigenvalues --  -10.28571 -10.28441 -10.28229 -10.28210 -10.27994
 Alpha  occ. eigenvalues --  -10.27865 -10.27821 -10.27811 -10.27665 -10.27599
 Alpha  occ. eigenvalues --  -10.27571 -10.27512 -10.27511 -10.27478 -10.27379
 Alpha  occ. eigenvalues --  -10.27364 -10.27309 -10.27299 -10.27231 -10.27208
 Alpha  occ. eigenvalues --  -10.26836 -10.26833 -10.26578 -10.26518 -10.26315
 Alpha  occ. eigenvalues --  -10.26305 -10.26258 -10.26096 -10.26017 -10.25894
 Alpha  occ. eigenvalues --  -10.25860 -10.25768 -10.25615 -10.25488 -10.25259
 Alpha  occ. eigenvalues --  -10.24901 -10.24859 -10.24770 -10.24683 -10.24615
 Alpha  occ. eigenvalues --  -10.24520  -3.16618  -3.16239  -1.91500  -1.91121
 Alpha  occ. eigenvalues --   -1.91086  -1.90928  -1.90710  -1.90547  -1.16657
 Alpha  occ. eigenvalues --   -1.16484  -1.08669  -1.08443  -1.07295  -1.06823
 Alpha  occ. eigenvalues --   -1.06781  -1.06670  -1.04662  -1.04327  -1.03837
 Alpha  occ. eigenvalues --   -1.03494  -1.03309  -1.02868  -1.02486  -1.01938
 Alpha  occ. eigenvalues --   -0.92040  -0.91803  -0.89592  -0.89337  -0.89283
 Alpha  occ. eigenvalues --   -0.89004  -0.88357  -0.88070  -0.87937  -0.87758
 Alpha  occ. eigenvalues --   -0.87598  -0.87524  -0.87365  -0.86976  -0.85074
 Alpha  occ. eigenvalues --   -0.84853  -0.84003  -0.83729  -0.83057  -0.82799
 Alpha  occ. eigenvalues --   -0.82731  -0.82507  -0.81639  -0.81433  -0.80666
 Alpha  occ. eigenvalues --   -0.80282  -0.78881  -0.78475  -0.77301  -0.77010
 Alpha  occ. eigenvalues --   -0.76994  -0.76751  -0.75993  -0.75679  -0.74963
 Alpha  occ. eigenvalues --   -0.74652  -0.72848  -0.72526  -0.71744  -0.71418
 Alpha  occ. eigenvalues --   -0.69980  -0.69620  -0.68961  -0.68679  -0.67715
 Alpha  occ. eigenvalues --   -0.67438  -0.67322  -0.67067  -0.65373  -0.65118
 Alpha  occ. eigenvalues --   -0.64921  -0.64692  -0.64607  -0.64498  -0.64341
 Alpha  occ. eigenvalues --   -0.64051  -0.62343  -0.62118  -0.60525  -0.60188
 Alpha  occ. eigenvalues --   -0.59892  -0.59639  -0.59059  -0.58826  -0.58573
 Alpha  occ. eigenvalues --   -0.58258  -0.57636  -0.57376  -0.57364  -0.57074
 Alpha  occ. eigenvalues --   -0.56384  -0.56038  -0.56029  -0.55736  -0.55598
 Alpha  occ. eigenvalues --   -0.55398  -0.55299  -0.55091  -0.54576  -0.54337
 Alpha  occ. eigenvalues --   -0.53989  -0.53768  -0.53377  -0.53307  -0.53070
 Alpha  occ. eigenvalues --   -0.52990  -0.52978  -0.52850  -0.52750  -0.52536
 Alpha  occ. eigenvalues --   -0.52510  -0.52266  -0.51973  -0.51709  -0.51669
 Alpha  occ. eigenvalues --   -0.51517  -0.51262  -0.51032  -0.50677  -0.50351
 Alpha  occ. eigenvalues --   -0.50110  -0.50006  -0.49835  -0.49722  -0.49600
 Alpha  occ. eigenvalues --   -0.49340  -0.49286  -0.49176  -0.49039  -0.48935
 Alpha  occ. eigenvalues --   -0.48655  -0.48536  -0.48507  -0.48394  -0.48222
 Alpha  occ. eigenvalues --   -0.48187  -0.47775  -0.47449  -0.47372  -0.46974
 Alpha  occ. eigenvalues --   -0.46874  -0.46647  -0.46555  -0.46431  -0.46414
 Alpha  occ. eigenvalues --   -0.46223  -0.46113  -0.45915  -0.45877  -0.45645
 Alpha  occ. eigenvalues --   -0.45270  -0.45056  -0.44639  -0.44596  -0.44356
 Alpha  occ. eigenvalues --   -0.44321  -0.44221  -0.44176  -0.44086  -0.43968
 Alpha  occ. eigenvalues --   -0.43931  -0.43781  -0.43547  -0.43468  -0.43398
 Alpha  occ. eigenvalues --   -0.43228  -0.43097  -0.42772  -0.42756  -0.42729
 Alpha  occ. eigenvalues --   -0.42701  -0.42408  -0.42085  -0.41821  -0.41772
 Alpha  occ. eigenvalues --   -0.41625  -0.41491  -0.41317  -0.41216  -0.40959
 Alpha  occ. eigenvalues --   -0.40914  -0.40830  -0.40643  -0.40587  -0.40561
 Alpha  occ. eigenvalues --   -0.40348  -0.40344  -0.40103  -0.39517  -0.39290
 Alpha  occ. eigenvalues --   -0.38545  -0.38206  -0.37851  -0.37525  -0.37395
 Alpha  occ. eigenvalues --   -0.37353  -0.37113  -0.37045  -0.36756  -0.36615
 Alpha  occ. eigenvalues --   -0.36252  -0.36063  -0.34361  -0.34083  -0.33807
 Alpha  occ. eigenvalues --   -0.33696  -0.33258  -0.33006  -0.31424  -0.31128
 Alpha  occ. eigenvalues --   -0.31110  -0.30804  -0.30073  -0.29743  -0.29528
 Alpha  occ. eigenvalues --   -0.29391  -0.29161  -0.29018  -0.24156  -0.23862
 Alpha  occ. eigenvalues --   -0.21205  -0.20947
 Alpha virt. eigenvalues --   -0.08851  -0.08618  -0.01827  -0.01518  -0.00139
 Alpha virt. eigenvalues --    0.00131   0.02139   0.02402   0.03021   0.03384
 Alpha virt. eigenvalues --    0.04630   0.04885   0.05063   0.05336   0.06074

 Mulliken charges:
               1
     1  Mg   0.838565
     2  C   -0.003010
     3  C   -0.094776
     4  C   -0.045658
     5  C   -0.063926
     6  N   -0.256736
     7  C   -0.052619
     8  C   -0.013859
     9  C   -0.086892
    10  C    0.046082
    11  C    0.104806
    12  C    0.053728
    13  C   -0.071604
    14  H    0.035689
    15  N   -0.433114
    16  C    0.168163
    17  C   -0.177661
    18  C   -0.004112
    19  C    0.148680
    20  C    0.110294
    21  C    0.012344
    22  O   -0.249113
    23  C    0.062640
    24  N   -0.341096
    25  C    0.041159
    26  C   -0.028285
    27  C   -0.023993
    28  C    0.074886
    29  C    0.076094
    30  C    0.035109
    31  C   -0.004490
    32  N   -0.310572
    33  C    0.080558
    34  C   -0.169525
    35  C    0.008677
    36  C    0.083109
    37  C    0.127232
    38  C    0.046483
    39  O   -0.187482
    40  C   -0.005482
    41  C    0.213127
    42  O   -0.256931
    43  O   -0.304929
    44  C    0.157232
    45  H   -0.017769
    46  H   -0.016598
    47  H   -0.041346
    48  H    0.001295
    49  H   -0.004564
    50  H    0.025704
    51  H    0.016573
    52  H    0.016623
    53  H    0.010034
    54  H    0.044106
    55  H    0.018472
    56  H    0.017253
    57  H    0.005613
    58  H    0.027013
    59  H    0.038298
    60  H    0.037355
    61  H    0.035889
    62  H    0.030372
    63  H    0.016816
    64  H    0.009643
    65  H    0.023445
    66  H    0.012560
    67  H    0.004846
    68  H    0.006582
    69  H    0.004664
    70  H    0.009312
    71  H    0.017174
    72  H    0.029134
    73  H    0.048076
    74  H    0.009040
    75  H    0.046248
    76  H    0.035280
    77  H    0.043600
    78  H    0.045768
    79  H    0.054701
    80  Mg   0.838106
    81  C   -0.016332
    82  C   -0.088012
    83  C   -0.045412
    84  C   -0.064532
    85  N   -0.254504
    86  C   -0.049062
    87  C   -0.015129
    88  C   -0.090730
    89  C    0.045953
    90  C    0.114228
    91  C    0.062643
    92  C   -0.077458
    93  H    0.034398
    94  N   -0.423405
    95  C    0.162785
    96  C   -0.175167
    97  C   -0.007938
    98  C    0.151870
    99  C    0.099662
   100  C    0.015436
   101  O   -0.253363
   102  C    0.061326
   103  N   -0.349934
   104  C    0.037374
   105  C   -0.019735
   106  C   -0.034836
   107  C    0.089135
   108  C    0.073784
   109  C    0.034766
   110  C   -0.007587
   111  N   -0.324437
   112  C    0.078953
   113  C   -0.162230
   114  C    0.003348
   115  C    0.096259
   116  C    0.131017
   117  C    0.043747
   118  O   -0.187056
   119  C    0.000299
   120  C    0.210972
   121  O   -0.251486
   122  O   -0.305287
   123  C    0.152205
   124  H   -0.020946
   125  H   -0.015791
   126  H   -0.040401
   127  H   -0.000204
   128  H   -0.005416
   129  H    0.025449
   130  H    0.014387
   131  H    0.014020
   132  H    0.013650
   133  H    0.037704
   134  H    0.020464
   135  H    0.018981
   136  H    0.007838
   137  H    0.025281
   138  H    0.039243
   139  H    0.037900
   140  H    0.036073
   141  H    0.033550
   142  H    0.014052
   143  H    0.012327
   144  H    0.024677
   145  H    0.012381
   146  H    0.004990
   147  H    0.005824
   148  H    0.003620
   149  H    0.010757
   150  H    0.017673
   151  H    0.030275
   152  H    0.045717
   153  H    0.007863
   154  H    0.049785
   155  H    0.037649
   156  H    0.043749
   157  H    0.048916
   158  H    0.053332
 Sum of Mulliken charges =  -0.00000

 Dipole moment (field-independent basis, Debye):
    X=             -4.0944    Y=             -2.0917    Z=             -7.4034  Tot=              8.7149
 Quadrupole moment (field-independent basis, Debye-Ang):
   XX=           -518.3369   YY=           -550.4169   ZZ=           -448.8825
   XY=             -8.6545   XZ=              0.3861   YZ=            -47.3687

 Normal termination of Gaussian 16 at Sat Sep  4 05:34:26 2021.
