 Gaussian 16, Revision A.03,
 Gaussian 16:  ES64L-G16RevA.03 25-Dec-2016

 -----------------------------------
 #p cam-b3lyp/Def2SVP td=(nstates=5)
 -----------------------------------

 --------------------------------
 TDDFT excited states in gaussian
 --------------------------------
 Symbolic Z-matrix:
 Charge =  0 Multiplicity = 1

                         Standard orientation:
 ---------------------------------------------------------------------
 Center     Atomic      Atomic             Coordinates (Angstroms)
 Number     Number       Type             X           Y           Z
 ---------------------------------------------------------------------
      1         12           0       -4.430450   -0.736823   -0.346845
      2          6           0       -4.877948    1.841988    2.094814
      3          6           0       -5.169848    1.593984   -2.726696
      4          6           0       -4.487593   -3.086834   -2.475414
      5          6           0       -4.847084   -3.045330    2.230532
      6          7           0       -4.940065    1.413045   -0.208978
      7          6           0       -5.019462    2.295993    0.781612
      8          6           0       -5.192253    3.763787    0.288563
      9          6           0       -5.829387    3.474734   -1.144094
     10          6           0       -5.251305    2.092721   -1.392658
     11          6           0       -7.351254    3.374431   -1.125085
     12          6           0       -3.823785    4.514792    0.166009
     13          6           0       -3.924454    6.034758    0.008135
     14          1           0       -2.911397    6.872268    0.632347
     15          7           0       -4.297025   -0.684269   -2.317196
     16          6           0       -4.625669    0.353388   -3.123761
     17          6           0       -4.348068   -0.099319   -4.503861
     18          6           0       -4.011209   -1.548978   -4.448120
     19          6           0       -4.280824   -1.841220   -3.063461
     20          6           0       -4.368701    0.815563   -5.689743
     21          6           0       -3.533710   -2.519631   -5.481541
     22          8           0       -3.524447   -3.781572   -5.276615
     23          6           0       -3.155331   -1.953858   -6.789124
     24          7           0       -4.854736   -2.775486   -0.200318
     25          6           0       -4.749476   -3.580377   -1.263358
     26          6           0       -4.822879   -5.024422   -0.864254
     27          6           0       -4.756788   -5.046065    0.731025
     28          6           0       -4.738028   -3.518877    0.987179
     29          6           0       -6.070147   -5.785950   -1.333731
     30          6           0       -3.649491   -5.915984    1.377209
     31          6           0       -2.290552   -5.326225    1.072958
     32          7           0       -4.621398   -0.655075    1.813688
     33          6           0       -4.808545   -1.737767    2.685139
     34          6           0       -4.990414   -1.177800    4.036963
     35          6           0       -4.912457    0.201473    3.854279
     36          6           0       -4.721855    0.486126    2.471913
     37          6           0       -5.253705   -1.923854    5.219552
     38          6           0       -4.970463    1.501906    4.501866
     39          8           0       -5.020469    1.887014    5.670918
     40          6           0       -5.072350    2.619949    3.372518
     41          6           0       -4.069765    3.691979    3.702493
     42          8           0       -2.844714    3.459139    3.653492
     43          8           0       -4.696729    4.875067    3.790591
     44          6           0       -3.754162    5.986776    4.086943
     45          1           0       -5.614755    2.176277   -3.535976
     46          1           0       -4.404424   -3.933378   -3.160165
     47          1           0       -4.897603   -3.707974    3.096445
     48          1           0       -5.876928    4.366236    0.885806
     49          1           0       -5.471731    4.176221   -1.897566
     50          1           0       -7.738848    3.389931   -0.106531
     51          1           0       -7.586451    2.425516   -1.607513
     52          1           0       -7.798244    4.147502   -1.750654
     53          1           0       -3.357875    4.259856   -0.785829
     54          1           0       -3.178837    4.282351    1.014147
     55          1           0       -4.923381    6.395777    0.254547
     56          1           0       -3.801458    6.277389   -1.047423
     57          1           0       -4.809938    1.780552   -5.443470
     58          1           0       -5.055161    0.380346   -6.415737
     59          1           0       -3.381656    0.927954   -6.138567
     60          1           0       -4.011786   -1.432402   -7.217047
     61          1           0       -2.754723   -2.783165   -7.371029
     62          1           0       -2.382077   -1.200209   -6.637329
     63          1           0       -3.978451   -5.584130   -1.264372
     64          1           0       -5.680525   -5.419545    1.173627
     65          1           0       -5.844522   -6.670984   -1.929141
     66          1           0       -6.700038   -5.091365   -1.888779
     67          1           0       -6.742820   -6.097809   -0.535187
     68          1           0       -3.664031   -6.921364    0.957750
     69          1           0       -3.749617   -6.006439    2.458894
     70          1           0       -2.067582   -5.725816    0.084301
     71          1           0       -1.556602   -5.664194    1.805287
     72          1           0       -2.338813   -4.240883    0.982462
     73          1           0       -4.622748   -1.494654    5.997787
     74          1           0       -5.040049   -2.982726    5.075525
     75          1           0       -6.317599   -1.726530    5.350119
     76          1           0       -6.095020    2.995177    3.394254
     77          1           0       -4.116043    6.482950    4.987547
     78          1           0       -3.680520    6.581641    3.176384
     79          1           0       -2.750627    5.697203    4.400638
     80         12           0        4.529090   -0.546009    0.360142
     81          6           0        4.482946    2.038468   -2.129318
     82          6           0        5.541195    1.827509    2.590971
     83          6           0        5.013767   -2.871686    2.463415
     84          6           0        4.634027   -2.860078   -2.243663
     85          7           0        4.924947    1.618915    0.139520
     86          6           0        4.814160    2.503889   -0.839704
     87          6           0        4.994283    3.980364   -0.395700
     88          6           0        5.868476    3.728565    0.927657
     89          6           0        5.395025    2.317042    1.268445
     90          6           0        7.363714    3.679442    0.660879
     91          6           0        3.627905    4.673962   -0.058154
     92          6           0        3.696990    6.196138    0.083088
     93          1           0        2.558914    6.989781   -0.372300
     94          7           0        4.703198   -0.475117    2.335800
     95          6           0        5.106019    0.576173    3.079975
     96          6           0        5.082829    0.113224    4.476143
     97          6           0        4.791855   -1.346234    4.481620
     98          6           0        4.846763   -1.631308    3.061836
     99          6           0        5.244308    1.042165    5.644228
    100          6           0        4.522967   -2.326021    5.583408
    101          8           0        4.530926   -3.590906    5.376451
    102          6           0        4.342504   -1.764787    6.930235
    103          7           0        4.999796   -2.560270    0.151450
    104          6           0        5.102422   -3.361229    1.226559
    105          6           0        5.173588   -4.813773    0.819822
    106          6           0        4.852640   -4.837492   -0.746706
    107          6           0        4.734113   -3.319176   -1.003756
    108          6           0        6.509129   -5.511685    1.076054
    109          6           0        3.692648   -5.758966   -1.213576
    110          6           0        2.374292   -5.232833   -0.693481
    111          7           0        4.369433   -0.472667   -1.793272
    112          6           0        4.466911   -1.556486   -2.693229
    113          6           0        4.409875   -0.995165   -4.058545
    114          6           0        4.305501    0.389339   -3.856719
    115          6           0        4.318344    0.672625   -2.464211
    116          6           0        4.503066   -1.739199   -5.268439
    117          6           0        4.198076    1.676444   -4.505201
    118          8           0        4.054610    2.054414   -5.667221
    119          6           0        4.435525    2.811426   -3.418081
    120          6           0        3.351236    3.841637   -3.577691
    121          8           0        2.164410    3.551244   -3.345875
    122          8           0        3.914709    5.049009   -3.765093
    123          6           0        2.879415    6.105755   -3.917611
    124          1           0        6.077412    2.441460    3.315144
    125          1           0        5.074109   -3.721077    3.147789
    126          1           0        4.562112   -3.523846   -3.107904
    127          1           0        5.545116    4.600368   -1.092795
    128          1           0        5.597038    4.423101    1.718423
    129          1           0        7.585486    3.704229   -0.395698
    130          1           0        7.710314    2.752430    1.098553
    131          1           0        7.870761    4.479241    1.208200
    132          1           0        3.331959    4.403691    0.963666
    133          1           0        2.878936    4.411653   -0.779873
    134          1           0        4.634066    6.604857   -0.314143
    135          1           0        3.725621    6.445009    1.146694
    136          1           0        5.608352    2.027300    5.327401
    137          1           0        6.053458    0.639786    6.263293
    138          1           0        4.339262    1.117450    6.250780
    139          1           0        5.231696   -1.205004    7.210313
    140          1           0        4.071848   -2.610492    7.565378
    141          1           0        3.514778   -1.047360    6.902263
    142          1           0        4.425242   -5.398349    1.340736
    143          1           0        5.713709   -5.189315   -1.333756
    144          1           0        6.416003   -6.412448    1.711678
    145          1           0        7.186693   -4.797736    1.525185
    146          1           0        7.051392   -5.813785    0.181687
    147          1           0        3.813494   -6.761314   -0.795423
    148          1           0        3.632286   -5.864872   -2.291593
    149          1           0        2.332504   -5.633898    0.323613
    150          1           0        1.548766   -5.603126   -1.297993
    151          1           0        2.389786   -4.139468   -0.616295
    152          1           0        3.747723   -1.345090   -5.935258
    153          1           0        4.362799   -2.803669   -5.092395
    154          1           0        5.529032   -1.503663   -5.563714
    155          1           0        5.427222    3.230344   -3.593081
    156          1           0        3.077333    6.612221   -4.867360
    157          1           0        2.939664    6.717932   -2.998174
    158          1           0        1.853601    5.785822   -4.058300
 ---------------------------------------------------------------------

 SCF Done:  E(RCAM-B3LYP) =  -4069.81251375     A.U. after   19 cycles

 Excitation energies and oscillator strengths:

 Excited State   1:      Singlet-A      1.6493 eV  751.75 nm  f=0.0101  <S**2>=0.000
     309 -> 315        0.12389
     310 -> 316        0.11219
     311 -> 313        0.51014
     312 -> 314        0.46113
 This state for optimization and/or second-order correction.
 Total Energy, E(TD-HF/TD-DFT) =  -4069.75190400
 Copying the excited state density for this state as the 1-particle RhoCI density.

 Excited State   2:      Singlet-A      1.7035 eV  727.82 nm  f=0.6945  <S**2>=0.000
     309 -> 315       -0.12131
     310 -> 316        0.13458
     311 -> 313       -0.45886
     312 -> 314        0.50761

 Excited State   3:      Singlet-A      2.1831 eV  567.93 nm  f=0.0162  <S**2>=0.000
     309 -> 313        0.56378
     310 -> 314       -0.31229
     311 -> 315       -0.23606
     312 -> 316        0.12971

 Excited State   4:      Singlet-A      2.1967 eV  564.42 nm  f=0.1599  <S**2>=0.000
     309 -> 313        0.30859
     310 -> 314        0.55946
     311 -> 315       -0.13661
     312 -> 316       -0.24613

 Excited State   5:      Singlet-A      2.4465 eV  506.77 nm  f=0.0000  <S**2>=0.000
     312 -> 313        0.70708

 The electronic state is 1-A.
 Alpha  occ. eigenvalues --  -46.87510 -46.87503 -19.26393 -19.26181 -19.19189
 Alpha  occ. eigenvalues --  -19.18897 -19.18531 -19.18509 -19.17988 -19.17958
 Alpha  occ. eigenvalues --  -14.42341 -14.42167 -14.41213 -14.41177 -14.39187
 Alpha  occ. eigenvalues --  -14.39105 -14.38458 -14.38315 -10.39107 -10.38948
 Alpha  occ. eigenvalues --  -10.35204 -10.35136 -10.34182 -10.34168 -10.31855
 Alpha  occ. eigenvalues --  -10.31632 -10.31176 -10.31141 -10.30866 -10.30618
 Alpha  occ. eigenvalues --  -10.30296 -10.30256 -10.30241 -10.30222 -10.29973
 Alpha  occ. eigenvalues --  -10.29919 -10.29769 -10.29680 -10.29353 -10.29267
 Alpha  occ. eigenvalues --  -10.29253 -10.28953 -10.28586 -10.28561 -10.28487
 Alpha  occ. eigenvalues --  -10.28334 -10.28260 -10.28082 -10.28006 -10.27860
 Alpha  occ. eigenvalues --  -10.27854 -10.27514 -10.27511 -10.27438 -10.27377
 Alpha  occ. eigenvalues --  -10.27347 -10.27305 -10.27285 -10.27272 -10.27252
 Alpha  occ. eigenvalues --  -10.27238 -10.27228 -10.27139 -10.27067 -10.26992
 Alpha  occ. eigenvalues --  -10.26961 -10.26536 -10.26413 -10.26166 -10.26019
 Alpha  occ. eigenvalues --  -10.26007 -10.25987 -10.25971 -10.25916 -10.25782
 Alpha  occ. eigenvalues --  -10.25764 -10.25745 -10.25632 -10.25293 -10.25248
 Alpha  occ. eigenvalues --  -10.24744 -10.24568 -10.24563 -10.24550 -10.24524
 Alpha  occ. eigenvalues --  -10.24468  -3.16252  -3.16251  -1.91134  -1.91133
 Alpha  occ. eigenvalues --   -1.90723  -1.90720  -1.90562  -1.90560  -1.16681
 Alpha  occ. eigenvalues --   -1.16524  -1.08611  -1.08430  -1.06971  -1.06911
 Alpha  occ. eigenvalues --   -1.06783  -1.06519  -1.04344  -1.04300  -1.03512
 Alpha  occ. eigenvalues --   -1.03487  -1.02954  -1.02891  -1.02137  -1.01966
 Alpha  occ. eigenvalues --   -0.91871  -0.91723  -0.89354  -0.89273  -0.89016
 Alpha  occ. eigenvalues --   -0.88926  -0.88083  -0.88048  -0.87673  -0.87617
 Alpha  occ. eigenvalues --   -0.87536  -0.87395  -0.86941  -0.86929  -0.84865
 Alpha  occ. eigenvalues --   -0.84721  -0.83750  -0.83714  -0.82751  -0.82657
 Alpha  occ. eigenvalues --   -0.82510  -0.82384  -0.81537  -0.81394  -0.80350
 Alpha  occ. eigenvalues --   -0.80334  -0.78491  -0.78471  -0.77005  -0.76960
 Alpha  occ. eigenvalues --   -0.76802  -0.76714  -0.75738  -0.75695  -0.74686
 Alpha  occ. eigenvalues --   -0.74672  -0.72561  -0.72510  -0.71458  -0.71427
 Alpha  occ. eigenvalues --   -0.69677  -0.69613  -0.68695  -0.68612  -0.67471
 Alpha  occ. eigenvalues --   -0.67380  -0.67046  -0.66939  -0.65151  -0.65034
 Alpha  occ. eigenvalues --   -0.64657  -0.64618  -0.64542  -0.64384  -0.64072
 Alpha  occ. eigenvalues --   -0.64023  -0.62230  -0.62121  -0.60171  -0.60142
 Alpha  occ. eigenvalues --   -0.59659  -0.59537  -0.58867  -0.58736  -0.58311
 Alpha  occ. eigenvalues --   -0.58255  -0.57500  -0.57388  -0.57103  -0.57062
 Alpha  occ. eigenvalues --   -0.56083  -0.56053  -0.55830  -0.55802  -0.55330
 Alpha  occ. eigenvalues --   -0.55240  -0.55149  -0.55134  -0.54409  -0.54336
 Alpha  occ. eigenvalues --   -0.53780  -0.53635  -0.53094  -0.53039  -0.53023
 Alpha  occ. eigenvalues --   -0.52946  -0.52795  -0.52691  -0.52477  -0.52433
 Alpha  occ. eigenvalues --   -0.52258  -0.52212  -0.51791  -0.51687  -0.51514
 Alpha  occ. eigenvalues --   -0.51340  -0.51099  -0.50965  -0.50265  -0.50210
 Alpha  occ. eigenvalues --   -0.49824  -0.49773  -0.49721  -0.49623  -0.49340
 Alpha  occ. eigenvalues --   -0.49246  -0.49079  -0.48999  -0.48958  -0.48859
 Alpha  occ. eigenvalues --   -0.48469  -0.48378  -0.48278  -0.48246  -0.48173
 Alpha  occ. eigenvalues --   -0.48154  -0.47462  -0.47433  -0.47025  -0.46974
 Alpha  occ. eigenvalues --   -0.46580  -0.46545  -0.46422  -0.46305  -0.46140
 Alpha  occ. eigenvalues --   -0.46098  -0.45980  -0.45937  -0.45750  -0.45624
 Alpha  occ. eigenvalues --   -0.45084  -0.44968  -0.44424  -0.44363  -0.44340
 Alpha  occ. eigenvalues --   -0.44225  -0.44023  -0.43947  -0.43895  -0.43851
 Alpha  occ. eigenvalues --   -0.43784  -0.43746  -0.43505  -0.43300  -0.43265
 Alpha  occ. eigenvalues --   -0.43130  -0.42901  -0.42792  -0.42785  -0.42551
 Alpha  occ. eigenvalues --   -0.42428  -0.42402  -0.41831  -0.41777  -0.41562
 Alpha  occ. eigenvalues --   -0.41462  -0.41327  -0.41284  -0.40893  -0.40865
 Alpha  occ. eigenvalues --   -0.40620  -0.40580  -0.40528  -0.40514  -0.40363
 Alpha  occ. eigenvalues --   -0.40339  -0.40070  -0.39954  -0.39297  -0.39190
 Alpha  occ. eigenvalues --   -0.38232  -0.38216  -0.37531  -0.37500  -0.37131
 Alpha  occ. eigenvalues --   -0.37069  -0.37063  -0.36999  -0.36763  -0.36558
 Alpha  occ. eigenvalues --   -0.36110  -0.35979  -0.34121  -0.34019  -0.33857
 Alpha  occ. eigenvalues --   -0.33621  -0.33034  -0.32919  -0.31095  -0.31044
 Alpha  occ. eigenvalues --   -0.30832  -0.30769  -0.29899  -0.29825  -0.29171
 Alpha  occ. eigenvalues --   -0.29156  -0.29073  -0.29046  -0.23891  -0.23807
 Alpha  occ. eigenvalues --   -0.20966  -0.20848
 Alpha virt. eigenvalues --   -0.08642  -0.08489  -0.01529  -0.01471   0.00135
 Alpha virt. eigenvalues --    0.00240   0.02313   0.02439   0.03009   0.03912
 Alpha virt. eigenvalues --    0.04861   0.04976   0.05164   0.05244   0.06252

 Mulliken charges:
               1
     1  Mg   0.840402
     2  C   -0.002952
     3  C   -0.091671
     4  C   -0.046341
     5  C   -0.064114
     6  N   -0.256828
     7  C   -0.052399
     8  C   -0.014366
     9  C   -0.087492
    10  C    0.047317
    11  C    0.104898
    12  C    0.052727
    13  C   -0.070777
    14  H    0.033262
    15  N   -0.433366
    16  C    0.170287
    17  C   -0.174728
    18  C   -0.003134
    19  C    0.149282
    20  C    0.109927
    21  C    0.012892
    22  O   -0.251091
    23  C    0.061334
    24  N   -0.341202
    25  C    0.041584
    26  C   -0.028038
    27  C   -0.023647
    28  C    0.074424
    29  C    0.076418
    30  C    0.035175
    31  C   -0.004846
    32  N   -0.310153
    33  C    0.079799
    34  C   -0.170443
    35  C    0.007598
    36  C    0.082530
    37  C    0.127571
    38  C    0.045216
    39  O   -0.190450
    40  C   -0.005201
    41  C    0.212688
    42  O   -0.257827
    43  O   -0.304542
    44  C    0.158449
    45  H   -0.017707
    46  H   -0.017535
    47  H   -0.042153
    48  H   -0.000125
    49  H   -0.003341
    50  H    0.024962
    51  H    0.016356
    52  H    0.016228
    53  H    0.015738
    54  H    0.043547
    55  H    0.016936
    56  H    0.018529
    57  H    0.005847
    58  H    0.025709
    59  H    0.044691
    60  H    0.036865
    61  H    0.034628
    62  H    0.036068
    63  H    0.015705
    64  H    0.008911
    65  H    0.022525
    66  H    0.012553
    67  H    0.004399
    68  H    0.005289
    69  H    0.004760
    70  H    0.007795
    71  H    0.019187
    72  H    0.029561
    73  H    0.046316
    74  H    0.008993
    75  H    0.045297
    76  H    0.034653
    77  H    0.042101
    78  H    0.046540
    79  H    0.051999
    80  Mg   0.839313
    81  C   -0.016988
    82  C   -0.086513
    83  C   -0.045539
    84  C   -0.064626
    85  N   -0.254664
    86  C   -0.049670
    87  C   -0.015507
    88  C   -0.090844
    89  C    0.046640
    90  C    0.114428
    91  C    0.062067
    92  C   -0.077121
    93  H    0.032597
    94  N   -0.423667
    95  C    0.164562
    96  C   -0.173319
    97  C   -0.006906
    98  C    0.152649
    99  C    0.099295
   100  C    0.016372
   101  O   -0.253820
   102  C    0.060374
   103  N   -0.350052
   104  C    0.037786
   105  C   -0.019805
   106  C   -0.034630
   107  C    0.088543
   108  C    0.073834
   109  C    0.034689
   110  C   -0.008283
   111  N   -0.323801
   112  C    0.078000
   113  C   -0.163758
   114  C    0.001222
   115  C    0.095957
   116  C    0.131867
   117  C    0.041233
   118  O   -0.190308
   119  C    0.001218
   120  C    0.210845
   121  O   -0.252008
   122  O   -0.305210
   123  C    0.152894
   124  H   -0.019664
   125  H   -0.015809
   126  H   -0.040570
   127  H   -0.001565
   128  H   -0.003758
   129  H    0.022031
   130  H    0.014403
   131  H    0.016050
   132  H    0.017333
   133  H    0.037198
   134  H    0.019996
   135  H    0.020384
   136  H    0.008783
   137  H    0.025562
   138  H    0.042946
   139  H    0.037803
   140  H    0.036127
   141  H    0.036939
   142  H    0.014106
   143  H    0.012014
   144  H    0.024768
   145  H    0.011548
   146  H    0.005448
   147  H    0.005437
   148  H    0.004114
   149  H    0.010068
   150  H    0.019824
   151  H    0.030347
   152  H    0.044139
   153  H    0.009126
   154  H    0.046399
   155  H    0.034698
   156  H    0.043083
   157  H    0.049987
   158  H    0.051356
 Sum of Mulliken charges =  -0.00000

 Dipole moment (field-independent basis, Debye):
    X=              0.5706    Y=              3.1783    Z=             -0.5421  Tot=              3.2743
 Quadrupole moment (field-independent basis, Debye-Ang):
   XX=           -483.5512   YY=           -461.9521   ZZ=           -540.0228
   XY=              4.1166   XZ=             33.2741   YZ=              0.2727

 Normal termination of Gaussian 16 at Thu Sep  9 17:55:02 2021.
