 Gaussian 16, Revision A.03,
 Gaussian 16:  ES64L-G16RevA.03 25-Dec-2016

 -----------------------------------
 #p cam-b3lyp/Def2SVP td=(nstates=5)
 -----------------------------------

 --------------------------------
 TDDFT excited states in gaussian
 --------------------------------
 Symbolic Z-matrix:
 Charge =  0 Multiplicity = 1

                         Standard orientation:
 ---------------------------------------------------------------------
 Center     Atomic      Atomic             Coordinates (Angstroms)
 Number     Number       Type             X           Y           Z
 ---------------------------------------------------------------------
      1         12           0       16.101545    0.534228    0.301046
      2          6           0       16.288425   -2.817645   -0.940823
      3          6           0       16.989949    1.582569   -2.822219
      4          6           0       16.386323    3.462975    1.483402
      5          6           0       16.347749   -0.798627    3.511738
      6          7           0       16.553003   -0.572802   -1.562101
      7          6           0       16.530442   -1.852590   -1.920997
      8          6           0       16.713576   -2.067895   -3.453145
      9          6           0       17.474828   -0.712837   -3.808549
     10          6           0       16.948527    0.163205   -2.685392
     11          6           0       18.991456   -0.814893   -3.682351
     12          6           0       15.344969   -2.170778   -4.206843
     13          6           0       15.426976   -2.702862   -5.640550
     14          1           0       14.347830   -3.542233   -6.138795
     15          7           0       16.133272    2.286497   -0.610764
     16          6           0       16.506978    2.526823   -1.890558
     17          6           0       16.355912    3.983903   -2.092492
     18          6           0       16.045734    4.596674   -0.770980
     19          6           0       16.203930    3.462058    0.102519
     20          6           0       16.457222    4.643610   -3.433489
     21          6           0       15.677116    5.986894   -0.359225
     22          8           0       15.676855    6.356241    0.864767
     23          6           0       15.398401    6.942066   -1.446886
     24          7           0       16.554245    1.258901    2.205658
     25          6           0       16.555515    2.571595    2.462208
     26          6           0       16.625057    2.839762    3.936382
     27          6           0       16.425474    1.426655    4.652656
     28          6           0       16.353524    0.530870    3.391441
     29          6           0       17.922940    3.487529    4.438288
     30          6           0       15.286050    1.322493    5.697301
     31          6           0       13.945567    1.452003    5.009237
     32          7           0       16.108340   -1.451922    1.176378
     33          6           0       16.243963   -1.774328    2.534441
     34          6           0       16.299807   -3.244905    2.625832
     35          6           0       16.208869   -3.678103    1.304501
     36          6           0       16.129354   -2.548913    0.440267
     37          6           0       16.478124   -3.999566    3.818780
     38          6           0       16.185179   -4.831628    0.419812
     39          8           0       16.128662   -6.050919    0.586030
     40          6           0       16.358464   -4.318287   -1.077613
     41          6           0       15.309631   -4.997718   -1.915248
     42          8           0       14.098144   -4.748225   -1.749666
     43          8           0       15.902258   -5.647226   -2.928892
     44          6           0       14.915222   -6.318997   -3.815817
     45          1           0       17.489165    2.014670   -3.691709
     46          1           0       16.378645    4.453355    1.943322
     47          1           0       16.339000   -1.288247    4.487263
     48          1           0       17.332928   -2.924109   -3.720961
     49          1           0       17.167330   -0.314854   -4.775387
     50          1           0       19.291593   -1.766366   -3.243557
     51          1           0       19.286054    0.012169   -3.036075
     52          1           0       19.473333   -0.630888   -4.642931
     53          1           0       14.966170   -1.167660   -4.402616
     54          1           0       14.635929   -2.773761   -3.638512
     55          1           0       16.393922   -3.166003   -5.839104
     56          1           0       15.388194   -1.853592   -6.322779
     57          1           0       16.856045    3.963633   -4.185232
     58          1           0       17.211207    5.425788   -3.347390
     59          1           0       15.509309    5.079866   -3.748884
     60          1           0       16.276802    7.024509   -2.087326
     61          1           0       15.065469    7.859722   -0.963240
     62          1           0       14.599637    6.541997   -2.072082
     63          1           0       15.829085    3.514335    4.249118
     64          1           0       17.316262    1.115542    5.198897
     65          1           0       17.766626    4.426830    4.969310
     66          1           0       18.582728    3.627240    3.582455
     67          1           0       18.532387    2.852071    5.080304
     68          1           0       15.356696    2.136575    6.417875
     69          1           0       15.296690    0.385203    6.253739
     70          1           0       13.814897    2.530782    4.931823
     71          1           0       13.159794    1.006399    5.620144
     72          1           0       13.978722    1.054161    3.994787
     73          1           0       15.775164   -4.830583    3.761958
     74          1           0       16.299376   -3.389336    4.703805
     75          1           0       17.522937   -4.292895    3.717884
     76          1           0       17.367667   -4.588514   -1.386817
     77          1           0       15.189682   -7.372963   -3.861231
     78          1           0       14.906098   -5.757799   -4.750364
     79          1           0       13.895087   -6.388154   -3.436500
     80         12           0      -15.657885    0.714751    0.227284
     81          6           0      -17.844418   -2.124567    0.036608
     82          6           0      -17.313121    1.982639   -2.472212
     83          6           0      -13.468956    3.007418    0.086927
     84          6           0      -13.495545   -1.252741    2.124384
     85          7           0      -17.344203   -0.063569   -0.973885
     86          6           0      -18.134755   -1.124646   -0.914858
     87          6           0      -19.350046   -1.075718   -1.879354
     88          6           0      -18.751077   -0.060071   -2.969567
     89          6           0      -17.763850    0.696046   -2.082805
     90          6           0      -17.968414   -0.753637   -4.072163
     91          6           0      -20.634224   -0.490438   -1.193537
     92          6           0      -21.932730   -0.698515   -1.976065
     93          1           0      -23.164174   -0.940510   -1.229441
     94          7           0      -15.705595    2.482495   -0.673471
     95          6           0      -16.452187    2.831305   -1.742215
     96          6           0      -16.109992    4.232408   -2.032006
     97          6           0      -14.979815    4.631353   -1.149833
     98          6           0      -14.653475    3.355030   -0.546027
     99          6           0      -16.882991    5.074261   -3.005238
    100          6           0      -14.296419    5.941905   -0.901545
    101          8           0      -13.182261    6.011642   -0.271761
    102          6           0      -14.922244    7.130987   -1.498131
    103          7           0      -13.664294    0.798434    0.811202
    104          6           0      -12.954423    1.933520    0.686358
    105          6           0      -11.638613    1.837590    1.421078
    106          6           0      -11.718437    0.484894    2.270440
    107          6           0      -13.090890   -0.035229    1.789585
    108          6           0      -10.387052    1.814315    0.543888
    109          6           0      -11.464776    0.597492    3.798731
    110          6           0      -12.586045    1.372753    4.452258
    111          7           0      -15.722499   -1.252712    1.117765
    112          6           0      -14.697608   -1.892031    1.849180
    113          6           0      -15.165858   -3.260565    2.149657
    114          6           0      -16.431215   -3.330666    1.547626
    115          6           0      -16.721933   -2.099975    0.899247
    116          6           0      -14.428202   -4.257589    2.848168
    117          6           0      -17.582613   -4.169536    1.304123
    118          8           0      -17.940505   -5.284486    1.681641
    119          6           0      -18.495241   -3.469159    0.207325
    120          6           0      -19.917304   -3.502199    0.696382
    121          8           0      -20.252059   -2.864179    1.710030
    122          8           0      -20.688071   -4.100571   -0.230023
    123          6           0      -22.109591   -4.147515    0.204609
    124          1           0      -17.612531    2.363617   -3.448981
    125          1           0      -12.723477    3.802481    0.161881
    126          1           0      -12.920911   -1.895034    2.795143
    127          1           0      -19.596579   -2.021023   -2.347755
    128          1           0      -19.517587    0.612230   -3.346184
    129          1           0      -17.843787   -1.808149   -3.875663
    130          1           0      -17.006596   -0.258853   -4.106102
    131          1           0      -18.437768   -0.566939   -5.042311
    132          1           0      -20.579803    0.605726   -1.207891
    133          1           0      -20.745396   -0.877785   -0.199435
    134          1           0      -21.817165   -1.438802   -2.777044
    135          1           0      -22.173916    0.228965   -2.501069
    136          1           0      -17.552755    4.462914   -3.622543
    137          1           0      -16.159213    5.486842   -3.716422
    138          1           0      -17.412430    5.898076   -2.521800
    139          1           0      -14.986102    7.003048   -2.576099
    140          1           0      -14.339877    7.980469   -1.136060
    141          1           0      -15.951008    7.207420   -1.128786
    142          1           0      -11.513105    2.672015    2.100103
    143          1           0      -10.970071   -0.249577    1.938255
    144          1           0       -9.669983    2.621625    0.785015
    145          1           0      -10.694739    1.875738   -0.491524
    146          1           0       -9.826710    0.881132    0.563419
    147          1           0      -10.546832    1.158727    3.989918
    148          1           0      -11.363215   -0.363589    4.291678
    149          1           0      -12.293276    2.414379    4.289748
    150          1           0      -12.644664    1.140241    5.513644
    151          1           0      -13.534541    1.211158    3.927007
    152          1           0      -15.116771   -4.729218    3.536596
    153          1           0      -13.574929   -3.828688    3.369442
    154          1           0      -14.121884   -4.894041    2.013679
    155          1           0      -18.369884   -4.021749   -0.724606
    156          1           0      -22.420415   -5.196195    0.167991
    157          1           0      -22.646914   -3.439592   -0.454079
    158          1           0      -22.326588   -3.898526    1.236780
 ---------------------------------------------------------------------

 SCF Done:  E(RCAM-B3LYP) =  -4069.81177282     A.U. after   19 cycles

 Excitation energies and oscillator strengths:

 Excited State   1:      Singlet-A      1.6753 eV  740.08 nm  f=0.2131  <S**2>=0.000
     310 -> 316        0.16865
     311 -> 313        0.66673
     312 -> 314       -0.16170
     310 <- 316        0.10168
 This state for optimization and/or second-order correction.
 Total Energy, E(TD-HF/TD-DFT) =  -4069.75020724
 Copying the excited state density for this state as the 1-particle RhoCI density.

 Excited State   2:      Singlet-A      1.6801 eV  737.95 nm  f=0.5644  <S**2>=0.000
     309 -> 315        0.17067
     311 -> 313        0.16165
     312 -> 314        0.66636
     309 <- 315        0.10218

 Excited State   3:      Singlet-A      2.1861 eV  567.15 nm  f=0.1011  <S**2>=0.000
     310 -> 313        0.64237
     311 -> 316       -0.27309

 Excited State   4:      Singlet-A      2.1925 eV  565.48 nm  f=0.1001  <S**2>=0.000
     309 -> 314        0.64060
     312 -> 315       -0.27827

 Excited State   5:      Singlet-A      3.0631 eV  404.77 nm  f=0.0000  <S**2>=0.000
     312 -> 313        0.70710

 The electronic state is 1-A.
 Alpha  occ. eigenvalues --  -46.87780 -46.87660 -19.26350 -19.26268 -19.19161
 Alpha  occ. eigenvalues --  -19.19004 -19.18798 -19.18714 -19.18153 -19.18051
 Alpha  occ. eigenvalues --  -14.42497 -14.42434 -14.41433 -14.41358 -14.39386
 Alpha  occ. eigenvalues --  -14.39352 -14.38599 -14.38570 -10.39091 -10.39064
 Alpha  occ. eigenvalues --  -10.35431 -10.35392 -10.34373 -10.34228 -10.31757
 Alpha  occ. eigenvalues --  -10.31664 -10.31389 -10.31309 -10.31024 -10.30893
 Alpha  occ. eigenvalues --  -10.30554 -10.30491 -10.30397 -10.30360 -10.30191
 Alpha  occ. eigenvalues --  -10.30139 -10.29904 -10.29893 -10.29614 -10.29436
 Alpha  occ. eigenvalues --  -10.29400 -10.29238 -10.28733 -10.28721 -10.28657
 Alpha  occ. eigenvalues --  -10.28523 -10.28405 -10.28349 -10.28142 -10.28101
 Alpha  occ. eigenvalues --  -10.28000 -10.27777 -10.27711 -10.27669 -10.27568
 Alpha  occ. eigenvalues --  -10.27513 -10.27485 -10.27483 -10.27469 -10.27465
 Alpha  occ. eigenvalues --  -10.27465 -10.27433 -10.27387 -10.27371 -10.27142
 Alpha  occ. eigenvalues --  -10.27051 -10.26694 -10.26689 -10.26417 -10.26393
 Alpha  occ. eigenvalues --  -10.26219 -10.26167 -10.26130 -10.26028 -10.26003
 Alpha  occ. eigenvalues --  -10.25932 -10.25847 -10.25827 -10.25419 -10.25391
 Alpha  occ. eigenvalues --  -10.24872 -10.24816 -10.24771 -10.24724 -10.24689
 Alpha  occ. eigenvalues --  -10.24670  -3.16523  -3.16410  -1.91405  -1.91292
 Alpha  occ. eigenvalues --   -1.90991  -1.90880  -1.90833  -1.90717  -1.16644
 Alpha  occ. eigenvalues --   -1.16617  -1.08658  -1.08611  -1.07199  -1.06967
 Alpha  occ. eigenvalues --   -1.06946  -1.06626  -1.04565  -1.04495  -1.03744
 Alpha  occ. eigenvalues --   -1.03663  -1.03217  -1.03038  -1.02395  -1.02111
 Alpha  occ. eigenvalues --   -0.91987  -0.91956  -0.89503  -0.89492  -0.89172
 Alpha  occ. eigenvalues --   -0.89152  -0.88270  -0.88217  -0.87854  -0.87792
 Alpha  occ. eigenvalues --   -0.87683  -0.87657  -0.87257  -0.87121  -0.85000
 Alpha  occ. eigenvalues --   -0.84966  -0.83920  -0.83872  -0.82950  -0.82931
 Alpha  occ. eigenvalues --   -0.82653  -0.82632  -0.81596  -0.81570  -0.80580
 Alpha  occ. eigenvalues --   -0.80443  -0.78781  -0.78635  -0.77202  -0.77144
 Alpha  occ. eigenvalues --   -0.76918  -0.76898  -0.75907  -0.75839  -0.74882
 Alpha  occ. eigenvalues --   -0.74800  -0.72758  -0.72698  -0.71656  -0.71580
 Alpha  occ. eigenvalues --   -0.69890  -0.69753  -0.68857  -0.68828  -0.67625
 Alpha  occ. eigenvalues --   -0.67601  -0.67203  -0.67201  -0.65272  -0.65270
 Alpha  occ. eigenvalues --   -0.64837  -0.64769  -0.64653  -0.64604  -0.64253
 Alpha  occ. eigenvalues --   -0.64201  -0.62282  -0.62278  -0.60426  -0.60339
 Alpha  occ. eigenvalues --   -0.59797  -0.59788  -0.58992  -0.58971  -0.58487
 Alpha  occ. eigenvalues --   -0.58425  -0.57568  -0.57554  -0.57292  -0.57235
 Alpha  occ. eigenvalues --   -0.56294  -0.56204  -0.55962  -0.55887  -0.55504
 Alpha  occ. eigenvalues --   -0.55452  -0.55323  -0.55245  -0.54507  -0.54486
 Alpha  occ. eigenvalues --   -0.53914  -0.53879  -0.53282  -0.53227  -0.53206
 Alpha  occ. eigenvalues --   -0.53142  -0.52902  -0.52898  -0.52740  -0.52669
 Alpha  occ. eigenvalues --   -0.52422  -0.52396  -0.51899  -0.51883  -0.51660
 Alpha  occ. eigenvalues --   -0.51600  -0.51200  -0.51180  -0.50556  -0.50476
 Alpha  occ. eigenvalues --   -0.50015  -0.49980  -0.49902  -0.49865  -0.49498
 Alpha  occ. eigenvalues --   -0.49488  -0.49203  -0.49198  -0.49105  -0.49080
 Alpha  occ. eigenvalues --   -0.48577  -0.48559  -0.48445  -0.48429  -0.48373
 Alpha  occ. eigenvalues --   -0.48339  -0.47678  -0.47594  -0.47281  -0.47118
 Alpha  occ. eigenvalues --   -0.46781  -0.46708  -0.46555  -0.46539  -0.46343
 Alpha  occ. eigenvalues --   -0.46269  -0.46146  -0.46084  -0.45821  -0.45806
 Alpha  occ. eigenvalues --   -0.45206  -0.45185  -0.44562  -0.44514  -0.44490
 Alpha  occ. eigenvalues --   -0.44476  -0.44128  -0.44127  -0.44076  -0.44072
 Alpha  occ. eigenvalues --   -0.44003  -0.43940  -0.43553  -0.43479  -0.43385
 Alpha  occ. eigenvalues --   -0.43369  -0.43011  -0.42930  -0.42900  -0.42683
 Alpha  occ. eigenvalues --   -0.42638  -0.42551  -0.41993  -0.41962  -0.41688
 Alpha  occ. eigenvalues --   -0.41669  -0.41517  -0.41458  -0.41125  -0.40989
 Alpha  occ. eigenvalues --   -0.40853  -0.40806  -0.40723  -0.40698  -0.40555
 Alpha  occ. eigenvalues --   -0.40490  -0.40228  -0.40218  -0.39424  -0.39421
 Alpha  occ. eigenvalues --   -0.38453  -0.38347  -0.37732  -0.37655  -0.37304
 Alpha  occ. eigenvalues --   -0.37264  -0.37247  -0.37200  -0.36771  -0.36697
 Alpha  occ. eigenvalues --   -0.36216  -0.36176  -0.34270  -0.34253  -0.33862
 Alpha  occ. eigenvalues --   -0.33754  -0.33175  -0.33170  -0.31328  -0.31273
 Alpha  occ. eigenvalues --   -0.31019  -0.30972  -0.30013  -0.29955  -0.29433
 Alpha  occ. eigenvalues --   -0.29327  -0.29305  -0.29211  -0.24064  -0.24036
 Alpha  occ. eigenvalues --   -0.21116  -0.21111
 Alpha virt. eigenvalues --   -0.08791  -0.08758  -0.01733  -0.01683  -0.00041
 Alpha virt. eigenvalues --   -0.00029   0.02208   0.02217   0.03140   0.03226
 Alpha virt. eigenvalues --    0.04729   0.04735   0.05114   0.05165   0.06181

 Mulliken charges:
               1
     1  Mg   0.838796
     2  C   -0.002964
     3  C   -0.094112
     4  C   -0.045882
     5  C   -0.063956
     6  N   -0.256782
     7  C   -0.052471
     8  C   -0.014006
     9  C   -0.086999
    10  C    0.046311
    11  C    0.104815
    12  C    0.053459
    13  C   -0.071801
    14  H    0.036135
    15  N   -0.433150
    16  C    0.168434
    17  C   -0.177165
    18  C   -0.004000
    19  C    0.148724
    20  C    0.110184
    21  C    0.012295
    22  O   -0.249617
    23  C    0.062471
    24  N   -0.341154
    25  C    0.041250
    26  C   -0.028172
    27  C   -0.023981
    28  C    0.074845
    29  C    0.076177
    30  C    0.035122
    31  C   -0.004500
    32  N   -0.310475
    33  C    0.080414
    34  C   -0.169719
    35  C    0.008355
    36  C    0.082976
    37  C    0.127314
    38  C    0.046115
    39  O   -0.188447
    40  C   -0.005329
    41  C    0.212861
    42  O   -0.257095
    43  O   -0.304796
    44  C    0.157688
    45  H   -0.017610
    46  H   -0.016833
    47  H   -0.041494
    48  H    0.000928
    49  H   -0.004032
    50  H    0.025469
    51  H    0.016441
    52  H    0.016649
    53  H    0.011216
    54  H    0.044128
    55  H    0.017859
    56  H    0.017951
    57  H    0.005869
    58  H    0.026817
    59  H    0.039570
    60  H    0.037335
    61  H    0.035666
    62  H    0.031522
    63  H    0.016563
    64  H    0.009453
    65  H    0.023215
    66  H    0.012537
    67  H    0.004746
    68  H    0.006369
    69  H    0.004728
    70  H    0.008790
    71  H    0.018148
    72  H    0.028982
    73  H    0.047569
    74  H    0.009111
    75  H    0.045998
    76  H    0.035141
    77  H    0.042941
    78  H    0.046402
    79  H    0.053694
    80  Mg   0.837800
    81  C   -0.016806
    82  C   -0.087815
    83  C   -0.045510
    84  C   -0.064865
    85  N   -0.254563
    86  C   -0.049864
    87  C   -0.015113
    88  C   -0.090494
    89  C    0.045761
    90  C    0.114380
    91  C    0.062530
    92  C   -0.077903
    93  H    0.034908
    94  N   -0.423496
    95  C    0.162937
    96  C   -0.174644
    97  C   -0.007800
    98  C    0.152119
    99  C    0.099371
   100  C    0.015566
   101  O   -0.253156
   102  C    0.061198
   103  N   -0.350038
   104  C    0.037525
   105  C   -0.019846
   106  C   -0.034838
   107  C    0.088929
   108  C    0.073640
   109  C    0.034710
   110  C   -0.007687
   111  N   -0.324118
   112  C    0.078469
   113  C   -0.163109
   114  C    0.002242
   115  C    0.096196
   116  C    0.131489
   117  C    0.042397
   118  O   -0.187844
   119  C    0.000907
   120  C    0.211251
   121  O   -0.251013
   122  O   -0.305631
   123  C    0.152029
   124  H   -0.019688
   125  H   -0.015547
   126  H   -0.040382
   127  H   -0.000651
   128  H   -0.004335
   129  H    0.022462
   130  H    0.014428
   131  H    0.016262
   132  H    0.013923
   133  H    0.037687
   134  H    0.020779
   135  H    0.019586
   136  H    0.008746
   137  H    0.026121
   138  H    0.039792
   139  H    0.038232
   140  H    0.036398
   141  H    0.033898
   142  H    0.014422
   143  H    0.012504
   144  H    0.025189
   145  H    0.011599
   146  H    0.005760
   147  H    0.006347
   148  H    0.003711
   149  H    0.010935
   150  H    0.017970
   151  H    0.030056
   152  H    0.046027
   153  H    0.008577
   154  H    0.046978
   155  H    0.035018
   156  H    0.043916
   157  H    0.049482
   158  H    0.053591
 Sum of Mulliken charges =  -0.00000

 Dipole moment (field-independent basis, Debye):
    X=              1.5789    Y=              4.9949    Z=             -6.9028  Tot=              8.6655
 Quadrupole moment (field-independent basis, Debye-Ang):
   XX=           -415.7350   YY=           -560.9211   ZZ=           -458.9542
   XY=            -13.3961   XZ=             34.5171   YZ=             -3.3980

 Normal termination of Gaussian 16 at Sun Sep 12 21:17:11 2021.
