 Gaussian 16, Revision A.03,
 Gaussian 16:  ES64L-G16RevA.03 25-Dec-2016

 -----------------------------------
 #p cam-b3lyp/Def2SVP td=(nstates=5)
 -----------------------------------

 --------------------------------
 TDDFT excited states in gaussian
 --------------------------------
 Symbolic Z-matrix:
 Charge =  0 Multiplicity = 1

                         Standard orientation:
 ---------------------------------------------------------------------
 Center     Atomic      Atomic             Coordinates (Angstroms)
 Number     Number       Type             X           Y           Z
 ---------------------------------------------------------------------
      1         12           0       -4.123517   -1.566113    0.314397
      2          6           0       -5.577945    1.590370   -0.542030
      3          6           0       -4.748096   -2.555424   -2.890947
      4          6           0       -3.264267   -4.497243    1.166917
      5          6           0       -4.652854   -0.736201    3.657556
      6          7           0       -5.048624   -0.523733   -1.405565
      7          6           0       -5.510023    0.704461   -1.619619
      8          6           0       -5.844680    0.986852   -3.114823
      9          6           0       -6.083983   -0.510835   -3.606420
     10          6           0       -5.214375   -1.239629   -2.597181
     11          6           0       -7.525414   -0.982428   -3.444003
     12          6           0       -4.650439    1.655537   -3.875335
     13          6           0       -4.999805    2.258493   -5.239058
     14          1           0       -4.326543    3.478347   -5.658610
     15          7           0       -3.571721   -3.110742   -0.786735
     16          6           0       -3.904991   -3.344452   -2.078864
     17          6           0       -3.249596   -4.618516   -2.444785
     18          6           0       -2.665038   -5.201888   -1.205405
     19          6           0       -3.172734   -4.294681   -0.208109
     20          6           0       -3.181325   -5.135051   -3.849164
     21          6           0       -1.796663   -6.394673   -0.957774
     22          8           0       -1.593986   -6.856291    0.217133
     23          6           0       -1.253669   -7.070792   -2.149857
     24          7           0       -4.175747   -2.588672    2.133539
     25          6           0       -3.688420   -3.829544    2.241867
     26          6           0       -3.573139   -4.247454    3.677834
     27          6           0       -3.857248   -2.936406    4.543967
     28          6           0       -4.184915   -1.957400    3.389648
     29          6           0       -4.518989   -5.370139    4.126119
     30          6           0       -2.775333   -2.526181    5.574304
     31          6           0       -1.519647   -2.089338    4.853528
     32          7           0       -4.797685    0.184551    1.406055
     33          6           0       -4.963728    0.300634    2.793725
     34          6           0       -5.541601    1.632777    3.049709
     35          6           0       -5.687938    2.196330    1.783676
     36          6           0       -5.254916    1.264513    0.797522
     37          6           0       -5.912794    2.149614    4.322316
     38          6           0       -6.132357    3.359491    1.033074
     39          8           0       -6.510677    4.492693    1.333443
     40          6           0       -6.192761    2.967492   -0.509170
     41          6           0       -5.509107    4.061414   -1.283290
     42          8           0       -4.282001    4.256548   -1.167104
     43          8           0       -6.352468    4.545548   -2.207896
     44          6           0       -5.726350    5.614639   -3.030802
     45          1           0       -5.105791   -3.052655   -3.794693
     46          1           0       -2.873530   -5.456346    1.513159
     47          1           0       -4.766481   -0.375168    4.681370
     48          1           0       -6.745483    1.579620   -3.274837
     49          1           0       -5.708591   -0.672417   -4.616714
     50          1           0       -8.123619   -0.254064   -2.896686
     51          1           0       -7.464501   -1.918928   -2.889251
     52          1           0       -7.961700   -1.234724   -4.410842
     53          1           0       -3.946652    0.884299   -4.188284
     54          1           0       -4.176137    2.417048   -3.255282
     55          1           0       -6.078301    2.353665   -5.368278
     56          1           0       -4.695514    1.553147   -6.012423
     57          1           0       -3.840518   -4.577576   -4.513416
     58          1           0       -3.595830   -6.142907   -3.838228
     59          1           0       -2.159252   -5.161991   -4.227280
     60          1           0       -2.077658   -7.405161   -2.780562
     61          1           0       -0.585105   -7.846137   -1.777416
     62          1           0       -0.689914   -6.347596   -2.739871
     63          1           0       -2.570994   -4.611969    3.899782
     64          1           0       -4.767933   -3.027057    5.136511
     65          1           0       -4.004334   -6.234643    4.546199
     66          1           0       -5.130962   -5.656633    3.271308
     67          1           0       -5.279522   -5.067161    4.845292
     68          1           0       -2.506459   -3.376167    6.200545
     69          1           0       -3.092312   -1.716761    6.232038
     70          1           0       -1.012821   -3.032798    4.653923
     71          1           0       -0.914686   -1.449680    5.497012
     72          1           0       -1.751409   -1.633852    3.890561
     73          1           0       -5.561769    3.181191    4.346787
     74          1           0       -5.476116    1.563318    5.130507
     75          1           0       -6.996938    2.049586    4.272481
     76          1           0       -7.247169    2.879461   -0.769162
     77          1           0       -6.364987    6.494647   -2.953580
     78          1           0       -5.567927    5.189854   -4.022197
     79          1           0       -4.780368    6.014006   -2.663427
     80         12           0        4.275334    1.672393    0.141572
     81          6           0        5.268094   -1.539696   -1.113820
     82          6           0        3.964405    0.211530    3.208134
     83          6           0        2.969424    4.369658    1.184054
     84          6           0        3.566684    2.583927   -3.146686
     85          7           0        4.602953   -0.403308    0.831763
     86          6           0        5.039101   -1.524614    0.277870
     87          6           0        5.317988   -2.673047    1.284292
     88          6           0        4.344460   -2.196189    2.469088
     89          6           0        4.324848   -0.696489    2.180665
     90          6           0        2.927031   -2.727167    2.333824
     91          6           0        6.815729   -2.708513    1.750683
     92          6           0        7.229355   -3.983517    2.488955
     93          1           0        8.582439   -4.495311    2.289723
     94          7           0        4.034903    2.352093    1.990564
     95          6           0        3.952349    1.621052    3.121955
     96          6           0        3.757007    2.588598    4.212763
     97          6           0        3.566089    3.937785    3.614466
     98          6           0        3.493736    3.594761    2.208340
     99          6           0        3.842688    2.208663    5.662500
    100          6           0        3.452877    5.308318    4.210294
    101          8           0        3.051765    6.311387    3.520530
    102          6           0        3.735854    5.423383    5.648419
    103          7           0        3.197105    3.175637   -0.807125
    104          6           0        2.790741    4.265741   -0.132990
    105          6           0        2.279839    5.330263   -1.074342
    106          6           0        2.653926    4.820336   -2.543226
    107          6           0        3.263686    3.446859   -2.186632
    108          6           0        0.780361    5.617987   -1.002302
    109          6           0        3.480679    5.787141   -3.434533
    110          6           0        4.870427    5.954323   -2.863526
    111          7           0        4.556987    0.792501   -1.811517
    112          6           0        4.163454    1.332958   -3.055345
    113          6           0        4.464588    0.318158   -4.085837
    114          6           0        4.995400   -0.759901   -3.361601
    115          6           0        5.004411   -0.447438   -1.975322
    116          6           0        4.199025    0.442738   -5.478707
    117          6           0        5.540297   -2.095324   -3.453518
    118          8           0        5.854565   -2.843561   -4.378233
    119          6           0        5.623895   -2.708869   -1.989626
    120          6           0        6.986904   -3.322049   -1.820138
    121          8           0        8.005789   -2.608988   -1.824958
    122          8           0        6.848504   -4.612353   -1.464693
    123          6           0        8.173261   -5.260787   -1.274008
    124          1           0        3.616967   -0.192647    4.159348
    125          1           0        2.607048    5.357406    1.478209
    126          1           0        3.465801    2.829959   -4.205920
    127          1           0        5.029361   -3.658892    0.939950
    128          1           0        4.783746   -2.391277    3.443926
    129          1           0        2.777650   -3.242763    1.396811
    130          1           0        2.281250   -1.861063    2.396224
    131          1           0        2.675337   -3.353400    3.194525
    132          1           0        6.958656   -1.972481    2.552291
    133          1           0        7.476657   -2.539745    0.922845
    134          1           0        6.492826   -4.787168    2.368083
    135          1           0        7.228800   -3.778677    3.562297
    136          1           0        3.828493    1.119726    5.794476
    137          1           0        2.917672    2.552013    6.138242
    138          1           0        4.693028    2.669925    6.169277
    139          1           0        3.059178    4.777141    6.202453
    140          1           0        3.690350    6.491278    5.870672
    141          1           0        4.749630    5.052469    5.836270
    142          1           0        2.775447    6.276261   -0.893925
    143          1           0        1.755928    4.618669   -3.145529
    144          1           0        0.549247    6.678154   -0.786220
    145          1           0        0.344761    4.973010   -0.250768
    146          1           0        0.215231    5.349186   -1.893129
    147          1           0        3.025469    6.780582   -3.439168
    148          1           0        3.557630    5.463331   -4.467113
    149          1           0        4.731296    6.721849   -2.096293
    150          1           0        5.563500    6.287056   -3.633573
    151          1           0        5.201035    5.039368   -2.358342
    152          1           0        5.072856    0.070529   -5.996766
    153          1           0        3.983118    1.473600   -5.751636
    154          1           0        3.318004   -0.198509   -5.567395
    155          1           0        4.827880   -3.448904   -1.898641
    156          1           0        8.194931   -6.140592   -1.924511
    157          1           0        8.265962   -5.436554   -0.185759
    158          1           0        9.048886   -4.722347   -1.617268
 ---------------------------------------------------------------------

 SCF Done:  E(RCAM-B3LYP) =  -4069.81200283     A.U. after   19 cycles

 Excitation energies and oscillator strengths:

 Excited State   1:      Singlet-A      1.6516 eV  750.68 nm  f=0.0564  <S**2>=0.000
     309 -> 315        0.10969
     310 -> 316        0.12744
     311 -> 313        0.44901
     312 -> 314        0.52055
 This state for optimization and/or second-order correction.
 Total Energy, E(TD-HF/TD-DFT) =  -4069.75130639
 Copying the excited state density for this state as the 1-particle RhoCI density.

 Excited State   2:      Singlet-A      1.6983 eV  730.04 nm  f=0.6367  <S**2>=0.000
     309 -> 315        0.13643
     310 -> 316       -0.11728
     311 -> 313        0.51820
     312 -> 314       -0.44699

 Excited State   3:      Singlet-A      2.1811 eV  568.45 nm  f=0.0337  <S**2>=0.000
     309 -> 313        0.29031
     310 -> 314        0.57608
     311 -> 315       -0.12015
     312 -> 316       -0.23935

 Excited State   4:      Singlet-A      2.1965 eV  564.46 nm  f=0.1462  <S**2>=0.000
     309 -> 313        0.57089
     310 -> 314       -0.28642
     311 -> 315       -0.25154
     312 -> 316        0.12744

 Excited State   5:      Singlet-A      2.3478 eV  528.08 nm  f=0.0000  <S**2>=0.000
     312 -> 313        0.70709

 The electronic state is 1-A.
 Alpha  occ. eigenvalues --  -46.87911 -46.87434 -19.26406 -19.26231 -19.19150
 Alpha  occ. eigenvalues --  -19.19033 -19.18906 -19.18484 -19.18257 -19.17909
 Alpha  occ. eigenvalues --  -14.42561 -14.42272 -14.41580 -14.41107 -14.39512
 Alpha  occ. eigenvalues --  -14.39129 -14.38696 -14.38390 -10.39206 -10.38959
 Alpha  occ. eigenvalues --  -10.35532 -10.35161 -10.34480 -10.34087 -10.31807
 Alpha  occ. eigenvalues --  -10.31655 -10.31512 -10.31112 -10.31011 -10.30798
 Alpha  occ. eigenvalues --  -10.30676 -10.30626 -10.30343 -10.30181 -10.30175
 Alpha  occ. eigenvalues --  -10.30064 -10.29870 -10.29733 -10.29625 -10.29359
 Alpha  occ. eigenvalues --  -10.29211 -10.29205 -10.28852 -10.28657 -10.28510
 Alpha  occ. eigenvalues --  -10.28494 -10.28465 -10.28210 -10.28194 -10.27921
 Alpha  occ. eigenvalues --  -10.27889 -10.27831 -10.27805 -10.27712 -10.27679
 Alpha  occ. eigenvalues --  -10.27651 -10.27515 -10.27507 -10.27454 -10.27309
 Alpha  occ. eigenvalues --  -10.27269 -10.27267 -10.27262 -10.27179 -10.26946
 Alpha  occ. eigenvalues --  -10.26899 -10.26822 -10.26516 -10.26490 -10.26425
 Alpha  occ. eigenvalues --  -10.26316 -10.26211 -10.26152 -10.25939 -10.25882
 Alpha  occ. eigenvalues --  -10.25762 -10.25754 -10.25707 -10.25613 -10.25091
 Alpha  occ. eigenvalues --  -10.24929 -10.24917 -10.24685 -10.24677 -10.24505
 Alpha  occ. eigenvalues --  -10.24425  -3.16654  -3.16184  -1.91535  -1.91122
 Alpha  occ. eigenvalues --   -1.91066  -1.90964  -1.90654  -1.90492  -1.16755
 Alpha  occ. eigenvalues --   -1.16522  -1.08716  -1.08526  -1.07309  -1.06819
 Alpha  occ. eigenvalues --   -1.06768  -1.06731  -1.04690  -1.04277  -1.03886
 Alpha  occ. eigenvalues --   -1.03433  -1.03347  -1.02800  -1.02527  -1.01880
 Alpha  occ. eigenvalues --   -0.92081  -0.91790  -0.89704  -0.89291  -0.89243
 Alpha  occ. eigenvalues --   -0.88934  -0.88467  -0.87970  -0.87907  -0.87786
 Alpha  occ. eigenvalues --   -0.87627  -0.87451  -0.87348  -0.86924  -0.85093
 Alpha  occ. eigenvalues --   -0.84784  -0.84145  -0.83558  -0.83065  -0.82752
 Alpha  occ. eigenvalues --   -0.82693  -0.82435  -0.81706  -0.81427  -0.80708
 Alpha  occ. eigenvalues --   -0.80248  -0.78882  -0.78445  -0.77358  -0.77064
 Alpha  occ. eigenvalues --   -0.76932  -0.76663  -0.76033  -0.75642  -0.75059
 Alpha  occ. eigenvalues --   -0.74435  -0.72893  -0.72488  -0.71794  -0.71298
 Alpha  occ. eigenvalues --   -0.70147  -0.69456  -0.68980  -0.68617  -0.67751
 Alpha  occ. eigenvalues --   -0.67380  -0.67319  -0.67005  -0.65403  -0.65070
 Alpha  occ. eigenvalues --   -0.64982  -0.64761  -0.64559  -0.64444  -0.64435
 Alpha  occ. eigenvalues --   -0.63926  -0.62428  -0.62099  -0.60546  -0.60106
 Alpha  occ. eigenvalues --   -0.59906  -0.59588  -0.59114  -0.58759  -0.58625
 Alpha  occ. eigenvalues --   -0.58208  -0.57696  -0.57445  -0.57399  -0.56991
 Alpha  occ. eigenvalues --   -0.56409  -0.56097  -0.56021  -0.55717  -0.55620
 Alpha  occ. eigenvalues --   -0.55511  -0.55269  -0.54991  -0.54688  -0.54232
 Alpha  occ. eigenvalues --   -0.54000  -0.53700  -0.53420  -0.53314  -0.53052
 Alpha  occ. eigenvalues --   -0.53014  -0.52942  -0.52839  -0.52706  -0.52677
 Alpha  occ. eigenvalues --   -0.52466  -0.52147  -0.52016  -0.51754  -0.51709
 Alpha  occ. eigenvalues --   -0.51467  -0.51329  -0.51010  -0.50637  -0.50267
 Alpha  occ. eigenvalues --   -0.50211  -0.50005  -0.49757  -0.49610  -0.49530
 Alpha  occ. eigenvalues --   -0.49313  -0.49280  -0.49197  -0.49017  -0.48897
 Alpha  occ. eigenvalues --   -0.48713  -0.48605  -0.48534  -0.48372  -0.48141
 Alpha  occ. eigenvalues --   -0.48037  -0.47812  -0.47403  -0.47373  -0.46939
 Alpha  occ. eigenvalues --   -0.46866  -0.46661  -0.46483  -0.46479  -0.46331
 Alpha  occ. eigenvalues --   -0.46296  -0.46054  -0.45936  -0.45828  -0.45632
 Alpha  occ. eigenvalues --   -0.45370  -0.44818  -0.44699  -0.44621  -0.44317
 Alpha  occ. eigenvalues --   -0.44299  -0.44258  -0.44194  -0.44110  -0.43924
 Alpha  occ. eigenvalues --   -0.43835  -0.43751  -0.43618  -0.43511  -0.43374
 Alpha  occ. eigenvalues --   -0.43156  -0.43141  -0.42892  -0.42809  -0.42774
 Alpha  occ. eigenvalues --   -0.42668  -0.42275  -0.42186  -0.41822  -0.41732
 Alpha  occ. eigenvalues --   -0.41651  -0.41454  -0.41260  -0.41233  -0.41020
 Alpha  occ. eigenvalues --   -0.40915  -0.40739  -0.40729  -0.40503  -0.40475
 Alpha  occ. eigenvalues --   -0.40343  -0.40184  -0.40028  -0.39707  -0.39141
 Alpha  occ. eigenvalues --   -0.38647  -0.38024  -0.37866  -0.37481  -0.37451
 Alpha  occ. eigenvalues --   -0.37371  -0.37020  -0.36976  -0.36854  -0.36597
 Alpha  occ. eigenvalues --   -0.36338  -0.35946  -0.34402  -0.34030  -0.33897
 Alpha  occ. eigenvalues --   -0.33715  -0.33304  -0.32954  -0.31439  -0.31153
 Alpha  occ. eigenvalues --   -0.31037  -0.30742  -0.30118  -0.29816  -0.29544
 Alpha  occ. eigenvalues --   -0.29419  -0.29127  -0.29025  -0.24197  -0.23811
 Alpha  occ. eigenvalues --   -0.21241  -0.20892
 Alpha virt. eigenvalues --   -0.08879  -0.08581  -0.01871  -0.01440  -0.00149
 Alpha virt. eigenvalues --    0.00179   0.02093   0.02382   0.02821   0.03499
 Alpha virt. eigenvalues --    0.04599   0.04955   0.04977   0.05302   0.06052

 Mulliken charges:
               1
     1  Mg   0.838798
     2  C   -0.002953
     3  C   -0.093433
     4  C   -0.046479
     5  C   -0.064218
     6  N   -0.256701
     7  C   -0.052512
     8  C   -0.014033
     9  C   -0.087107
    10  C    0.046254
    11  C    0.104702
    12  C    0.053503
    13  C   -0.071638
    14  H    0.034938
    15  N   -0.433222
    16  C    0.168492
    17  C   -0.176314
    18  C   -0.003810
    19  C    0.148594
    20  C    0.109836
    21  C    0.011773
    22  O   -0.250740
    23  C    0.062251
    24  N   -0.340900
    25  C    0.041217
    26  C   -0.028174
    27  C   -0.023720
    28  C    0.074196
    29  C    0.076130
    30  C    0.035474
    31  C   -0.005062
    32  N   -0.310524
    33  C    0.080281
    34  C   -0.169535
    35  C    0.008688
    36  C    0.082993
    37  C    0.127265
    38  C    0.046351
    39  O   -0.187959
    40  C   -0.005553
    41  C    0.213379
    42  O   -0.257875
    43  O   -0.304531
    44  C    0.157755
    45  H   -0.017014
    46  H   -0.017375
    47  H   -0.042015
    48  H    0.001105
    49  H   -0.003622
    50  H    0.025546
    51  H    0.016530
    52  H    0.017069
    53  H    0.011556
    54  H    0.043207
    55  H    0.018320
    56  H    0.018491
    57  H    0.006141
    58  H    0.027116
    59  H    0.041499
    60  H    0.037737
    61  H    0.035842
    62  H    0.033340
    63  H    0.015071
    64  H    0.009856
    65  H    0.022893
    66  H    0.013254
    67  H    0.004954
    68  H    0.005753
    69  H    0.004987
    70  H    0.007256
    71  H    0.014929
    72  H    0.030929
    73  H    0.048166
    74  H    0.008440
    75  H    0.046127
    76  H    0.035430
    77  H    0.043483
    78  H    0.046338
    79  H    0.052891
    80  Mg   0.837562
    81  C   -0.017363
    82  C   -0.088305
    83  C   -0.044099
    84  C   -0.064723
    85  N   -0.254812
    86  C   -0.050054
    87  C   -0.015118
    88  C   -0.090808
    89  C    0.046124
    90  C    0.114243
    91  C    0.062578
    92  C   -0.077724
    93  H    0.033974
    94  N   -0.423812
    95  C    0.163751
    96  C   -0.174602
    97  C   -0.006817
    98  C    0.152298
    99  C    0.099422
   100  C    0.015906
   101  O   -0.251687
   102  C    0.061237
   103  N   -0.350143
   104  C    0.039183
   105  C   -0.021039
   106  C   -0.033637
   107  C    0.089007
   108  C    0.071888
   109  C    0.034659
   110  C   -0.007425
   111  N   -0.323794
   112  C    0.078154
   113  C   -0.164102
   114  C    0.001373
   115  C    0.096103
   116  C    0.131773
   117  C    0.041114
   118  O   -0.189906
   119  C    0.001390
   120  C    0.211045
   121  O   -0.251163
   122  O   -0.305619
   123  C    0.152257
   124  H   -0.020170
   125  H   -0.013741
   126  H   -0.041532
   127  H   -0.000296
   128  H   -0.005023
   129  H    0.024055
   130  H    0.014422
   131  H    0.016888
   132  H    0.013626
   133  H    0.037288
   134  H    0.021394
   135  H    0.019293
   136  H    0.008081
   137  H    0.025872
   138  H    0.039505
   139  H    0.038065
   140  H    0.036507
   141  H    0.033234
   142  H    0.013279
   143  H    0.012479
   144  H    0.024668
   145  H    0.019350
   146  H    0.009867
   147  H    0.006223
   148  H    0.002131
   149  H    0.011112
   150  H    0.016800
   151  H    0.029770
   152  H    0.045276
   153  H    0.008234
   154  H    0.044660
   155  H    0.034015
   156  H    0.043231
   157  H    0.049788
   158  H    0.053259
 Sum of Mulliken charges =  -0.00000

 Dipole moment (field-independent basis, Debye):
    X=             -3.2283    Y=             -3.4452    Z=              0.7356  Tot=              4.7783
 Quadrupole moment (field-independent basis, Debye-Ang):
   XX=           -527.7356   YY=           -534.7367   ZZ=           -457.8563
   XY=             17.7014   XZ=             51.7112   YZ=            -28.4238

 Normal termination of Gaussian 16 at Thu Sep  9 19:26:04 2021.
