 Gaussian 16, Revision A.03,
 Gaussian 16:  ES64L-G16RevA.03 25-Dec-2016

 -----------------------------------
 #p cam-b3lyp/Def2SVP td=(nstates=5)
 -----------------------------------

 --------------------------------
 TDDFT excited states in gaussian
 --------------------------------
 Symbolic Z-matrix:
 Charge =  0 Multiplicity = 1

                         Standard orientation:
 ---------------------------------------------------------------------
 Center     Atomic      Atomic             Coordinates (Angstroms)
 Number     Number       Type             X           Y           Z
 ---------------------------------------------------------------------
      1         12           0       -5.039553   -0.934090    0.148097
      2          6           0       -5.359851    1.984803    2.194969
      3          6           0       -6.084814    0.975581   -2.479383
      4          6           0       -5.201399   -3.589978   -1.577211
      5          6           0       -5.127208   -2.818366    3.078537
      6          7           0       -5.617246    1.197933    0.001824
      7          6           0       -5.639220    2.223372    0.847497
      8          6           0       -5.913455    3.590935    0.153277
      9          6           0       -6.668166    3.065267   -1.149060
     10          6           0       -6.062308    1.675592   -1.236599
     11          6           0       -8.176775    2.932824   -0.967239
     12          6           0       -4.592236    4.345877   -0.215742
     13          6           0       -4.765858    5.819325   -0.595427
     14          1           0       -3.732834    6.768478   -0.209010
     15          7           0       -5.090334   -1.188525   -1.810355
     16          6           0       -5.531849   -0.298610   -2.731443
     17          6           0       -5.365220   -0.955719   -4.045643
     18          6           0       -4.968724   -2.370149   -3.800135
     19          6           0       -5.098113   -2.447617   -2.367433
     20          6           0       -5.530449   -0.239239   -5.350674
     21          6           0       -4.551188   -3.479385   -4.713038
     22          8           0       -4.474182   -4.692880   -4.317978
     23          6           0       -4.317081   -3.117151   -6.122656
     24          7           0       -5.369199   -2.933983    0.647493
     25          6           0       -5.331192   -3.893118   -0.283958
     26          6           0       -5.311492   -5.257880    0.338117
     27          6           0       -5.097943   -5.027073    1.903645
     28          6           0       -5.114875   -3.478600    1.918362
     29          6           0       -6.566246   -6.113312    0.114866
     30          6           0       -3.902948   -5.757950    2.565629
     31          6           0       -2.601698   -5.190976    2.043723
     32          7           0       -5.033695   -0.518560    2.278436
     33          6           0       -5.097666   -1.455081    3.320314
     34          6           0       -5.175804   -0.694227    4.580894
     35          6           0       -5.168526    0.640691    4.181161
     36          6           0       -5.117250    0.709137    2.759550
     37          6           0       -5.299925   -1.251333    5.884221
     38          6           0       -5.216994    2.024941    4.623157
     39          8           0       -5.173988    2.587601    5.718172
     40          6           0       -5.465737    2.948939    3.350294
     41          6           0       -4.479327    4.083163    3.412272
     42          8           0       -3.255898    3.874883    3.281098
     43          8           0       -5.140893    5.250064    3.377424
     44          6           0       -4.218836    6.416745    3.406051
     45          1           0       -6.624611    1.412710   -3.321689
     46          1           0       -5.148911   -4.531342   -2.128135
     47          1           0       -5.072025   -3.337778    4.036984
     48          1           0       -6.563038    4.263172    0.714137
     49          1           0       -6.408897    3.648037   -2.032734
     50          1           0       -8.469205    3.098857    0.069506
     51          1           0       -8.418454    1.914558   -1.272555
     52          1           0       -8.709117    3.587116   -1.658102
     53          1           0       -4.206456    3.955804   -1.157590
     54          1           0       -3.863380    4.265044    0.591451
     55          1           0       -5.751078    6.190573   -0.311837
     56          1           0       -4.750115    5.896003   -1.682659
     57          1           0       -5.984194    0.741623   -5.214404
     58          1           0       -6.263479   -0.799387   -5.930855
     59          1           0       -4.594046   -0.175172   -5.905090
     60          1           0       -5.228878   -2.690024   -6.540673
     61          1           0       -3.939937   -4.017749   -6.605912
     62          1           0       -3.562928   -2.330738   -6.164565
     63          1           0       -4.486455   -5.853134   -0.051001
     64          1           0       -5.961809   -5.348375    2.486032
     65          1           0       -6.362293   -7.075236   -0.356103
     66          1           0       -7.271034   -5.529806   -0.476814
     67          1           0       -7.149905   -6.311858    1.013386
     68          1           0       -3.917085   -6.816796    2.309519
     69          1           0       -3.899426   -5.679735    3.652883
     70          1           0       -2.455427   -5.735461    1.111536
     71          1           0       -1.790863   -5.392058    2.744668
     72          1           0       -2.700121   -4.134792    1.792176
     73          1           0       -4.617075   -0.690246    6.522082
     74          1           0       -5.059564   -2.314267    5.885038
     75          1           0       -6.354114   -1.061452    6.085433
     76          1           0       -6.495828    3.298355    3.413079
     77          1           0       -4.515177    7.039432    4.250253
     78          1           0       -4.252496    6.862779    2.411905
     79          1           0       -3.180205    6.204130    3.661746
     80         12           0        5.523075   -0.330120   -0.088982
     81          6           0        3.404763    1.875251   -1.967314
     82          6           0        7.799496    2.206876    0.038164
     83          6           0        7.590137   -2.381048    1.171337
     84          6           0        3.627368   -2.979775   -1.326439
     85          7           0        5.490982    1.728534   -0.897165
     86          6           0        4.607387    2.476342   -1.540885
     87          6           0        5.002123    3.972160   -1.668449
     88          6           0        6.593979    3.813592   -1.528010
     89          6           0        6.640116    2.521649   -0.714726
     90          6           0        7.293691    3.568202   -2.854478
     91          6           0        4.407717    4.848080   -0.510236
     92          6           0        4.492890    6.358931   -0.737910
     93          1           0        3.404182    7.199261   -0.246971
     94          7           0        7.191863   -0.005799    0.935009
     95          6           0        7.979147    1.089044    0.882269
     96          6           0        9.092745    0.828748    1.807645
     97          6           0        8.986169   -0.576293    2.286399
     98          6           0        7.906941   -1.059161    1.448436
     99          6           0       10.074899    1.887582    2.217141
    100          6           0        9.740406   -1.359843    3.317606
    101          8           0        9.638358   -2.634698    3.402177
    102          6           0       10.672992   -0.601714    4.164364
    103          7           0        5.734826   -2.392598   -0.242894
    104          6           0        6.685676   -3.043555    0.449976
    105          6           0        6.472162   -4.537571    0.397910
    106          6           0        5.036312   -4.743145   -0.275619
    107          6           0        4.691863   -3.271084   -0.591492
    108          6           0        7.518709   -5.332333   -0.382782
    109          6           0        4.002690   -5.590745    0.515527
    110          6           0        3.589766   -4.859612    1.772630
    111          7           0        3.715648   -0.538548   -1.254232
    112          6           0        3.110476   -1.740537   -1.682104
    113          6           0        1.968115   -1.370535   -2.542653
    114          6           0        2.002084    0.031719   -2.574631
    115          6           0        3.100966    0.501794   -1.805870
    116          6           0        1.099283   -2.280372   -3.208577
    117          6           0        1.364536    1.220815   -3.092569
    118          8           0        0.339083    1.447665   -3.733452
    119          6           0        2.319377    2.463184   -2.825733
    120          6           0        1.487131    3.571580   -2.241470
    121          8           0        0.962556    3.444825   -1.121044
    122          8           0        1.626549    4.674082   -3.000034
    123          6           0        0.828520    5.804333   -2.454604
    124          1           0        8.671780    2.854058   -0.057494
    125          1           0        8.207730   -3.129193    1.673674
    126          1           0        2.928546   -3.745111   -1.670806
    127          1           0        4.756352    4.427238   -2.620440
    128          1           0        7.024437    4.635829   -0.962329
    129          1           0        6.589815    3.422771   -3.660426
    130          1           0        7.893241    2.678875   -2.710702
    131          1           0        7.999641    4.377049   -3.063584
    132          1           0        5.050041    4.754947    0.374917
    133          1           0        3.392154    4.570236   -0.305141
    134          1           0        4.729174    6.606056   -1.780042
    135          1           0        5.342190    6.747949   -0.171018
    136          1           0       10.000517    2.774739    1.576188
    137          1           0       11.075715    1.490350    2.016061
    138          1           0       10.002142    2.142513    3.276568
    139          1           0       11.410263   -0.107061    3.536511
    140          1           0       11.050168   -1.317572    4.897278
    141          1           0       10.115221    0.189437    4.677763
    142          1           0        6.456603   -4.960963    1.394705
    143          1           0        5.110288   -5.262944   -1.242146
    144          1           0        8.006683   -6.121352    0.220028
    145          1           0        8.254369   -4.639857   -0.769840
    146          1           0        7.153025   -5.811509   -1.289358
    147          1           0        4.452936   -6.532765    0.838053
    148          1           0        3.116213   -5.837611   -0.059107
    149          1           0        4.388764   -5.109391    2.477110
    150          1           0        2.625452   -5.219364    2.125783
    151          1           0        3.610953   -3.774089    1.621541
    152          1           0        0.093693   -1.903639   -3.076786
    153          1           0        1.201688   -3.289067   -2.813859
    154          1           0        1.478264   -2.199173   -4.230859
    155          1           0        2.764574    2.745243   -3.780623
    156          1           0        0.173065    6.150480   -3.259749
    157          1           0        1.566334    6.527744   -2.059575
    158          1           0        0.107855    5.579740   -1.677018
 ---------------------------------------------------------------------

 SCF Done:  E(RCAM-B3LYP) =  -4069.81163928     A.U. after   19 cycles

 Excitation energies and oscillator strengths:

 Excited State   1:      Singlet-A      1.6583 eV  747.68 nm  f=0.1997  <S**2>=0.000
     309 -> 315       -0.12985
     310 -> 316        0.10813
     311 -> 313        0.52615
     312 -> 314        0.44180
 This state for optimization and/or second-order correction.
 Total Energy, E(TD-HF/TD-DFT) =  -4069.75069957
 Copying the excited state density for this state as the 1-particle RhoCI density.

 Excited State   2:      Singlet-A      1.6941 eV  731.86 nm  f=0.5621  <S**2>=0.000
     309 -> 315        0.11434
     310 -> 316        0.13654
     311 -> 313       -0.44040
     312 -> 314        0.52448

 Excited State   3:      Singlet-A      2.1810 eV  568.46 nm  f=0.0137  <S**2>=0.000
     309 -> 313        0.55628
     310 -> 314        0.32577
     311 -> 315        0.23260
     312 -> 316       -0.13489

 Excited State   4:      Singlet-A      2.1938 eV  565.15 nm  f=0.1642  <S**2>=0.000
     309 -> 313       -0.32261
     310 -> 314        0.55227
     311 -> 315       -0.14072
     312 -> 316       -0.24111

 Excited State   5:      Singlet-A      2.4158 eV  513.21 nm  f=0.0000  <S**2>=0.000
     312 -> 313        0.70623

 The electronic state is 1-A.
 Alpha  occ. eigenvalues --  -46.87563 -46.87273 -19.26323 -19.25838 -19.19069
 Alpha  occ. eigenvalues --  -19.18628 -19.18506 -19.18380 -19.18049 -19.17710
 Alpha  occ. eigenvalues --  -14.42404 -14.41933 -14.41270 -14.40973 -14.39259
 Alpha  occ. eigenvalues --  -14.38882 -14.38508 -14.38078 -10.39007 -10.38575
 Alpha  occ. eigenvalues --  -10.35305 -10.35013 -10.34220 -10.33928 -10.31786
 Alpha  occ. eigenvalues --  -10.31308 -10.31228 -10.30935 -10.30900 -10.30381
 Alpha  occ. eigenvalues --  -10.30312 -10.30279 -10.30062 -10.30045 -10.30038
 Alpha  occ. eigenvalues --  -10.29810 -10.29747 -10.29491 -10.29342 -10.29318
 Alpha  occ. eigenvalues --  -10.29153 -10.28752 -10.28637 -10.28569 -10.28322
 Alpha  occ. eigenvalues --  -10.28236 -10.28145 -10.28067 -10.27923 -10.27847
 Alpha  occ. eigenvalues --  -10.27625 -10.27583 -10.27425 -10.27398 -10.27383
 Alpha  occ. eigenvalues --  -10.27380 -10.27299 -10.27291 -10.27219 -10.27165
 Alpha  occ. eigenvalues --  -10.27123 -10.27087 -10.27009 -10.26907 -10.26892
 Alpha  occ. eigenvalues --  -10.26687 -10.26574 -10.26325 -10.26094 -10.26034
 Alpha  occ. eigenvalues --  -10.25977 -10.25946 -10.25931 -10.25837 -10.25812
 Alpha  occ. eigenvalues --  -10.25764 -10.25555 -10.25446 -10.25326 -10.25145
 Alpha  occ. eigenvalues --  -10.24800 -10.24621 -10.24605 -10.24481 -10.24344
 Alpha  occ. eigenvalues --  -10.24329  -3.16312  -3.16012  -1.91194  -1.90893
 Alpha  occ. eigenvalues --   -1.90783  -1.90620  -1.90481  -1.90323  -1.16606
 Alpha  occ. eigenvalues --   -1.16175  -1.08658  -1.08171  -1.06880  -1.06869
 Alpha  occ. eigenvalues --   -1.06790  -1.06139  -1.04407  -1.04067  -1.03574
 Alpha  occ. eigenvalues --   -1.03281  -1.02950  -1.02737  -1.02024  -1.01920
 Alpha  occ. eigenvalues --   -0.91914  -0.91483  -0.89406  -0.89126  -0.89070
 Alpha  occ. eigenvalues --   -0.88689  -0.88132  -0.87900  -0.87712  -0.87595
 Alpha  occ. eigenvalues --   -0.87407  -0.87175  -0.87034  -0.86765  -0.84916
 Alpha  occ. eigenvalues --   -0.84501  -0.83792  -0.83587  -0.82845  -0.82576
 Alpha  occ. eigenvalues --   -0.82517  -0.82185  -0.81546  -0.81141  -0.80375
 Alpha  occ. eigenvalues --   -0.80130  -0.78551  -0.78300  -0.77061  -0.76832
 Alpha  occ. eigenvalues --   -0.76787  -0.76499  -0.75778  -0.75468  -0.74729
 Alpha  occ. eigenvalues --   -0.74511  -0.72614  -0.72310  -0.71507  -0.71224
 Alpha  occ. eigenvalues --   -0.69664  -0.69579  -0.68748  -0.68404  -0.67525
 Alpha  occ. eigenvalues --   -0.67174  -0.67109  -0.66724  -0.65195  -0.64798
 Alpha  occ. eigenvalues --   -0.64692  -0.64582  -0.64394  -0.64181  -0.64120
 Alpha  occ. eigenvalues --   -0.63855  -0.62227  -0.61856  -0.60254  -0.59971
 Alpha  occ. eigenvalues --   -0.59715  -0.59307  -0.58913  -0.58528  -0.58351
 Alpha  occ. eigenvalues --   -0.58041  -0.57496  -0.57158  -0.57114  -0.56874
 Alpha  occ. eigenvalues --   -0.56123  -0.55837  -0.55836  -0.55528  -0.55380
 Alpha  occ. eigenvalues --   -0.55175  -0.55064  -0.54951  -0.54418  -0.54119
 Alpha  occ. eigenvalues --   -0.53829  -0.53398  -0.53148  -0.53066  -0.52852
 Alpha  occ. eigenvalues --   -0.52818  -0.52741  -0.52585  -0.52460  -0.52307
 Alpha  occ. eigenvalues --   -0.52272  -0.52102  -0.51806  -0.51575  -0.51480
 Alpha  occ. eigenvalues --   -0.51140  -0.51116  -0.50755  -0.50387  -0.50072
 Alpha  occ. eigenvalues --   -0.49897  -0.49786  -0.49649  -0.49440  -0.49404
 Alpha  occ. eigenvalues --   -0.49128  -0.49050  -0.49047  -0.48742  -0.48645
 Alpha  occ. eigenvalues --   -0.48493  -0.48315  -0.48262  -0.48162  -0.48053
 Alpha  occ. eigenvalues --   -0.47986  -0.47521  -0.47242  -0.47038  -0.46837
 Alpha  occ. eigenvalues --   -0.46625  -0.46472  -0.46361  -0.46188  -0.46078
 Alpha  occ. eigenvalues --   -0.46006  -0.45896  -0.45760  -0.45730  -0.45393
 Alpha  occ. eigenvalues --   -0.45129  -0.44822  -0.44451  -0.44396  -0.44140
 Alpha  occ. eigenvalues --   -0.44070  -0.44066  -0.43997  -0.43869  -0.43730
 Alpha  occ. eigenvalues --   -0.43639  -0.43557  -0.43502  -0.43309  -0.43057
 Alpha  occ. eigenvalues --   -0.42929  -0.42877  -0.42838  -0.42586  -0.42464
 Alpha  occ. eigenvalues --   -0.42317  -0.42240  -0.41878  -0.41614  -0.41610
 Alpha  occ. eigenvalues --   -0.41374  -0.41249  -0.41079  -0.40917  -0.40696
 Alpha  occ. eigenvalues --   -0.40635  -0.40611  -0.40447  -0.40409  -0.40370
 Alpha  occ. eigenvalues --   -0.40175  -0.40132  -0.39705  -0.39328  -0.39131
 Alpha  occ. eigenvalues --   -0.38262  -0.38083  -0.37564  -0.37275  -0.37177
 Alpha  occ. eigenvalues --   -0.37112  -0.36898  -0.36762  -0.36706  -0.36264
 Alpha  occ. eigenvalues --   -0.36133  -0.35743  -0.34165  -0.33795  -0.33764
 Alpha  occ. eigenvalues --   -0.33254  -0.33087  -0.32694  -0.31187  -0.30913
 Alpha  occ. eigenvalues --   -0.30886  -0.30554  -0.29953  -0.29571  -0.29245
 Alpha  occ. eigenvalues --   -0.29137  -0.28945  -0.28826  -0.23946  -0.23581
 Alpha  occ. eigenvalues --   -0.21030  -0.20636
 Alpha virt. eigenvalues --   -0.08710  -0.08277  -0.01593  -0.01269   0.00051
 Alpha virt. eigenvalues --    0.00433   0.02261   0.02659   0.03388   0.03788
 Alpha virt. eigenvalues --    0.04815   0.05174   0.05234   0.05593   0.06243

 Mulliken charges:
               1
     1  Mg   0.843534
     2  C   -0.000611
     3  C   -0.090469
     4  C   -0.047520
     5  C   -0.064991
     6  N   -0.256611
     7  C   -0.050944
     8  C   -0.015282
     9  C   -0.087910
    10  C    0.048351
    11  C    0.105084
    12  C    0.053011
    13  C   -0.070414
    14  H    0.030881
    15  N   -0.433113
    16  C    0.171897
    17  C   -0.173527
    18  C   -0.004111
    19  C    0.148516
    20  C    0.110333
    21  C    0.011642
    22  O   -0.252099
    23  C    0.061369
    24  N   -0.341168
    25  C    0.041453
    26  C   -0.027818
    27  C   -0.023598
    28  C    0.074508
    29  C    0.076597
    30  C    0.035625
    31  C   -0.004658
    32  N   -0.310312
    33  C    0.080416
    34  C   -0.170556
    35  C    0.007717
    36  C    0.083778
    37  C    0.127447
    38  C    0.046209
    39  O   -0.190103
    40  C   -0.005831
    41  C    0.211691
    42  O   -0.253601
    43  O   -0.305515
    44  C    0.158429
    45  H   -0.018453
    46  H   -0.018527
    47  H   -0.043058
    48  H   -0.000616
    49  H   -0.003736
    50  H    0.024760
    51  H    0.015966
    52  H    0.015540
    53  H    0.017238
    54  H    0.048269
    55  H    0.016565
    56  H    0.017075
    57  H    0.005710
    58  H    0.024568
    59  H    0.044765
    60  H    0.036768
    61  H    0.033481
    62  H    0.035730
    63  H    0.014748
    64  H    0.008698
    65  H    0.021960
    66  H    0.012656
    67  H    0.004066
    68  H    0.004863
    69  H    0.004484
    70  H    0.006383
    71  H    0.016423
    72  H    0.031413
    73  H    0.046849
    74  H    0.008095
    75  H    0.044936
    76  H    0.033928
    77  H    0.041278
    78  H    0.045510
    79  H    0.053904
    80  Mg   0.839512
    81  C   -0.015996
    82  C   -0.087760
    83  C   -0.045460
    84  C   -0.064871
    85  N   -0.254606
    86  C   -0.049526
    87  C   -0.015425
    88  C   -0.090589
    89  C    0.046160
    90  C    0.114501
    91  C    0.062327
    92  C   -0.077765
    93  H    0.034892
    94  N   -0.423425
    95  C    0.163359
    96  C   -0.174580
    97  C   -0.007649
    98  C    0.152346
    99  C    0.099428
   100  C    0.015778
   101  O   -0.253226
   102  C    0.061078
   103  N   -0.350095
   104  C    0.037605
   105  C   -0.019845
   106  C   -0.034798
   107  C    0.088861
   108  C    0.073741
   109  C    0.034587
   110  C   -0.007717
   111  N   -0.324077
   112  C    0.078536
   113  C   -0.162870
   114  C    0.000934
   115  C    0.097308
   116  C    0.130089
   117  C    0.042987
   118  O   -0.191449
   119  C    0.000913
   120  C    0.209249
   121  O   -0.247008
   122  O   -0.306370
   123  C    0.151938
   124  H   -0.019906
   125  H   -0.015641
   126  H   -0.039895
   127  H   -0.001451
   128  H   -0.004275
   129  H    0.021951
   130  H    0.014352
   131  H    0.015980
   132  H    0.014681
   133  H    0.039448
   134  H    0.019834
   135  H    0.019607
   136  H    0.008676
   137  H    0.025904
   138  H    0.040161
   139  H    0.038037
   140  H    0.036352
   141  H    0.034331
   142  H    0.014443
   143  H    0.012401
   144  H    0.024991
   145  H    0.011437
   146  H    0.005576
   147  H    0.005829
   148  H    0.004241
   149  H    0.010732
   150  H    0.017670
   151  H    0.030905
   152  H    0.046593
   153  H    0.011024
   154  H    0.045404
   155  H    0.033874
   156  H    0.041030
   157  H    0.049806
   158  H    0.054908
 Sum of Mulliken charges =  -0.00000

 Dipole moment (field-independent basis, Debye):
    X=              2.0889    Y=              2.9170    Z=             -4.1256  Tot=              5.4674
 Quadrupole moment (field-independent basis, Debye-Ang):
   XX=           -467.5079   YY=           -466.7518   ZZ=           -528.2485
   XY=             24.2655   XZ=             11.7536   YZ=            -25.1743

 Normal termination of Gaussian 16 at Fri Sep 10 16:27:37 2021.
