 Gaussian 16, Revision A.03,
 Gaussian 16:  ES64L-G16RevA.03 25-Dec-2016

 -----------------------------------
 #p cam-b3lyp/Def2SVP td=(nstates=5)
 -----------------------------------

 --------------------------------
 TDDFT excited states in gaussian
 --------------------------------
 Symbolic Z-matrix:
 Charge =  0 Multiplicity = 1

                         Standard orientation:
 ---------------------------------------------------------------------
 Center     Atomic      Atomic             Coordinates (Angstroms)
 Number     Number       Type             X           Y           Z
 ---------------------------------------------------------------------
      1         12           0        5.489695   -0.397021    0.239962
      2          6           0        5.560547    2.741558   -1.479491
      3          6           0        6.204593    1.322410    3.099253
      4          6           0        5.880792   -3.189051    1.691937
      5          6           0        5.908927   -1.936279   -2.858519
      6          7           0        5.816031    1.757049    0.632564
      7          6           0        5.756170    2.863407   -0.101982
      8          6           0        5.845489    4.170439    0.741264
      9          6           0        6.601309    3.593250    2.020946
     10          6           0        6.153523    2.144809    1.934743
     11          6           0        8.121348    3.645136    1.905655
     12          6           0        4.433447    4.734055    1.115703
     13          6           0        4.423676    6.168502    1.652008
     14          1           0        3.306447    7.036102    1.310809
     15          7           0        5.489353   -0.852555    2.162288
     16          6           0        5.789568   -0.023771    3.191013
     17          6           0        5.645120   -0.831887    4.420957
     18          6           0        5.421505   -2.246490    4.012313
     19          6           0        5.616909   -2.155742    2.587898
     20          6           0        5.675081   -0.245512    5.799005
     21          6           0        5.095423   -3.485688    4.784447
     22          8           0        5.172320   -4.651106    4.264388
     23          6           0        4.764778   -3.303856    6.209457
     24          7           0        6.063510   -2.284482   -0.442580
     25          6           0        6.096467   -3.336223    0.383094
     26          6           0        6.256592   -4.620649   -0.374897
     27          6           0        6.082060   -4.248133   -1.917791
     28          6           0        5.924266   -2.714298   -1.773845
     29          6           0        7.589965   -5.354156   -0.174663
     30          6           0        5.005311   -5.029035   -2.712288
     31          6           0        3.628151   -4.665393   -2.204064
     32          7           0        5.523388    0.240988   -1.834370
     33          6           0        5.735172   -0.566209   -2.961426
     34          6           0        5.777855    0.329126   -4.132161
     35          6           0        5.603357    1.604927   -3.599499
     36          6           0        5.486969    1.514905   -2.182939
     37          6           0        6.017043   -0.068588   -5.477169
     38          6           0        5.512805    3.025588   -3.895099
     39          8           0        5.450922    3.694206   -4.927869
     40          6           0        5.603501    3.829546   -2.523512
     41          6           0        4.498431    4.850391   -2.521121
     42          8           0        3.302112    4.498048   -2.475941
     43          8           0        5.021756    6.071589   -2.333111
     44          6           0        3.975545    7.127912   -2.290921
     45          1           0        6.656806    1.722756    4.008741
     46          1           0        5.912819   -4.184078    2.140638
     47          1           0        5.951841   -2.353054   -3.866443
     48          1           0        6.437080    4.965184    0.286484
     49          1           0        6.242093    4.046602    2.944611
     50          1           0        8.434978    3.951830    0.907910
     51          1           0        8.464084    2.632231    2.117901
     52          1           0        8.547740    4.275511    2.686420
     53          1           0        4.056346    4.205980    1.991484
     54          1           0        3.751806    4.661628    0.267502
     55          1           0        5.371265    6.672434    1.459561
     56          1           0        4.355214    6.126243    2.739081
     57          1           0        6.020092    0.787626    5.787220
     58          1           0        6.442609   -0.781852    6.356632
     59          1           0        4.715702   -0.342896    6.307376
     60          1           0        5.604658   -2.827721    6.715861
     61          1           0        4.472639   -4.286501    6.578123
     62          1           0        3.925413   -2.612741    6.291769
     63          1           0        5.489083   -5.339926   -0.092058
     64          1           0        6.999668   -4.409847   -2.483934
     65          1           0        7.477200   -6.377346    0.184600
     66          1           0        8.199592   -4.764458    0.509371
     67          1           0        8.228349   -5.391053   -1.057002
     68          1           0        5.128746   -6.101415   -2.564946
     69          1           0        5.037124   -4.835771   -3.784616
     70          1           0        3.506685   -5.319117   -1.341090
     71          1           0        2.874416   -4.876913   -2.963244
     72          1           0        3.596143   -3.637779   -1.841475
     73          1           0        5.301568    0.480285   -6.089380
     74          1           0        5.898724   -1.145070   -5.598779
     75          1           0        7.050276    0.254743   -5.602644
     76          1           0        6.589138    4.293131   -2.496483
     77          1           0        4.233571    7.865758   -3.050683
     78          1           0        3.918119    7.466013   -1.256129
     79          1           0        2.978887    6.832687   -2.620853
     80         12           0       -5.072618   -0.972959    0.000278
     81          6           0       -7.654599    1.515345    0.144572
     82          6           0       -2.813646    1.581946    0.064671
     83          6           0       -2.794692   -3.104520   -0.578440
     84          6           0       -7.476716   -3.199138   -1.187204
     85          7           0       -5.324205    1.222543    0.093778
     86          6           0       -6.351333    2.051095    0.207168
     87          6           0       -5.959191    3.528224    0.478953
     88          6           0       -4.476541    3.500726   -0.137371
     89          6           0       -4.162794    2.017365    0.046723
     90          6           0       -4.436538    3.816556   -1.623303
     91          6           0       -5.938403    3.869044    2.010429
     92          6           0       -5.867073    5.362593    2.335963
     93          1           0       -6.581860    5.853796    3.510819
     94          7           0       -3.108552   -0.856170    0.259822
     95          6           0       -2.355737    0.263696    0.281132
     96          6           0       -0.969744   -0.187000    0.481357
     97          6           0       -0.945115   -1.673352    0.411619
     98          6           0       -2.308240   -1.940491   -0.001440
     99          6           0        0.156159    0.756607    0.790162
    100          6           0        0.131179   -2.685988    0.661356
    101          8           0       -0.002695   -3.911416    0.310303
    102          6           0        1.383215   -2.181790    1.244182
    103          7           0       -5.076114   -2.812455   -0.968519
    104          6           0       -3.961245   -3.561230   -1.034384
    105          6           0       -4.268043   -4.953837   -1.531300
    106          6           0       -5.863601   -5.059474   -1.555790
    107          6           0       -6.219228   -3.616499   -1.135349
    108          6           0       -3.713782   -5.304655   -2.911920
    109          6           0       -6.503089   -6.237077   -0.770327
    110          6           0       -6.285216   -6.046475    0.713444
    111          7           0       -7.215372   -0.946830   -0.275395
    112          6           0       -8.019029   -1.976808   -0.811455
    113          6           0       -9.396051   -1.450173   -0.905766
    114          6           0       -9.292777   -0.132229   -0.435820
    115          6           0       -7.942729    0.149608   -0.093120
    116          6           0      -10.521846   -2.152519   -1.420950
    117          6           0      -10.016938    1.088079   -0.161720
    118          8           0      -11.202580    1.416423   -0.175614
    119          6           0       -8.966009    2.249803    0.107261
    120          6           0       -9.393190    2.984396    1.348386
    121          8           0       -9.387843    2.414305    2.453645
    122          8           0       -9.528071    4.292121    1.061975
    123          6           0       -9.939936    5.064407    2.264371
    124          1           0       -2.030598    2.310074   -0.148744
    125          1           0       -2.068011   -3.911684   -0.696371
    126          1           0       -8.301508   -3.862892   -1.455234
    127          1           0       -6.564185    4.261755   -0.040357
    128          1           0       -3.793806    4.110451    0.448674
    129          1           0       -5.427381    3.891618   -2.046052
    130          1           0       -3.889981    3.003145   -2.082316
    131          1           0       -3.842200    4.717330   -1.801357
    132          1           0       -4.983350    3.537728    2.438043
    133          1           0       -6.780136    3.430130    2.509894
    134          1           0       -6.090378    5.986124    1.461737
    135          1           0       -4.833870    5.613956    2.587584
    136          1           0       -0.133386    1.799848    0.613467
    137          1           0        0.944698    0.565225    0.054330
    138          1           0        0.565013    0.610888    1.792298
    139          1           0        1.805067   -1.421477    0.591182
    140          1           0        1.995463   -3.066149    1.431124
    141          1           0        1.152622   -1.687687    2.194602
    142          1           0       -3.876724   -5.701615   -0.852468
    143          1           0       -6.247496   -5.192618   -2.577910
    144          1           0       -3.062708   -6.199159   -2.906480
    145          1           0       -3.176936   -4.445890   -3.292512
    146          1           0       -4.464631   -5.468098   -3.683098
    147          1           0       -6.016707   -7.178609   -1.037014
    148          1           0       -7.564313   -6.357562   -0.960810
    149          1           0       -5.277122   -6.442742    0.867761
    150          1           0       -7.021845   -6.608422    1.284103
    151          1           0       -6.264551   -4.982055    0.974658
    152          1           0      -11.345928   -1.956180   -0.748025
    153          1           0      -10.321168   -3.218597   -1.504581
    154          1           0      -10.618465   -1.675004   -2.399683
    155          1           0       -8.961500    2.897171   -0.770506
    156          1           0      -10.856549    5.601122    2.000842
    157          1           0       -9.060734    5.675423    2.542602
    158          1           0      -10.265383    4.503821    3.132869
 ---------------------------------------------------------------------

 SCF Done:  E(RCAM-B3LYP) =  -4069.81281170     A.U. after   19 cycles

 Excitation energies and oscillator strengths:

 Excited State   1:      Singlet-A      1.6684 eV  743.14 nm  f=0.3753  <S**2>=0.000
     310 -> 316       -0.13930
     311 -> 313        0.39549
     312 -> 314        0.56115
 This state for optimization and/or second-order correction.
 Total Energy, E(TD-HF/TD-DFT) =  -4069.75150009
 Copying the excited state density for this state as the 1-particle RhoCI density.

 Excited State   2:      Singlet-A      1.6781 eV  738.85 nm  f=0.4181  <S**2>=0.000
     309 -> 315        0.14433
     311 -> 313        0.56047
     312 -> 314       -0.39491

 Excited State   3:      Singlet-A      2.1830 eV  567.96 nm  f=0.0249  <S**2>=0.000
     309 -> 313       -0.26489
     310 -> 314        0.58703
     311 -> 315        0.10975
     312 -> 316        0.24619

 Excited State   4:      Singlet-A      2.1978 eV  564.13 nm  f=0.1534  <S**2>=0.000
     309 -> 313        0.58341
     310 -> 314        0.26142
     311 -> 315       -0.25687
     312 -> 316        0.11386

 Excited State   5:      Singlet-A      2.3987 eV  516.88 nm  f=0.0000  <S**2>=0.000
     312 -> 313        0.70653

 The electronic state is 1-A.
 Alpha  occ. eigenvalues --  -46.88124 -46.87485 -19.26664 -19.26240 -19.19427
 Alpha  occ. eigenvalues --  -19.19044 -19.18991 -19.18598 -19.18443 -19.17895
 Alpha  occ. eigenvalues --  -14.42736 -14.42313 -14.41673 -14.41184 -14.39683
 Alpha  occ. eigenvalues --  -14.39176 -14.38877 -14.38427 -10.39471 -10.38970
 Alpha  occ. eigenvalues --  -10.35620 -10.35266 -10.34669 -10.34074 -10.32063
 Alpha  occ. eigenvalues --  -10.31683 -10.31668 -10.31203 -10.31111 -10.30835
 Alpha  occ. eigenvalues --  -10.30833 -10.30761 -10.30389 -10.30238 -10.30176
 Alpha  occ. eigenvalues --  -10.30119 -10.29964 -10.29866 -10.29740 -10.29502
 Alpha  occ. eigenvalues --  -10.29249 -10.29233 -10.29085 -10.28949 -10.28650
 Alpha  occ. eigenvalues --  -10.28556 -10.28536 -10.28415 -10.28222 -10.28047
 Alpha  occ. eigenvalues --  -10.27986 -10.27916 -10.27829 -10.27819 -10.27709
 Alpha  occ. eigenvalues --  -10.27680 -10.27513 -10.27476 -10.27464 -10.27443
 Alpha  occ. eigenvalues --  -10.27381 -10.27312 -10.27291 -10.27246 -10.27174
 Alpha  occ. eigenvalues --  -10.27139 -10.26900 -10.26563 -10.26560 -10.26487
 Alpha  occ. eigenvalues --  -10.26355 -10.26219 -10.26035 -10.26022 -10.26005
 Alpha  occ. eigenvalues --  -10.25762 -10.25725 -10.25706 -10.25472 -10.25285
 Alpha  occ. eigenvalues --  -10.25096 -10.25023 -10.24698 -10.24621 -10.24522
 Alpha  occ. eigenvalues --  -10.24278  -3.16841  -3.16235  -1.91726  -1.91308
 Alpha  occ. eigenvalues --   -1.91150  -1.91117  -1.90705  -1.90542  -1.17015
 Alpha  occ. eigenvalues --   -1.16532  -1.08908  -1.08507  -1.07386  -1.07040
 Alpha  occ. eigenvalues --   -1.06833  -1.06828  -1.04863  -1.04310  -1.03996
 Alpha  occ. eigenvalues --   -1.03488  -1.03488  -1.02866  -1.02659  -1.01936
 Alpha  occ. eigenvalues --   -0.92247  -0.91816  -0.89641  -0.89489  -0.89339
 Alpha  occ. eigenvalues --   -0.88954  -0.88367  -0.88110  -0.88073  -0.87928
 Alpha  occ. eigenvalues --   -0.87629  -0.87500  -0.87498  -0.86940  -0.85273
 Alpha  occ. eigenvalues --   -0.84825  -0.83990  -0.83741  -0.83102  -0.82890
 Alpha  occ. eigenvalues --   -0.82789  -0.82488  -0.81873  -0.81454  -0.80853
 Alpha  occ. eigenvalues --   -0.80289  -0.79029  -0.78447  -0.77438  -0.77157
 Alpha  occ. eigenvalues --   -0.76968  -0.76745  -0.76189  -0.75652  -0.75008
 Alpha  occ. eigenvalues --   -0.74653  -0.72996  -0.72522  -0.71898  -0.71404
 Alpha  occ. eigenvalues --   -0.69858  -0.69620  -0.69136  -0.68655  -0.67886
 Alpha  occ. eigenvalues --   -0.67523  -0.67441  -0.67052  -0.65583  -0.65110
 Alpha  occ. eigenvalues --   -0.65100  -0.64850  -0.64603  -0.64493  -0.64357
 Alpha  occ. eigenvalues --   -0.64052  -0.62578  -0.62137  -0.60643  -0.60175
 Alpha  occ. eigenvalues --   -0.60097  -0.59608  -0.59216  -0.58823  -0.58735
 Alpha  occ. eigenvalues --   -0.58258  -0.57890  -0.57481  -0.57406  -0.57089
 Alpha  occ. eigenvalues --   -0.56556  -0.56296  -0.56027  -0.55753  -0.55743
 Alpha  occ. eigenvalues --   -0.55495  -0.55311  -0.55108  -0.54681  -0.54357
 Alpha  occ. eigenvalues --   -0.54208  -0.53732  -0.53507  -0.53490  -0.53180
 Alpha  occ. eigenvalues --   -0.53069  -0.52997  -0.52976  -0.52745  -0.52526
 Alpha  occ. eigenvalues --   -0.52351  -0.52275  -0.52125  -0.51911  -0.51734
 Alpha  occ. eigenvalues --   -0.51504  -0.51400  -0.51046  -0.50761  -0.50296
 Alpha  occ. eigenvalues --   -0.50200  -0.50020  -0.49806  -0.49760  -0.49715
 Alpha  occ. eigenvalues --   -0.49473  -0.49355  -0.49324  -0.49021  -0.48929
 Alpha  occ. eigenvalues --   -0.48871  -0.48666  -0.48582  -0.48387  -0.48233
 Alpha  occ. eigenvalues --   -0.48171  -0.47904  -0.47514  -0.47407  -0.47000
 Alpha  occ. eigenvalues --   -0.46930  -0.46844  -0.46579  -0.46538  -0.46380
 Alpha  occ. eigenvalues --   -0.46349  -0.46098  -0.46084  -0.45935  -0.45675
 Alpha  occ. eigenvalues --   -0.45303  -0.45060  -0.44834  -0.44709  -0.44374
 Alpha  occ. eigenvalues --   -0.44359  -0.44307  -0.44283  -0.44196  -0.43947
 Alpha  occ. eigenvalues --   -0.43921  -0.43772  -0.43752  -0.43600  -0.43415
 Alpha  occ. eigenvalues --   -0.43252  -0.43216  -0.43026  -0.42795  -0.42739
 Alpha  occ. eigenvalues --   -0.42705  -0.42397  -0.42100  -0.41936  -0.41818
 Alpha  occ. eigenvalues --   -0.41758  -0.41509  -0.41376  -0.41298  -0.41108
 Alpha  occ. eigenvalues --   -0.41034  -0.40806  -0.40627  -0.40595  -0.40566
 Alpha  occ. eigenvalues --   -0.40540  -0.40341  -0.40091  -0.39339  -0.39293
 Alpha  occ. eigenvalues --   -0.38584  -0.38204  -0.38079  -0.37573  -0.37506
 Alpha  occ. eigenvalues --   -0.37446  -0.37107  -0.37026  -0.37023  -0.36649
 Alpha  occ. eigenvalues --   -0.36399  -0.36068  -0.34545  -0.34154  -0.34082
 Alpha  occ. eigenvalues --   -0.33734  -0.33439  -0.32999  -0.31521  -0.31277
 Alpha  occ. eigenvalues --   -0.31135  -0.30799  -0.30307  -0.29802  -0.29704
 Alpha  occ. eigenvalues --   -0.29588  -0.29148  -0.29039  -0.24347  -0.23857
 Alpha  occ. eigenvalues --   -0.21368  -0.20937
 Alpha virt. eigenvalues --   -0.09023  -0.08613  -0.01992  -0.01524  -0.00300
 Alpha virt. eigenvalues --    0.00094   0.01945   0.02137   0.02554   0.03370
 Alpha virt. eigenvalues --    0.04431   0.04719   0.04906   0.05291   0.05746

 Mulliken charges:
               1
     1  Mg   0.817996
     2  C   -0.003580
     3  C   -0.094336
     4  C   -0.047020
     5  C   -0.061515
     6  N   -0.256270
     7  C   -0.054080
     8  C   -0.013171
     9  C   -0.086696
    10  C    0.045550
    11  C    0.104653
    12  C    0.053332
    13  C   -0.071571
    14  H    0.034507
    15  N   -0.432595
    16  C    0.167282
    17  C   -0.178518
    18  C   -0.004359
    19  C    0.146642
    20  C    0.110333
    21  C    0.012012
    22  O   -0.247398
    23  C    0.062728
    24  N   -0.339093
    25  C    0.043420
    26  C   -0.027772
    27  C   -0.024368
    28  C    0.075122
    29  C    0.075941
    30  C    0.034134
    31  C   -0.001313
    32  N   -0.310224
    33  C    0.079671
    34  C   -0.169138
    35  C    0.008578
    36  C    0.081464
    37  C    0.127301
    38  C    0.045893
    39  O   -0.188082
    40  C   -0.005631
    41  C    0.213554
    42  O   -0.260122
    43  O   -0.304016
    44  C    0.157735
    45  H   -0.017316
    46  H   -0.015532
    47  H   -0.040371
    48  H    0.001451
    49  H   -0.004223
    50  H    0.025767
    51  H    0.017169
    52  H    0.017180
    53  H    0.009682
    54  H    0.041369
    55  H    0.019309
    56  H    0.018502
    57  H    0.005840
    58  H    0.027752
    59  H    0.039019
    60  H    0.037576
    61  H    0.037291
    62  H    0.030364
    63  H    0.019680
    64  H    0.009216
    65  H    0.024218
    66  H    0.012030
    67  H    0.004915
    68  H    0.006667
    69  H    0.003253
    70  H    0.015965
    71  H    0.020257
    72  H    0.024589
    73  H    0.047641
    74  H    0.010293
    75  H    0.046427
    76  H    0.035847
    77  H    0.044051
    78  H    0.046357
    79  H    0.052230
    80  Mg   0.837660
    81  C   -0.016881
    82  C   -0.088174
    83  C   -0.045399
    84  C   -0.065060
    85  N   -0.254500
    86  C   -0.049944
    87  C   -0.015161
    88  C   -0.090146
    89  C    0.044857
    90  C    0.114048
    91  C    0.062673
    92  C   -0.077346
    93  H    0.033646
    94  N   -0.423710
    95  C    0.162258
    96  C   -0.173623
    97  C   -0.008169
    98  C    0.152722
    99  C    0.096281
   100  C    0.017774
   101  O   -0.252404
   102  C    0.044555
   103  N   -0.350045
   104  C    0.037755
   105  C   -0.019878
   106  C   -0.034686
   107  C    0.088778
   108  C    0.073680
   109  C    0.034866
   110  C   -0.007596
   111  N   -0.323968
   112  C    0.078149
   113  C   -0.163549
   114  C    0.002133
   115  C    0.095912
   116  C    0.131560
   117  C    0.042064
   118  O   -0.188602
   119  C    0.001033
   120  C    0.211171
   121  O   -0.251393
   122  O   -0.305495
   123  C    0.152224
   124  H   -0.014462
   125  H   -0.016006
   126  H   -0.040976
   127  H   -0.000826
   128  H   -0.004405
   129  H    0.021673
   130  H    0.016636
   131  H    0.017806
   132  H    0.013415
   133  H    0.037235
   134  H    0.020993
   135  H    0.019146
   136  H    0.013470
   137  H    0.033231
   138  H    0.038457
   139  H    0.040276
   140  H    0.049259
   141  H    0.035838
   142  H    0.014124
   143  H    0.012188
   144  H    0.024180
   145  H    0.012136
   146  H    0.005541
   147  H    0.005805
   148  H    0.003420
   149  H    0.010860
   150  H    0.017525
   151  H    0.030250
   152  H    0.045509
   153  H    0.008143
   154  H    0.046750
   155  H    0.035091
   156  H    0.043646
   157  H    0.049332
   158  H    0.053226
 Sum of Mulliken charges =  -0.00000

 Dipole moment (field-independent basis, Debye):
    X=              5.9685    Y=              2.4296    Z=              3.0329  Tot=              7.1221
 Quadrupole moment (field-independent basis, Debye-Ang):
   XX=           -554.7343   YY=           -476.5187   ZZ=           -507.7106
   XY=             16.4835   XZ=             32.7041   YZ=             46.0247

 Normal termination of Gaussian 16 at Sat Sep 11 02:03:26 2021.
