 Gaussian 16, Revision A.03,
 Gaussian 16:  ES64L-G16RevA.03 25-Dec-2016

 -----------------------------------
 #p cam-b3lyp/Def2SVP td=(nstates=5)
 -----------------------------------

 --------------------------------
 TDDFT excited states in gaussian
 --------------------------------
 Symbolic Z-matrix:
 Charge =  0 Multiplicity = 1

                         Standard orientation:
 ---------------------------------------------------------------------
 Center     Atomic      Atomic             Coordinates (Angstroms)
 Number     Number       Type             X           Y           Z
 ---------------------------------------------------------------------
      1         12           0        6.306933   -0.981230    0.224899
      2          6           0        6.715701    2.076419   -1.590564
      3          6           0        7.182594    0.744092    3.035513
      4          6           0        6.395338   -3.751234    1.766288
      5          6           0        6.579321   -2.653693   -2.820480
      6          7           0        6.855120    1.138286    0.553212
      7          6           0        6.915541    2.220904   -0.215852
      8          6           0        7.136791    3.537588    0.587121
      9          6           0        7.820994    2.925519    1.890668
     10          6           0        7.224326    1.529853    1.845609
     11          6           0        9.338701    2.814439    1.787093
     12          6           0        5.789593    4.257431    0.931527
     13          6           0        5.927321    5.701364    1.422895
     14          1           0        4.909054    6.669764    1.045163
     15          7           0        6.248415   -1.372837    2.160376
     16          6           0        6.628260   -0.547691    3.165432
     17          6           0        6.393231   -1.296723    4.418585
     18          6           0        6.024794   -2.692459    4.052158
     19          6           0        6.236360   -2.668013    2.627371
     20          6           0        6.477012   -0.673152    5.777956
     21          6           0        5.566434   -3.865557    4.859549
     22          8           0        5.523572   -5.048578    4.376645
     23          6           0        5.248942   -3.604893    6.275281
     24          7           0        6.683442   -2.939110   -0.393629
     25          6           0        6.601497   -3.961725    0.464583
     26          6           0        6.630220   -5.279316   -0.251705
     27          6           0        6.504070   -4.939868   -1.806894
     28          6           0        6.507139   -3.394142   -1.712061
     29          6           0        7.878258   -6.141519   -0.017146
     30          6           0        5.355727   -5.628744   -2.586110
     31          6           0        4.021531   -5.107070   -2.101471
     32          7           0        6.418569   -0.416566   -1.867883
     33          6           0        6.550691   -1.276935   -2.967421
     34          6           0        6.693337   -0.428679   -4.164995
     35          6           0        6.650638    0.874673   -3.673776
     36          6           0        6.517772    0.842434   -2.256172
     37          6           0        6.896815   -0.891820   -5.494856
     38          6           0        6.711100    2.286885   -4.014156
     39          8           0        6.725247    2.925109   -5.067704
     40          6           0        6.878123    3.120177   -2.667473
     41          6           0        5.886146    4.250562   -2.706450
     42          8           0        4.659258    4.026897   -2.660786
     43          8           0        6.533563    5.415686   -2.551916
     44          6           0        5.603623    6.576446   -2.551703
     45          1           0        7.669338    1.123676    3.936033
     46          1           0        6.320457   -4.729371    2.245953
     47          1           0        6.583780   -3.104526   -3.814553
     48          1           0        7.810885    4.251223    0.113047
     49          1           0        7.506269    3.443113    2.796630
     50          1           0        9.688159    3.054745    0.783075
     51          1           0        9.572222    1.778510    2.033694
     52          1           0        9.824576    3.421278    2.551585
     53          1           0        5.354472    3.799827    1.819969
     54          1           0        5.108728    4.229746    0.080069
     55          1           0        6.923542    6.097040    1.223161
     56          1           0        5.848910    5.701106    2.510117
     57          1           0        6.928472    0.317332    5.737086
     58          1           0        7.181058   -1.268815    6.358658
     59          1           0        5.509967   -0.653432    6.280715
     60          1           0        6.131343   -3.203346    6.773957
     61          1           0        4.853419   -4.539362    6.671738
     62          1           0        4.486208   -2.827508    6.328748
     63          1           0        5.790023   -5.905006    0.046637
     64          1           0        7.402731   -5.214601   -2.359708
     65          1           0        7.656918   -7.135351    0.372740
     66          1           0        8.542616   -5.597356    0.653530
     67          1           0        8.514036   -6.273039   -0.892306
     68          1           0        5.365277   -6.702920   -2.404445
     69          1           0        5.413440   -5.474084   -3.663607
     70          1           0        3.827533   -5.716714   -1.219694
     71          1           0        3.253909   -5.262640   -2.860262
     72          1           0        4.095445   -4.070731   -1.771282
     73          1           0        6.246145   -0.290881   -6.130048
     74          1           0        6.666975   -1.953344   -5.583985
     75          1           0        7.958912   -0.682490   -5.621293
     76          1           0        7.906761    3.478751   -2.646260
     77          1           0        5.941685    7.258709   -3.331744
     78          1           0        5.576338    6.951451   -1.528457
     79          1           0        4.583315    6.376738   -2.880989
     80         12           0       -6.903269   -0.322960   -0.184401
     81          6           0       -4.339309    2.021325    0.715320
     82          6           0       -9.164750    1.887841    1.093372
     83          6           0       -9.135856   -2.547512   -0.550929
     84          6           0       -4.423928   -2.767991   -0.327220
     85          7           0       -6.661039    1.664839    0.754878
     86          6           0       -5.644536    2.481538    0.987424
     87          6           0       -6.055420    3.899328    1.467632
     88          6           0       -7.494555    3.537591    2.081555
     89          6           0       -7.817853    2.306380    1.237599
     90          6           0       -7.437692    3.115276    3.540242
     91          6           0       -6.176740    4.920099    0.282169
     92          6           0       -6.271033    6.387912    0.704530
     93          1           0       -5.635224    7.396900   -0.138183
     94          7           0       -8.880250   -0.160528   -0.245544
     95          6           0       -9.634228    0.812821    0.307068
     96          6           0      -11.029782    0.465449   -0.002634
     97          6           0      -11.047977   -0.878658   -0.641181
     98          6           0       -9.660434   -1.265112   -0.481609
     99          6           0      -12.174638    1.406835    0.235160
    100          6           0      -12.137051   -1.688297   -1.277267
    101          8           0      -11.979006   -2.929726   -1.554229
    102          6           0      -13.425137   -1.009378   -1.480704
    103          7           0       -6.834170   -2.400776   -0.200152
    104          6           0       -7.941419   -3.127576   -0.431851
    105          6           0       -7.601089   -4.579536   -0.669232
    106          6           0       -6.007205   -4.633249   -0.788613
    107          6           0       -5.681606   -3.151720   -0.497992
    108          6           0       -8.063431   -5.556481    0.411601
    109          6           0       -5.419005   -5.281351   -2.071831
    110          6           0       -5.733679   -4.421766   -3.274932
    111          7           0       -4.747111   -0.361263   -0.051837
    112          6           0       -3.908853   -1.496066   -0.112039
    113          6           0       -2.529263   -1.032162    0.140822
    114          6           0       -2.664658    0.347779    0.355086
    115          6           0       -4.034575    0.714485    0.263610
    116          6           0       -1.371325   -1.857994    0.198453
    117          6           0       -1.961475    1.575877    0.648367
    118          8           0       -0.777868    1.896683    0.747839
    119          6           0       -3.029177    2.693201    1.019837
    120          6           0       -2.684978    3.938789    0.250055
    121          8           0       -2.761883    3.956278   -0.991071
    122          8           0       -2.533251    4.961279    1.111380
    123          6           0       -2.201844    6.221374    0.394341
    124          1           0       -9.933060    2.404348    1.669397
    125          1           0       -9.852280   -3.337902   -0.786541
    126          1           0       -3.582570   -3.453038   -0.451661
    127          1           0       -5.418661    4.320925    2.236116
    128          1           0       -8.214910    4.329263    1.892590
    129          1           0       -6.421415    3.014098    3.891054
    130          1           0       -7.952063    2.164568    3.591504
    131          1           0       -8.020213    3.806686    4.155833
    132          1           0       -7.157307    4.798789   -0.195865
    133          1           0       -5.368925    4.795128   -0.412412
    134          1           0       -5.991811    6.533267    1.755171
    135          1           0       -7.318792    6.694991    0.660721
    136          1           0      -11.875433    2.252707    0.866324
    137          1           0      -12.913125    0.866510    0.837275
    138          1           0      -12.647962    1.737051   -0.691976
    139          1           0      -13.804315   -0.659891   -0.523344
    140          1           0      -14.047223   -1.720651   -2.027496
    141          1           0      -13.257801   -0.118958   -2.096945
    142          1           0       -8.035031   -4.931783   -1.596987
    143          1           0       -5.557125   -5.219540    0.025958
    144          1           0       -8.712380   -6.363388    0.021918
    145          1           0       -8.575302   -4.995626    1.182295
    146          1           0       -7.263557   -6.039643    0.970135
    147          1           0       -5.885750   -6.252557   -2.253664
    148          1           0       -4.347452   -5.443359   -2.021654
    149          1           0       -6.749215   -4.730708   -3.540134
    150          1           0       -5.035266   -4.625071   -4.084214
    151          1           0       -5.772689   -3.360969   -3.001347
    152          1           0       -0.593251   -1.341780   -0.348022
    153          1           0       -1.564794   -2.843709   -0.219525
    154          1           0       -1.211497   -1.894625    1.279367
    155          1           0       -2.977057    2.850637    2.097831
    156          1           0       -1.270632    6.599807    0.827127
    157          1           0       -3.098111    6.862997    0.488031
    158          1           0       -1.933208    6.146352   -0.652870
 ---------------------------------------------------------------------

 SCF Done:  E(RCAM-B3LYP) =  -4069.81096037     A.U. after   19 cycles

 Excitation energies and oscillator strengths:

 Excited State   1:      Singlet-A      1.6752 eV  740.12 nm  f=0.4125  <S**2>=0.000
     309 -> 315        0.17344
     311 -> 313        0.68604
     309 <- 315        0.10457
 This state for optimization and/or second-order correction.
 Total Energy, E(TD-HF/TD-DFT) =  -4069.74939824
 Copying the excited state density for this state as the 1-particle RhoCI density.

 Excited State   2:      Singlet-A      1.6797 eV  738.11 nm  f=0.3770  <S**2>=0.000
     310 -> 316        0.17473
     312 -> 314        0.68567
     310 <- 316        0.10456

 Excited State   3:      Singlet-A      2.1840 eV  567.69 nm  f=0.0117  <S**2>=0.000
     309 -> 313        0.54816
     310 -> 314       -0.33705
     311 -> 315       -0.23158
     312 -> 316        0.14177

 Excited State   4:      Singlet-A      2.1918 eV  565.67 nm  f=0.1739  <S**2>=0.000
     309 -> 313        0.33507
     310 -> 314        0.54562
     311 -> 315       -0.14513
     312 -> 316       -0.23711

 Excited State   5:      Singlet-A      2.5900 eV  478.71 nm  f=0.0000  <S**2>=0.000
     312 -> 313        0.70637

 The electronic state is 1-A.
 Alpha  occ. eigenvalues --  -46.87552 -46.87416 -19.26194 -19.25861 -19.18971
 Alpha  occ. eigenvalues --  -19.18618 -19.18539 -19.18524 -19.17892 -19.17805
 Alpha  occ. eigenvalues --  -14.42395 -14.42074 -14.41253 -14.41103 -14.39244
 Alpha  occ. eigenvalues --  -14.39034 -14.38484 -14.38210 -10.38915 -10.38614
 Alpha  occ. eigenvalues --  -10.35297 -10.35161 -10.34071 -10.34020 -10.31615
 Alpha  occ. eigenvalues --  -10.31299 -10.31200 -10.31029 -10.30924 -10.30532
 Alpha  occ. eigenvalues --  -10.30283 -10.30243 -10.30201 -10.30156 -10.30044
 Alpha  occ. eigenvalues --  -10.29889 -10.29783 -10.29590 -10.29334 -10.29286
 Alpha  occ. eigenvalues --  -10.29285 -10.28910 -10.28631 -10.28574 -10.28348
 Alpha  occ. eigenvalues --  -10.28292 -10.28133 -10.28058 -10.27994 -10.27882
 Alpha  occ. eigenvalues --  -10.27746 -10.27568 -10.27442 -10.27424 -10.27377
 Alpha  occ. eigenvalues --  -10.27374 -10.27369 -10.27355 -10.27282 -10.27248
 Alpha  occ. eigenvalues --  -10.27240 -10.27195 -10.27165 -10.27033 -10.26919
 Alpha  occ. eigenvalues --  -10.26771 -10.26595 -10.26333 -10.26210 -10.26154
 Alpha  occ. eigenvalues --  -10.26044 -10.25979 -10.25967 -10.25914 -10.25826
 Alpha  occ. eigenvalues --  -10.25709 -10.25686 -10.25531 -10.25316 -10.25210
 Alpha  occ. eigenvalues --  -10.24750 -10.24630 -10.24582 -10.24503 -10.24475
 Alpha  occ. eigenvalues --  -10.24449  -3.16301  -3.16157  -1.91184  -1.91037
 Alpha  occ. eigenvalues --   -1.90772  -1.90625  -1.90609  -1.90468  -1.16481
 Alpha  occ. eigenvalues --   -1.16201  -1.08493  -1.08256  -1.06930  -1.06871
 Alpha  occ. eigenvalues --   -1.06761  -1.06173  -1.04391  -1.04206  -1.03556
 Alpha  occ. eigenvalues --   -1.03410  -1.02930  -1.02875  -1.02054  -1.02001
 Alpha  occ. eigenvalues --   -0.91868  -0.91602  -0.89389  -0.89223  -0.89062
 Alpha  occ. eigenvalues --   -0.88803  -0.88120  -0.87996  -0.87670  -0.87580
 Alpha  occ. eigenvalues --   -0.87526  -0.87309  -0.87019  -0.86948  -0.84904
 Alpha  occ. eigenvalues --   -0.84609  -0.83774  -0.83662  -0.82836  -0.82679
 Alpha  occ. eigenvalues --   -0.82554  -0.82297  -0.81471  -0.81218  -0.80328
 Alpha  occ. eigenvalues --   -0.80240  -0.78528  -0.78462  -0.77046  -0.76895
 Alpha  occ. eigenvalues --   -0.76795  -0.76580  -0.75733  -0.75567  -0.74702
 Alpha  occ. eigenvalues --   -0.74604  -0.72588  -0.72434  -0.71479  -0.71335
 Alpha  occ. eigenvalues --   -0.69659  -0.69652  -0.68728  -0.68516  -0.67490
 Alpha  occ. eigenvalues --   -0.67298  -0.67103  -0.66835  -0.65169  -0.64906
 Alpha  occ. eigenvalues --   -0.64660  -0.64542  -0.64502  -0.64273  -0.64099
 Alpha  occ. eigenvalues --   -0.63961  -0.62148  -0.61924  -0.60237  -0.60122
 Alpha  occ. eigenvalues --   -0.59699  -0.59430  -0.58882  -0.58642  -0.58310
 Alpha  occ. eigenvalues --   -0.58157  -0.57415  -0.57204  -0.57125  -0.56976
 Alpha  occ. eigenvalues --   -0.56091  -0.55970  -0.55761  -0.55592  -0.55341
 Alpha  occ. eigenvalues --   -0.55195  -0.55133  -0.55028  -0.54367  -0.54183
 Alpha  occ. eigenvalues --   -0.53819  -0.53508  -0.53120  -0.53033  -0.52975
 Alpha  occ. eigenvalues --   -0.52868  -0.52781  -0.52576  -0.52555  -0.52428
 Alpha  occ. eigenvalues --   -0.52298  -0.52175  -0.51750  -0.51579  -0.51560
 Alpha  occ. eigenvalues --   -0.51242  -0.51080  -0.50852  -0.50384  -0.50274
 Alpha  occ. eigenvalues --   -0.49886  -0.49769  -0.49760  -0.49591  -0.49388
 Alpha  occ. eigenvalues --   -0.49166  -0.49090  -0.48995  -0.48863  -0.48742
 Alpha  occ. eigenvalues --   -0.48439  -0.48268  -0.48246  -0.48227  -0.48158
 Alpha  occ. eigenvalues --   -0.48116  -0.47490  -0.47363  -0.47015  -0.46971
 Alpha  occ. eigenvalues --   -0.46604  -0.46469  -0.46458  -0.46176  -0.46160
 Alpha  occ. eigenvalues --   -0.46026  -0.45968  -0.45822  -0.45695  -0.45469
 Alpha  occ. eigenvalues --   -0.45109  -0.44914  -0.44405  -0.44369  -0.44226
 Alpha  occ. eigenvalues --   -0.44195  -0.44023  -0.43972  -0.43840  -0.43827
 Alpha  occ. eigenvalues --   -0.43738  -0.43671  -0.43432  -0.43278  -0.43138
 Alpha  occ. eigenvalues --   -0.43042  -0.42809  -0.42765  -0.42687  -0.42453
 Alpha  occ. eigenvalues --   -0.42405  -0.42278  -0.41862  -0.41695  -0.41545
 Alpha  occ. eigenvalues --   -0.41362  -0.41356  -0.41170  -0.40888  -0.40803
 Alpha  occ. eigenvalues --   -0.40629  -0.40606  -0.40538  -0.40511  -0.40393
 Alpha  occ. eigenvalues --   -0.40264  -0.40137  -0.39809  -0.39327  -0.39194
 Alpha  occ. eigenvalues --   -0.38255  -0.38171  -0.37557  -0.37356  -0.37164
 Alpha  occ. eigenvalues --   -0.37096  -0.37005  -0.36874  -0.36620  -0.36324
 Alpha  occ. eigenvalues --   -0.36097  -0.35817  -0.34141  -0.33924  -0.33685
 Alpha  occ. eigenvalues --   -0.33309  -0.33061  -0.32819  -0.31177  -0.31054
 Alpha  occ. eigenvalues --   -0.30865  -0.30679  -0.29795  -0.29660  -0.29217
 Alpha  occ. eigenvalues --   -0.29100  -0.29087  -0.28960  -0.23927  -0.23715
 Alpha  occ. eigenvalues --   -0.21009  -0.20775
 Alpha virt. eigenvalues --   -0.08680  -0.08422  -0.01579  -0.01402   0.00077
 Alpha virt. eigenvalues --    0.00282   0.02339   0.02552   0.03351   0.03651
 Alpha virt. eigenvalues --    0.04826   0.05085   0.05337   0.05546   0.06272

 Mulliken charges:
               1
     1  Mg   0.842539
     2  C   -0.000862
     3  C   -0.093351
     4  C   -0.046583
     5  C   -0.064706
     6  N   -0.256644
     7  C   -0.051134
     8  C   -0.014829
     9  C   -0.087356
    10  C    0.047443
    11  C    0.105053
    12  C    0.053488
    13  C   -0.070855
    14  H    0.034930
    15  N   -0.432834
    16  C    0.169392
    17  C   -0.176974
    18  C   -0.004276
    19  C    0.148972
    20  C    0.110417
    21  C    0.011976
    22  O   -0.250835
    23  C    0.062467
    24  N   -0.341176
    25  C    0.041137
    26  C   -0.027900
    27  C   -0.023862
    28  C    0.074950
    29  C    0.076456
    30  C    0.035411
    31  C   -0.004562
    32  N   -0.310622
    33  C    0.081013
    34  C   -0.169720
    35  C    0.008262
    36  C    0.084400
    37  C    0.127208
    38  C    0.047030
    39  O   -0.188769
    40  C   -0.005935
    41  C    0.211866
    42  O   -0.253025
    43  O   -0.305633
    44  C    0.157939
    45  H   -0.018385
    46  H   -0.017936
    47  H   -0.042360
    48  H    0.000066
    49  H   -0.004168
    50  H    0.025049
    51  H    0.015935
    52  H    0.015797
    53  H    0.013771
    54  H    0.047538
    55  H    0.016357
    56  H    0.017360
    57  H    0.005712
    58  H    0.025772
    59  H    0.039693
    60  H    0.036978
    61  H    0.034491
    62  H    0.031970
    63  H    0.015594
    64  H    0.008942
    65  H    0.022341
    66  H    0.012520
    67  H    0.004212
    68  H    0.005351
    69  H    0.004545
    70  H    0.007697
    71  H    0.016743
    72  H    0.030668
    73  H    0.047858
    74  H    0.008463
    75  H    0.045304
    76  H    0.034202
    77  H    0.041623
    78  H    0.045653
    79  H    0.054685
    80  Mg   0.837843
    81  C   -0.016569
    82  C   -0.087899
    83  C   -0.045565
    84  C   -0.064947
    85  N   -0.254452
    86  C   -0.049965
    87  C   -0.014987
    88  C   -0.090475
    89  C    0.045648
    90  C    0.114530
    91  C    0.062571
    92  C   -0.077717
    93  H    0.035040
    94  N   -0.423364
    95  C    0.162785
    96  C   -0.174865
    97  C   -0.007968
    98  C    0.151993
    99  C    0.099492
   100  C    0.015466
   101  O   -0.253425
   102  C    0.061236
   103  N   -0.350075
   104  C    0.037360
   105  C   -0.019738
   106  C   -0.034853
   107  C    0.089016
   108  C    0.073746
   109  C    0.034754
   110  C   -0.007636
   111  N   -0.324274
   112  C    0.078659
   113  C   -0.162425
   114  C    0.002689
   115  C    0.096534
   116  C    0.130927
   117  C    0.043182
   118  O   -0.185963
   119  C    0.000311
   120  C    0.212248
   121  O   -0.249360
   122  O   -0.306550
   123  C    0.151999
   124  H   -0.020061
   125  H   -0.015801
   126  H   -0.040286
   127  H   -0.001103
   128  H   -0.004507
   129  H    0.021987
   130  H    0.014344
   131  H    0.015837
   132  H    0.013965
   133  H    0.038331
   134  H    0.020215
   135  H    0.019356
   136  H    0.008511
   137  H    0.025789
   138  H    0.039627
   139  H    0.038063
   140  H    0.036177
   141  H    0.033904
   142  H    0.014307
   143  H    0.012381
   144  H    0.024927
   145  H    0.011465
   146  H    0.005553
   147  H    0.005989
   148  H    0.003663
   149  H    0.010778
   150  H    0.017961
   151  H    0.030464
   152  H    0.047495
   153  H    0.008690
   154  H    0.046382
   155  H    0.033829
   156  H    0.042795
   157  H    0.048629
   158  H    0.055442
 Sum of Mulliken charges =  -0.00000

 Dipole moment (field-independent basis, Debye):
    X=             -1.7340    Y=              2.1217    Z=              6.1301  Tot=              6.7147
 Quadrupole moment (field-independent basis, Debye-Ang):
   XX=           -462.5058   YY=           -476.1668   ZZ=           -512.5226
   XY=            -30.8308   XZ=              7.9570   YZ=             41.9911

 Normal termination of Gaussian 16 at Sat Sep 11 11:03:06 2021.
