 Gaussian 16, Revision A.03,
 Gaussian 16:  ES64L-G16RevA.03 25-Dec-2016

 -----------------------------------
 #p cam-b3lyp/Def2SVP td=(nstates=5)
 -----------------------------------

 --------------------------------
 TDDFT excited states in gaussian
 --------------------------------
 Symbolic Z-matrix:
 Charge =  0 Multiplicity = 1

                         Standard orientation:
 ---------------------------------------------------------------------
 Center     Atomic      Atomic             Coordinates (Angstroms)
 Number     Number       Type             X           Y           Z
 ---------------------------------------------------------------------
      1         12           0        5.286944   -0.597617    0.755184
      2          6           0        5.799243    2.127339   -1.508525
      3          6           0        5.777545    1.620222    3.301468
      4          6           0        5.290110   -3.059657    2.753927
      5          6           0        5.961330   -2.742983   -1.907196
      6          7           0        5.723420    1.572630    0.767844
      7          6           0        5.835549    2.511758   -0.166307
      8          6           0        5.919698    3.954705    0.415239
      9          6           0        6.470129    3.607775    1.870801
     10          6           0        5.929117    2.195230    2.004771
     11          6           0        7.992560    3.560326    1.951140
     12          6           0        4.518828    4.650874    0.483395
     13          6           0        4.551495    6.162174    0.728869
     14          1           0        3.551619    6.998453    0.082160
     15          7           0        5.020321   -0.659846    2.711683
     16          6           0        5.255098    0.341641    3.593268
     17          6           0        4.903151   -0.196657    4.924827
     18          6           0        4.625522   -1.651516    4.768616
     19          6           0        4.997827   -1.856589    3.392130
     20          6           0        4.810103    0.650672    6.156543
     21          6           0        4.116901   -2.694047    5.713373
     22          8           0        4.168811   -3.942146    5.441108
     23          6           0        3.631015   -2.215405    7.020224
     24          7           0        5.796436   -2.609348    0.529370
     25          6           0        5.650745   -3.475511    1.538092
     26          6           0        5.804897   -4.891669    1.068333
     27          6           0        5.846376   -4.826325   -0.526585
     28          6           0        5.787349   -3.288720   -0.701389
     29          6           0        7.045773   -5.635541    1.581061
     30          6           0        4.818214   -5.695787   -1.292966
     31          6           0        3.420772   -5.170355   -1.051771
     32          7           0        5.618575   -0.388792   -1.379636
     33          6           0        5.904098   -1.414109   -2.292804
     34          6           0        6.154672   -0.773605   -3.597041
     35          6           0        6.012872    0.589863   -3.346656
     36          6           0        5.719788    0.790168   -1.967428
     37          6           0        6.524239   -1.443030   -4.796927
     38          6           0        6.065061    1.925681   -3.918253
     39          8           0        6.178527    2.377013   -5.058831
     40          6           0        6.049165    2.981652   -2.726405
     41          6           0        5.031257    4.035856   -3.066735
     42          8           0        3.815293    3.759256   -3.114602
     43          8           0        5.617768    5.242587   -3.048124
     44          6           0        4.655963    6.336540   -3.348711
     45          1           0        6.145187    2.171108    4.169400
     46          1           0        5.193282   -3.945488    3.385088
     47          1           0        6.094460   -3.354090   -2.801779
     48          1           0        6.619597    4.612458   -0.100442
     49          1           0        6.036815    4.253518    2.634330
     50          1           0        8.446468    3.645869    0.963936
     51          1           0        8.230525    2.594443    2.397162
     52          1           0        8.367376    4.311922    2.646405
     53          1           0        4.000295    4.327482    1.385948
     54          1           0        3.941172    4.444484   -0.418294
     55          1           0        5.550366    6.570051    0.571382
     56          1           0        4.349227    6.341109    1.784933
     57          1           0        5.230203    1.642318    5.993146
     58          1           0        5.462416    0.199067    6.903704
     59          1           0        3.791756    0.704280    6.541805
     60          1           0        4.436756   -1.689961    7.533292
     61          1           0        3.223903   -3.089045    7.528026
     62          1           0        2.841835   -1.481089    6.856141
     63          1           0        4.957276   -5.501166    1.378939
     64          1           0        6.811005   -5.142957   -0.923963
     65          1           0        6.814323   -6.559614    2.111368
     66          1           0        7.610614   -4.952123    2.214452
     67          1           0        7.781536   -5.879295    0.815126
     68          1           0        4.842501   -6.721972   -0.927864
     69          1           0        4.993702   -5.722186   -2.368493
     70          1           0        3.147446   -5.631917   -0.103570
     71          1           0        2.750609   -5.491536   -1.849853
     72          1           0        3.422031   -4.090758   -0.900262
     73          1           0        5.930982   -0.992627   -5.592636
     74          1           0        6.341411   -2.514930   -4.724760
     75          1           0        7.586304   -1.202773   -4.843296
     76          1           0        7.056166    3.391952   -2.657678
     77          1           0        5.058278    6.894264   -4.194477
     78          1           0        4.499344    6.876734   -2.414866
     79          1           0        3.687225    6.031112   -3.745699
     80         12           0       -5.175936   -0.685765   -0.782612
     81          6           0       -6.301955    1.753518    1.596679
     82          6           0       -5.204987    1.798946   -3.119268
     83          6           0       -4.621120   -2.893606   -2.992822
     84          6           0       -6.316636   -3.145013    1.407504
     85          7           0       -5.703539    1.458489   -0.655850
     86          6           0       -6.058418    2.287632    0.314164
     87          6           0       -6.080039    3.784792   -0.095234
     88          6           0       -6.285995    3.598621   -1.676937
     89          6           0       -5.662777    2.214215   -1.843303
     90          6           0       -7.746689    3.517410   -2.088194
     91          6           0       -4.727290    4.511949    0.226219
     92          6           0       -4.781499    6.038806    0.139524
     93          1           0       -3.981071    6.818205    1.079908
     94          7           0       -4.480198   -0.504771   -2.632412
     95          6           0       -4.557686    0.582434   -3.428193
     96          6           0       -3.916378    0.199815   -4.695672
     97          6           0       -3.600979   -1.253579   -4.641776
     98          6           0       -4.254974   -1.619420   -3.401403
     99          6           0       -3.588718    1.191684   -5.773746
    100          6           0       -2.847732   -2.166084   -5.561645
    101          8           0       -2.900340   -3.440689   -5.437378
    102          6           0       -2.121854   -1.527257   -6.669112
    103          7           0       -5.619996   -2.713850   -0.892287
    104          6           0       -5.219210   -3.453575   -1.941139
    105          6           0       -5.408671   -4.927591   -1.673241
    106          6           0       -5.796714   -5.036584   -0.125622
    107          6           0       -5.854157   -3.534070    0.227282
    108          6           0       -6.476503   -5.624973   -2.515722
    109          6           0       -4.921675   -5.969820    0.755305
    110          6           0       -3.527335   -5.400040    0.883935
    111          7           0       -5.966644   -0.733018    1.227510
    112          6           0       -6.406138   -1.867234    1.944781
    113          6           0       -6.965248   -1.383747    3.223876
    114          6           0       -6.832172    0.011082    3.151599
    115          6           0       -6.250962    0.372831    1.906270
    116          6           0       -7.546867   -2.196300    4.237573
    117          6           0       -7.060969    1.260424    3.841176
    118          8           0       -7.447832    1.573397    4.966392
    119          6           0       -6.843980    2.452529    2.812499
    120          6           0       -5.972240    3.484292    3.474370
    121          8           0       -4.792668    3.221064    3.767499
    122          8           0       -6.603062    4.672582    3.454208
    123          6           0       -5.773325    5.730677    4.089660
    124          1           0       -5.396023    2.446881   -3.975165
    125          1           0       -4.349652   -3.703398   -3.674020
    126          1           0       -6.602726   -3.855933    2.185595
    127          1           0       -6.899559    4.357906    0.321527
    128          1           0       -5.723476    4.339985   -2.238472
    129          1           0       -8.404595    3.479633   -1.232702
    130          1           0       -7.837147    2.612866   -2.675274
    131          1           0       -7.994467    4.341185   -2.763722
    132          1           0       -4.009021    4.303523   -0.577160
    133          1           0       -4.355801    4.217608    1.188507
    134          1           0       -5.811816    6.413604    0.109075
    135          1           0       -4.355650    6.347326   -0.818334
    136          1           0       -4.088143    2.153029   -5.601159
    137          1           0       -4.035654    0.815938   -6.700522
    138          1           0       -2.513560    1.311596   -5.923141
    139          1           0       -2.821166   -0.962618   -7.281171
    140          1           0       -1.573649   -2.332386   -7.162170
    141          1           0       -1.413362   -0.803198   -6.251505
    142          1           0       -4.488700   -5.473086   -1.844120
    143          1           0       -6.814159   -5.430961    0.012541
    144          1           0       -6.086095   -6.487076   -3.088829
    145          1           0       -6.917393   -4.894438   -3.180894
    146          1           0       -7.341514   -5.983530   -1.960398
    147          1           0       -4.814580   -6.948116    0.280301
    148          1           0       -5.330156   -6.136088    1.746521
    149          1           0       -3.035507   -5.742190   -0.031561
    150          1           0       -3.032391   -5.794637    1.769010
    151          1           0       -3.546036   -4.304298    0.858310
    152          1           0       -7.168787   -1.832132    5.183584
    153          1           0       -7.307174   -3.247393    4.090855
    154          1           0       -8.607088   -1.989612    4.068809
    155          1           0       -7.827660    2.849515    2.558870
    156          1           0       -6.380328    6.180098    4.881647
    157          1           0       -5.451029    6.393349    3.264589
    158          1           0       -4.898979    5.414964    4.646699
 ---------------------------------------------------------------------

 SCF Done:  E(RCAM-B3LYP) =  -4069.81234357     A.U. after   19 cycles

 Excitation energies and oscillator strengths:

 Excited State   1:      Singlet-A      1.6574 eV  748.06 nm  f=0.0155  <S**2>=0.000
     309 -> 315        0.11405
     310 -> 316        0.12553
     311 -> 313       -0.46091
     312 -> 314        0.50962
 This state for optimization and/or second-order correction.
 Total Energy, E(TD-HF/TD-DFT) =  -4069.75143526
 Copying the excited state density for this state as the 1-particle RhoCI density.

 Excited State   2:      Singlet-A      1.6969 eV  730.63 nm  f=0.7090  <S**2>=0.000
     309 -> 315       -0.13356
     310 -> 316        0.12023
     311 -> 313        0.50776
     312 -> 314        0.45935

 Excited State   3:      Singlet-A      2.1858 eV  567.23 nm  f=0.0203  <S**2>=0.000
     309 -> 313        0.29114
     310 -> 314        0.57375
     311 -> 315        0.12255
     312 -> 316       -0.24274

 Excited State   4:      Singlet-A      2.1952 eV  564.79 nm  f=0.1625  <S**2>=0.000
     309 -> 313        0.57079
     310 -> 314       -0.28865
     311 -> 315        0.25008
     312 -> 316        0.12692

 Excited State   5:      Singlet-A      2.5747 eV  481.54 nm  f=0.0000  <S**2>=0.000
     312 -> 313        0.70708

 The electronic state is 1-A.
 Alpha  occ. eigenvalues --  -46.87688 -46.87500 -19.26325 -19.26312 -19.19112
 Alpha  occ. eigenvalues --  -19.19055 -19.18669 -19.18504 -19.18124 -19.17934
 Alpha  occ. eigenvalues --  -14.42346 -14.42339 -14.41340 -14.41206 -14.39289
 Alpha  occ. eigenvalues --  -14.39182 -14.38488 -14.38447 -10.39105 -10.39036
 Alpha  occ. eigenvalues --  -10.35298 -10.35174 -10.34347 -10.34115 -10.31755
 Alpha  occ. eigenvalues --  -10.31754 -10.31317 -10.31166 -10.30857 -10.30806
 Alpha  occ. eigenvalues --  -10.30474 -10.30405 -10.30245 -10.30208 -10.30080
 Alpha  occ. eigenvalues --  -10.29970 -10.29822 -10.29760 -10.29524 -10.29258
 Alpha  occ. eigenvalues --  -10.29232 -10.29135 -10.28674 -10.28585 -10.28562
 Alpha  occ. eigenvalues --  -10.28500 -10.28265 -10.28242 -10.28033 -10.28001
 Alpha  occ. eigenvalues --  -10.27839 -10.27694 -10.27620 -10.27504 -10.27467
 Alpha  occ. eigenvalues --  -10.27381 -10.27374 -10.27335 -10.27334 -10.27312
 Alpha  occ. eigenvalues --  -10.27310 -10.27284 -10.27250 -10.27176 -10.27122
 Alpha  occ. eigenvalues --  -10.26947 -10.26637 -10.26561 -10.26209 -10.26160
 Alpha  occ. eigenvalues --  -10.26109 -10.26031 -10.26005 -10.25906 -10.25903
 Alpha  occ. eigenvalues --  -10.25779 -10.25779 -10.25738 -10.25333 -10.25289
 Alpha  occ. eigenvalues --  -10.24744 -10.24720 -10.24682 -10.24585 -10.24540
 Alpha  occ. eigenvalues --  -10.24501  -3.16430  -3.16249  -1.91312  -1.91132
 Alpha  occ. eigenvalues --   -1.90898  -1.90740  -1.90720  -1.90557  -1.16671
 Alpha  occ. eigenvalues --   -1.16603  -1.08593  -1.08552  -1.07068  -1.06895
 Alpha  occ. eigenvalues --   -1.06756  -1.06675  -1.04481  -1.04338  -1.03653
 Alpha  occ. eigenvalues --   -1.03505  -1.03127  -1.02882  -1.02307  -1.01955
 Alpha  occ. eigenvalues --   -0.91893  -0.91848  -0.89402  -0.89349  -0.89107
 Alpha  occ. eigenvalues --   -0.89014  -0.88171  -0.88081  -0.87784  -0.87653
 Alpha  occ. eigenvalues --   -0.87572  -0.87530  -0.87135  -0.86899  -0.84896
 Alpha  occ. eigenvalues --   -0.84858  -0.83823  -0.83745  -0.82818  -0.82725
 Alpha  occ. eigenvalues --   -0.82555  -0.82484  -0.81547  -0.81495  -0.80515
 Alpha  occ. eigenvalues --   -0.80306  -0.78676  -0.78446  -0.77116  -0.76993
 Alpha  occ. eigenvalues --   -0.76867  -0.76782  -0.75856  -0.75710  -0.74799
 Alpha  occ. eigenvalues --   -0.74672  -0.72674  -0.72547  -0.71582  -0.71443
 Alpha  occ. eigenvalues --   -0.69774  -0.69619  -0.68782  -0.68681  -0.67546
 Alpha  occ. eigenvalues --   -0.67452  -0.67124  -0.67036  -0.65208  -0.65138
 Alpha  occ. eigenvalues --   -0.64777  -0.64635  -0.64537  -0.64524  -0.64158
 Alpha  occ. eigenvalues --   -0.64065  -0.62268  -0.62185  -0.60313  -0.60149
 Alpha  occ. eigenvalues --   -0.59716  -0.59651  -0.58895  -0.58851  -0.58416
 Alpha  occ. eigenvalues --   -0.58287  -0.57548  -0.57453  -0.57210  -0.57084
 Alpha  occ. eigenvalues --   -0.56220  -0.56054  -0.55957  -0.55786  -0.55411
 Alpha  occ. eigenvalues --   -0.55291  -0.55260  -0.55128  -0.54462  -0.54382
 Alpha  occ. eigenvalues --   -0.53815  -0.53775  -0.53195  -0.53124  -0.53076
 Alpha  occ. eigenvalues --   -0.52989  -0.52850  -0.52772  -0.52624  -0.52444
 Alpha  occ. eigenvalues --   -0.52303  -0.52263  -0.51843  -0.51762  -0.51525
 Alpha  occ. eigenvalues --   -0.51498  -0.51117  -0.51073  -0.50405  -0.50231
 Alpha  occ. eigenvalues --   -0.49904  -0.49804  -0.49796  -0.49711  -0.49416
 Alpha  occ. eigenvalues --   -0.49313  -0.49129  -0.49046  -0.49023  -0.48977
 Alpha  occ. eigenvalues --   -0.48535  -0.48436  -0.48376  -0.48322  -0.48254
 Alpha  occ. eigenvalues --   -0.48143  -0.47594  -0.47438  -0.47192  -0.46949
 Alpha  occ. eigenvalues --   -0.46697  -0.46568  -0.46476  -0.46410  -0.46262
 Alpha  occ. eigenvalues --   -0.46117  -0.46082  -0.45960  -0.45775  -0.45717
 Alpha  occ. eigenvalues --   -0.45092  -0.45073  -0.44517  -0.44392  -0.44388
 Alpha  occ. eigenvalues --   -0.44330  -0.44048  -0.43997  -0.43992  -0.43931
 Alpha  occ. eigenvalues --   -0.43920  -0.43750  -0.43460  -0.43450  -0.43290
 Alpha  occ. eigenvalues --   -0.43251  -0.42940  -0.42846  -0.42770  -0.42698
 Alpha  occ. eigenvalues --   -0.42537  -0.42399  -0.41907  -0.41829  -0.41620
 Alpha  occ. eigenvalues --   -0.41536  -0.41448  -0.41321  -0.41050  -0.40851
 Alpha  occ. eigenvalues --   -0.40773  -0.40687  -0.40575  -0.40512  -0.40462
 Alpha  occ. eigenvalues --   -0.40360  -0.40151  -0.40073  -0.39300  -0.39285
 Alpha  occ. eigenvalues --   -0.38358  -0.38216  -0.37676  -0.37528  -0.37209
 Alpha  occ. eigenvalues --   -0.37179  -0.37124  -0.37052  -0.36704  -0.36703
 Alpha  occ. eigenvalues --   -0.36124  -0.36095  -0.34188  -0.34106  -0.33794
 Alpha  occ. eigenvalues --   -0.33782  -0.33090  -0.33023  -0.31202  -0.31070
 Alpha  occ. eigenvalues --   -0.30936  -0.30819  -0.29988  -0.29844  -0.29337
 Alpha  occ. eigenvalues --   -0.29225  -0.29150  -0.29053  -0.23979  -0.23883
 Alpha  occ. eigenvalues --   -0.21022  -0.20956
 Alpha virt. eigenvalues --   -0.08667  -0.08626  -0.01638  -0.01523   0.00060
 Alpha virt. eigenvalues --    0.00157   0.02279   0.02345   0.03221   0.03453
 Alpha virt. eigenvalues --    0.04807   0.04869   0.05085   0.05230   0.06229

 Mulliken charges:
               1
     1  Mg   0.839362
     2  C   -0.003267
     3  C   -0.093560
     4  C   -0.045751
     5  C   -0.063696
     6  N   -0.256831
     7  C   -0.052610
     8  C   -0.014124
     9  C   -0.087144
    10  C    0.046598
    11  C    0.104817
    12  C    0.053275
    13  C   -0.071408
    14  H    0.034660
    15  N   -0.433261
    16  C    0.169015
    17  C   -0.176344
    18  C   -0.003461
    19  C    0.148997
    20  C    0.110017
    21  C    0.012861
    22  O   -0.249804
    23  C    0.061984
    24  N   -0.341207
    25  C    0.041488
    26  C   -0.028175
    27  C   -0.023909
    28  C    0.074787
    29  C    0.076260
    30  C    0.035108
    31  C   -0.004772
    32  N   -0.310232
    33  C    0.080088
    34  C   -0.170237
    35  C    0.007689
    36  C    0.082686
    37  C    0.127536
    38  C    0.045238
    39  O   -0.189929
    40  C   -0.005097
    41  C    0.212741
    42  O   -0.258234
    43  O   -0.304435
    44  C    0.158244
    45  H   -0.017508
    46  H   -0.016770
    47  H   -0.041537
    48  H    0.000440
    49  H   -0.003718
    50  H    0.025228
    51  H    0.016545
    52  H    0.016595
    53  H    0.012531
    54  H    0.043421
    55  H    0.017620
    56  H    0.018592
    57  H    0.005861
    58  H    0.026655
    59  H    0.041662
    60  H    0.037054
    61  H    0.035769
    62  H    0.033541
    63  H    0.016689
    64  H    0.009144
    65  H    0.023104
    66  H    0.012414
    67  H    0.004610
    68  H    0.006036
    69  H    0.004835
    70  H    0.008356
    71  H    0.020009
    72  H    0.028921
    73  H    0.046383
    74  H    0.009442
    75  H    0.045729
    76  H    0.035010
    77  H    0.042539
    78  H    0.046693
    79  H    0.052143
    80  Mg   0.838333
    81  C   -0.016995
    82  C   -0.086665
    83  C   -0.045605
    84  C   -0.064923
    85  N   -0.254591
    86  C   -0.050134
    87  C   -0.015216
    88  C   -0.090692
    89  C    0.046017
    90  C    0.114405
    91  C    0.062151
    92  C   -0.077394
    93  H    0.033213
    94  N   -0.423708
    95  C    0.163803
    96  C   -0.173243
    97  C   -0.007076
    98  C    0.152337
    99  C    0.098976
   100  C    0.016120
   101  O   -0.254119
   102  C    0.060313
   103  N   -0.350060
   104  C    0.037740
   105  C   -0.019785
   106  C   -0.034586
   107  C    0.088618
   108  C    0.073806
   109  C    0.034814
   110  C   -0.007634
   111  N   -0.323872
   112  C    0.077959
   113  C   -0.163699
   114  C    0.001764
   115  C    0.095834
   116  C    0.131637
   117  C    0.041756
   118  O   -0.189170
   119  C    0.001060
   120  C    0.211193
   121  O   -0.251671
   122  O   -0.305451
   123  C    0.152445
   124  H   -0.019467
   125  H   -0.015817
   126  H   -0.040917
   127  H   -0.001239
   128  H   -0.003828
   129  H    0.022134
   130  H    0.014448
   131  H    0.016129
   132  H    0.015727
   133  H    0.037080
   134  H    0.020382
   135  H    0.020208
   136  H    0.008693
   137  H    0.025630
   138  H    0.044242
   139  H    0.037948
   140  H    0.035929
   141  H    0.037970
   142  H    0.014164
   143  H    0.011989
   144  H    0.024788
   145  H    0.011626
   146  H    0.005416
   147  H    0.005743
   148  H    0.003447
   149  H    0.010525
   150  H    0.018463
   151  H    0.030348
   152  H    0.045197
   153  H    0.008333
   154  H    0.046475
   155  H    0.034698
   156  H    0.043423
   157  H    0.049552
   158  H    0.052556
 Sum of Mulliken charges =  -0.00000

 Dipole moment (field-independent basis, Debye):
    X=              1.0038    Y=              3.0790    Z=              0.0915  Tot=              3.2398
 Quadrupole moment (field-independent basis, Debye-Ang):
   XX=           -499.0776   YY=           -461.3323   ZZ=           -532.1406
   XY=              2.6279   XZ=             49.8346   YZ=              5.8642

 Normal termination of Gaussian 16 at Fri Sep 10 12:43:08 2021.
