 Gaussian 16, Revision A.03,
 Gaussian 16:  ES64L-G16RevA.03 25-Dec-2016

 -----------------------------------
 #p cam-b3lyp/Def2SVP td=(nstates=5)
 -----------------------------------

 --------------------------------
 TDDFT excited states in gaussian
 --------------------------------
 Symbolic Z-matrix:
 Charge =  0 Multiplicity = 1

                         Standard orientation:
 ---------------------------------------------------------------------
 Center     Atomic      Atomic             Coordinates (Angstroms)
 Number     Number       Type             X           Y           Z
 ---------------------------------------------------------------------
      1         12           0        4.139159   -0.348839    0.644993
      2          6           0        4.361241    2.724880   -1.175762
      3          6           0        4.473120    1.490603    3.499461
      4          6           0        4.401701   -3.075879    2.242160
      5          6           0        4.956525   -1.991741   -2.317851
      6          7           0        4.377420    1.825024    0.988794
      7          6           0        4.387001    2.901877    0.209393
      8          6           0        4.350676    4.240837    1.005157
      9          6           0        4.956671    3.728366    2.387958
     10          6           0        4.548358    2.268075    2.305766
     11          6           0        6.478351    3.809947    2.453817
     12          6           0        2.893980    4.786173    1.185096
     13          6           0        2.794083    6.238874    1.659475
     14          1           0        1.710964    7.068069    1.152884
     15          7           0        3.914924   -0.732945    2.569838
     16          6           0        4.074030    0.139783    3.593712
     17          6           0        3.796584   -0.625376    4.828311
     18          6           0        3.649079   -2.058757    4.451805
     19          6           0        4.013311   -2.016340    3.058638
     20          6           0        3.649603    0.012028    6.175851
     21          6           0        3.254260   -3.275570    5.227443
     22          8           0        3.414043   -4.457392    4.766639
     23          6           0        2.750884   -3.048665    6.594253
     24          7           0        4.824581   -2.246916    0.111013
     25          6           0        4.776331   -3.266439    0.975437
     26          6           0        5.049546   -4.574084    0.293268
     27          6           0        5.055899   -4.262815   -1.272881
     28          6           0        4.854669   -2.728623   -1.209385
     29          6           0        6.361827   -5.269683    0.680661
     30          6           0        4.096940   -5.096423   -2.159400
     31          6           0        2.662272   -4.745153   -1.834692
     32          7           0        4.411599    0.212703   -1.433827
     33          6           0        4.772152   -0.630637   -2.494701
     34          6           0        4.939898    0.221570   -3.686201
     35          6           0        4.679762    1.511954   -3.228943
     36          6           0        4.394892    1.471740   -1.834122
     37          6           0        5.346680   -0.220107   -4.976117
     38          6           0        4.600326    2.918344   -3.588960
     39          8           0        4.651665    3.546804   -4.647211
     40          6           0        4.510543    3.774248   -2.249111
     41          6           0        3.395306    4.769509   -2.419435
     42          8           0        2.208726    4.392403   -2.504198
     43          8           0        3.870343    6.008220   -2.218246
     44          6           0        2.808092    7.041712   -2.343427
     45          1           0        4.805089    1.934287    4.440143
     46          1           0        4.397012   -4.052687    2.730281
     47          1           0        5.128156   -2.444400   -3.296164
     48          1           0        4.978617    5.031275    0.593668
     49          1           0        4.480617    4.207379    3.243318
     50          1           0        6.904600    4.086513    1.489585
     51          1           0        6.810904    2.813494    2.745336
     52          1           0        6.796140    4.478114    3.254654
     53          1           0        2.423385    4.282506    2.029442
     54          1           0        2.321077    4.667232    0.264791
     55          1           0        3.748871    6.756424    1.562358
     56          1           0        2.595696    6.235280    2.731310
     57          1           0        3.975110    1.051484    6.164862
     58          1           0        4.353632   -0.486045    6.842167
     59          1           0        2.637768   -0.087947    6.568950
     60          1           0        3.514923   -2.535479    7.178577
     61          1           0        2.433890   -4.023309    6.963621
     62          1           0        1.895579   -2.373929    6.548052
     63          1           0        4.266411   -5.299411    0.510125
     64          1           0        6.037849   -4.424765   -1.718100
     65          1           0        6.224721   -6.281170    1.063806
     66          1           0        6.873878   -4.641630    1.409114
     67          1           0        7.102580   -5.324859   -0.116621
     68          1           0        4.220719   -6.159599   -1.956222
     69          1           0        4.254492   -4.942240   -3.226947
     70          1           0        2.449181   -5.369106   -0.967451
     71          1           0        2.009541   -5.001381   -2.669857
     72          1           0        2.568495   -3.705820   -1.519292
     73          1           0        4.700681    0.289634   -5.690832
     74          1           0        5.263040   -1.302724   -5.068568
     75          1           0        6.381597    0.121400   -4.989419
     76          1           0        5.477325    4.260448   -2.122358
     77          1           0        3.142774    7.756576   -3.095219
     78          1           0        2.620211    7.416439   -1.337105
     79          1           0        1.863937    6.712280   -2.778611
     80         12           0       -3.690992   -0.962382   -0.465110
     81          6           0       -6.432135    1.262325    0.179757
     82          6           0       -1.795083    1.799627   -1.106559
     83          6           0       -1.389024   -2.898998   -1.474046
     84          6           0       -6.036017   -3.504945   -0.891639
     85          7           0       -4.165225    1.197787   -0.433424
     86          6           0       -5.223459    1.927413   -0.113846
     87          6           0       -4.951199    3.453334   -0.030339
     88          6           0       -3.668358    3.521796   -0.993933
     89          6           0       -3.149723    2.096800   -0.812055
     90          6           0       -4.025230    3.716944   -2.458143
     91          6           0       -4.600835    3.919150    1.426470
     92          6           0       -4.626588    5.434105    1.640909
     93          1           0       -5.088475    5.947170    2.927720
     94          7           0       -1.749539   -0.631396   -0.709642
     95          6           0       -1.148854    0.555255   -0.938405
     96          6           0        0.287065    0.261534   -1.064993
     97          6           0        0.466205   -1.215808   -1.056384
     98          6           0       -0.915905   -1.649201   -1.101606
     99          6           0        1.337057    1.333818   -1.098904
    100          6           0        1.680816   -2.093323   -1.026919
    101          8           0        1.609079   -3.350654   -1.265279
    102          6           0        2.969416   -1.421872   -0.802991
    103          7           0       -3.715134   -2.866564   -1.299300
    104          6           0       -2.570137   -3.504509   -1.599188
    105          6           0       -2.824332   -4.956668   -1.926300
    106          6           0       -4.355266   -5.220925   -1.546850
    107          6           0       -4.763588   -3.790478   -1.131527
    108          6           0       -2.583068   -5.363251   -3.379867
    109          6           0       -4.645253   -6.387408   -0.563032
    110          6           0       -4.099125   -6.055026    0.806885
    111          7           0       -5.825042   -1.170609   -0.199573
    112          6           0       -6.609429   -2.315402   -0.460847
    113          6           0       -8.019940   -1.936786   -0.238280
    114          6           0       -7.959685   -0.580964    0.117548
    115          6           0       -6.608873   -0.140064    0.097167
    116          6           0       -9.147616   -2.786743   -0.417284
    117          6           0       -8.732607    0.580285    0.495433
    118          8           0       -9.916335    0.787736    0.759065
    119          6           0       -7.789753    1.858194    0.429609
    120          6           0       -7.986747    2.646463    1.695448
    121          8           0       -7.648641    2.172379    2.794333
    122          8           0       -8.337402    3.906532    1.379801
    123          6           0       -8.533374    4.730516    2.602289
    124          1           0       -1.176555    2.581487   -1.548141
    125          1           0       -0.623838   -3.637436   -1.724390
    126          1           0       -6.818472   -4.266619   -0.908738
    127          1           0       -5.744494    4.078436   -0.422395
    128          1           0       -2.939711    4.241999   -0.630981
    129          1           0       -5.090664    3.658874   -2.624345
    130          1           0       -3.515228    2.926518   -2.993100
    131          1           0       -3.599999    4.654306   -2.828093
    132          1           0       -3.539025    3.719953    1.620450
    133          1           0       -5.240350    3.441810    2.143264
    134          1           0       -5.125099    5.958660    0.816723
    135          1           0       -3.599495    5.806032    1.613047
    136          1           0        0.894529    2.325330   -1.255337
    137          1           0        1.941277    1.161427   -1.996161
    138          1           0        1.989847    1.311956   -0.223662
    139          1           0        3.130070   -0.679830   -1.581468
    140          1           0        3.706929   -2.223118   -0.725791
    141          1           0        2.919507   -0.876568    0.146099
    142          1           0       -2.196729   -5.603892   -1.326019
    143          1           0       -4.956522   -5.474796   -2.432213
    144          1           0       -1.850800   -6.185649   -3.487263
    145          1           0       -2.257251   -4.489857   -3.929019
    146          1           0       -3.473755   -5.662785   -3.929551
    147          1           0       -4.131938   -7.295034   -0.889956
    148          1           0       -5.699731   -6.627287   -0.476307
    149          1           0       -3.044685   -6.335848    0.726980
    150          1           0       -4.605914   -6.638176    1.573144
    151          1           0       -4.139488   -4.975929    0.995467
    152          1           0       -9.801842   -2.618108    0.427726
    153          1           0       -8.850924   -3.831047   -0.489178
    154          1           0       -9.532377   -2.403082   -1.365987
    155          1           0       -8.072399    2.428581   -0.456023
    156          1           0       -9.542319    5.150682    2.546039
    157          1           0       -7.689918    5.446099    2.618617
    158          1           0       -8.572230    4.213766    3.554083
 ---------------------------------------------------------------------

 SCF Done:  E(RCAM-B3LYP) =  -4069.34360077     A.U. after   23 cycles

 Excitation energies and oscillator strengths:

 Excited State   1:      Singlet-A      0.9689 eV 1279.62 nm  f=0.0607  <S**2>=0.000
     311 -> 313       -0.15773
     312 -> 313        0.63266
     312 -> 314       -0.20791
 This state for optimization and/or second-order correction.
 Total Energy, E(TD-HF/TD-DFT) =  -4069.30799370
 Copying the excited state density for this state as the 1-particle RhoCI density.

 Excited State   2:      Singlet-A      1.2142 eV 1021.09 nm  f=0.0934  <S**2>=0.000
     312 -> 313        0.23717
     312 -> 314        0.58495
     312 -> 316       -0.18641
     312 -> 318        0.14157

 Excited State   3:      Singlet-A      1.4838 eV  835.61 nm  f=0.2304  <S**2>=0.000
     308 -> 315        0.13239
     310 -> 313        0.64611
     311 -> 313        0.19127

 Excited State   4:      Singlet-A      1.6714 eV  741.80 nm  f=0.4120  <S**2>=0.000
     309 -> 316        0.11975
     310 -> 313        0.10959
     311 -> 314        0.65571
     312 -> 314        0.10795

 Excited State   5:      Singlet-A      1.9781 eV  626.79 nm  f=0.0021  <S**2>=0.000
     310 -> 313       -0.20037
     311 -> 313        0.65202
     312 -> 313        0.16086

 The electronic state is 1-A.
 Alpha  occ. eigenvalues --  -46.87593 -46.87332 -19.27111 -19.26179 -19.20364
 Alpha  occ. eigenvalues --  -19.20066 -19.19684 -19.18972 -19.18245 -19.17724
 Alpha  occ. eigenvalues --  -14.43081 -14.42145 -14.41664 -14.41052 -14.40140
 Alpha  occ. eigenvalues --  -14.39023 -14.38359 -14.38263 -10.40009 -10.38893
 Alpha  occ. eigenvalues --  -10.36278 -10.35173 -10.34579 -10.33913 -10.32569
 Alpha  occ. eigenvalues --  -10.32418 -10.31928 -10.31740 -10.31639 -10.31335
 Alpha  occ. eigenvalues --  -10.31043 -10.30943 -10.30847 -10.30633 -10.30190
 Alpha  occ. eigenvalues --  -10.29934 -10.29856 -10.29804 -10.29789 -10.29393
 Alpha  occ. eigenvalues --  -10.29203 -10.29027 -10.28869 -10.28831 -10.28787
 Alpha  occ. eigenvalues --  -10.28770 -10.28539 -10.28526 -10.28466 -10.28404
 Alpha  occ. eigenvalues --  -10.28380 -10.28013 -10.27994 -10.27867 -10.27750
 Alpha  occ. eigenvalues --  -10.27647 -10.27586 -10.27429 -10.27320 -10.27261
 Alpha  occ. eigenvalues --  -10.27156 -10.27153 -10.27134 -10.27034 -10.27031
 Alpha  occ. eigenvalues --  -10.26903 -10.26769 -10.26490 -10.26382 -10.25962
 Alpha  occ. eigenvalues --  -10.25880 -10.25796 -10.25749 -10.25747 -10.25587
 Alpha  occ. eigenvalues --  -10.25567 -10.25551 -10.25314 -10.25220 -10.24847
 Alpha  occ. eigenvalues --  -10.24640 -10.24570 -10.24495 -10.23269 -10.22750
 Alpha  occ. eigenvalues --  -10.17651  -3.17348  -3.16084  -1.92469  -1.91723
 Alpha  occ. eigenvalues --   -1.91547  -1.90967  -1.90555  -1.90391  -1.17478
 Alpha  occ. eigenvalues --   -1.16468  -1.14403  -1.08834  -1.08353  -1.08047
 Alpha  occ. eigenvalues --   -1.07577  -1.07085  -1.06753  -1.05214  -1.04488
 Alpha  occ. eigenvalues --   -1.04169  -1.03633  -1.03395  -1.02740  -1.01782
 Alpha  occ. eigenvalues --   -0.93113  -0.91660  -0.90755  -0.89972  -0.89301
 Alpha  occ. eigenvalues --   -0.89255  -0.88813  -0.88424  -0.88360  -0.88069
 Alpha  occ. eigenvalues --   -0.87958  -0.87454  -0.87352  -0.86861  -0.85781
 Alpha  occ. eigenvalues --   -0.84850  -0.84216  -0.83705  -0.83546  -0.83269
 Alpha  occ. eigenvalues --   -0.82538  -0.82447  -0.82003  -0.81406  -0.81144
 Alpha  occ. eigenvalues --   -0.80331  -0.79573  -0.78849  -0.77676  -0.77435
 Alpha  occ. eigenvalues --   -0.76930  -0.76653  -0.76507  -0.75857  -0.75328
 Alpha  occ. eigenvalues --   -0.74520  -0.73432  -0.72667  -0.72344  -0.71581
 Alpha  occ. eigenvalues --   -0.71287  -0.69774  -0.69533  -0.68719  -0.68324
 Alpha  occ. eigenvalues --   -0.68052  -0.67518  -0.67111  -0.66986  -0.65973
 Alpha  occ. eigenvalues --   -0.65418  -0.65313  -0.64933  -0.64477  -0.64375
 Alpha  occ. eigenvalues --   -0.63972  -0.63164  -0.62112  -0.61876  -0.61258
 Alpha  occ. eigenvalues --   -0.60396  -0.60094  -0.59518  -0.59360  -0.58809
 Alpha  occ. eigenvalues --   -0.58562  -0.58367  -0.58183  -0.57898  -0.57315
 Alpha  occ. eigenvalues --   -0.57260  -0.57019  -0.56692  -0.56372  -0.56026
 Alpha  occ. eigenvalues --   -0.55804  -0.55699  -0.55384  -0.55270  -0.55113
 Alpha  occ. eigenvalues --   -0.54939  -0.54521  -0.54287  -0.54027  -0.53687
 Alpha  occ. eigenvalues --   -0.53648  -0.53558  -0.53366  -0.52918  -0.52737
 Alpha  occ. eigenvalues --   -0.52571  -0.52517  -0.52360  -0.52178  -0.51574
 Alpha  occ. eigenvalues --   -0.51530  -0.51347  -0.51282  -0.51177  -0.50924
 Alpha  occ. eigenvalues --   -0.50642  -0.50516  -0.50082  -0.49955  -0.49868
 Alpha  occ. eigenvalues --   -0.49683  -0.49544  -0.49476  -0.49219  -0.49022
 Alpha  occ. eigenvalues --   -0.48938  -0.48871  -0.48757  -0.48522  -0.48276
 Alpha  occ. eigenvalues --   -0.48134  -0.48068  -0.47874  -0.47606  -0.47210
 Alpha  occ. eigenvalues --   -0.47082  -0.46924  -0.46567  -0.46436  -0.46371
 Alpha  occ. eigenvalues --   -0.46210  -0.46095  -0.45888  -0.45759  -0.45544
 Alpha  occ. eigenvalues --   -0.45283  -0.45127  -0.45000  -0.44830  -0.44799
 Alpha  occ. eigenvalues --   -0.44626  -0.44347  -0.44239  -0.44166  -0.44058
 Alpha  occ. eigenvalues --   -0.43914  -0.43781  -0.43699  -0.43631  -0.43374
 Alpha  occ. eigenvalues --   -0.43316  -0.43121  -0.42981  -0.42906  -0.42657
 Alpha  occ. eigenvalues --   -0.42575  -0.42229  -0.42098  -0.41878  -0.41695
 Alpha  occ. eigenvalues --   -0.41561  -0.41527  -0.41332  -0.41187  -0.41154
 Alpha  occ. eigenvalues --   -0.40959  -0.40703  -0.40485  -0.40442  -0.40250
 Alpha  occ. eigenvalues --   -0.40121  -0.39334  -0.39242  -0.38708  -0.38439
 Alpha  occ. eigenvalues --   -0.38162  -0.38112  -0.37703  -0.37429  -0.37414
 Alpha  occ. eigenvalues --   -0.37035  -0.36944  -0.36584  -0.36035  -0.35829
 Alpha  occ. eigenvalues --   -0.35554  -0.35162  -0.34517  -0.34156  -0.33930
 Alpha  occ. eigenvalues --   -0.33659  -0.32891  -0.32859  -0.32136  -0.30714
 Alpha  occ. eigenvalues --   -0.30433  -0.30193  -0.29664  -0.29593  -0.29359
 Alpha  occ. eigenvalues --   -0.28884  -0.28342  -0.24946  -0.23772  -0.21696
 Alpha  occ. eigenvalues --   -0.20931  -0.19389
 Alpha virt. eigenvalues --   -0.09623  -0.08541  -0.02870  -0.01799  -0.00866
 Alpha virt. eigenvalues --   -0.00361   0.01187   0.02364   0.03334   0.03669
 Alpha virt. eigenvalues --    0.04190   0.04722   0.05023   0.05367   0.05883

 Mulliken charges:
               1
     1  Mg   0.576699
     2  C    0.014039
     3  C   -0.101168
     4  C   -0.045980
     5  C   -0.047396
     6  N   -0.244156
     7  C   -0.065843
     8  C   -0.013063
     9  C   -0.086431
    10  C    0.057335
    11  C    0.104629
    12  C    0.051529
    13  C   -0.072201
    14  H    0.034713
    15  N   -0.417650
    16  C    0.183180
    17  C   -0.175067
    18  C   -0.000151
    19  C    0.159832
    20  C    0.109322
    21  C    0.016092
    22  O   -0.241955
    23  C    0.060949
    24  N   -0.318459
    25  C    0.036211
    26  C   -0.017301
    27  C    0.039355
    28  C    0.034837
    29  C    0.081631
    30  C    0.097431
    31  C   -0.102444
    32  N   -0.338039
    33  C    0.032467
    34  C   -0.144018
    35  C    0.011434
    36  C    0.035284
    37  C    0.128861
    38  C    0.040887
    39  O   -0.190798
    40  C   -0.009160
    41  C    0.218326
    42  O   -0.261538
    43  O   -0.302489
    44  C    0.156576
    45  H   -0.016745
    46  H   -0.010746
    47  H   -0.046357
    48  H    0.001069
    49  H   -0.002820
    50  H    0.028445
    51  H    0.018314
    52  H    0.018677
    53  H    0.011716
    54  H    0.041457
    55  H    0.019725
    56  H    0.019569
    57  H    0.009413
    58  H    0.031404
    59  H    0.045443
    60  H    0.038112
    61  H    0.039955
    62  H    0.034021
    63  H    0.019949
    64  H   -0.002922
    65  H    0.023559
    66  H    0.005542
    67  H    0.007948
    68  H   -0.029477
    69  H   -0.020729
    70  H   -0.021182
    71  H   -0.010502
    72  H    0.021893
    73  H    0.045013
    74  H    0.012816
    75  H    0.045308
    76  H    0.036509
    77  H    0.045989
    78  H    0.047439
    79  H    0.051546
    80  Mg   0.836689
    81  C   -0.016720
    82  C   -0.092776
    83  C   -0.057580
    84  C   -0.065527
    85  N   -0.254309
    86  C   -0.051012
    87  C   -0.015100
    88  C   -0.089125
    89  C    0.043802
    90  C    0.114337
    91  C    0.062902
    92  C   -0.076659
    93  H    0.032006
    94  N   -0.425336
    95  C    0.157050
    96  C   -0.184504
    97  C    0.046932
    98  C    0.159129
    99  C    0.114476
   100  C    0.034672
   101  O   -0.077300
   102  C   -0.015688
   103  N   -0.351022
   104  C    0.035891
   105  C   -0.020315
   106  C   -0.034157
   107  C    0.088726
   108  C    0.072704
   109  C    0.034976
   110  C   -0.007430
   111  N   -0.323675
   112  C    0.076864
   113  C   -0.164660
   114  C    0.001913
   115  C    0.094826
   116  C    0.131780
   117  C    0.041325
   118  O   -0.189951
   119  C    0.001173
   120  C    0.211102
   121  O   -0.252051
   122  O   -0.305402
   123  C    0.152456
   124  H   -0.002751
   125  H   -0.017413
   126  H   -0.041727
   127  H   -0.001429
   128  H   -0.003316
   129  H    0.020877
   130  H    0.017157
   131  H    0.017674
   132  H    0.012953
   133  H    0.036594
   134  H    0.021055
   135  H    0.018441
   136  H    0.016507
   137  H    0.054231
   138  H    0.056478
   139  H    0.161583
   140  H    0.115225
   141  H   -0.016069
   142  H    0.012918
   143  H    0.012163
   144  H    0.024336
   145  H    0.011801
   146  H    0.006475
   147  H    0.005444
   148  H    0.003513
   149  H    0.010385
   150  H    0.017409
   151  H    0.030369
   152  H    0.044668
   153  H    0.007466
   154  H    0.046045
   155  H    0.034720
   156  H    0.043412
   157  H    0.048995
   158  H    0.052718
 Sum of Mulliken charges =  -0.00000

 Dipole moment (field-independent basis, Debye):
    X=              4.9132    Y=              3.7023    Z=              4.0713  Tot=              7.3772
 Quadrupole moment (field-independent basis, Debye-Ang):
   XX=           -556.2805   YY=           -474.1759   ZZ=           -507.1621
   XY=             15.3266   XZ=             40.8307   YZ=             32.4221

 Normal termination of Gaussian 16 at Wed Sep  8 13:43:21 2021.
