 Gaussian 16, Revision A.03,
 Gaussian 16:  ES64L-G16RevA.03 25-Dec-2016

 -----------------------------------
 #p cam-b3lyp/Def2SVP td=(nstates=5)
 -----------------------------------

 --------------------------------
 TDDFT excited states in gaussian
 --------------------------------
 Symbolic Z-matrix:
 Charge =  0 Multiplicity = 1

                         Standard orientation:
 ---------------------------------------------------------------------
 Center     Atomic      Atomic             Coordinates (Angstroms)
 Number     Number       Type             X           Y           Z
 ---------------------------------------------------------------------
      1         12           0       -5.161684    0.496561   -0.798735
      2          6           0       -5.574037   -2.511909    1.096333
      3          6           0       -6.477338    2.177367    1.863409
      4          6           0       -5.230630    3.096519   -2.613145
      5          6           0       -4.960015   -1.500592   -3.647659
      6          7           0       -5.893589   -0.190889    1.174175
      7          6           0       -5.941445   -1.362754    1.799966
      8          6           0       -6.347273   -1.246170    3.299661
      9          6           0       -7.132487    0.140188    3.240916
     10          6           0       -6.436841    0.762784    2.043262
     11          6           0       -8.616225   -0.013004    2.922240
     12          6           0       -5.103654   -1.160500    4.247185
     13          6           0       -5.399717   -1.372655    5.734696
     14          1           0       -4.416064   -2.066126    6.552543
     15          7           0       -5.299903    2.403265   -0.300514
     16          6           0       -5.851280    2.907054    0.829737
     17          6           0       -5.710209    4.375830    0.732400
     18          6           0       -5.203469    4.694896   -0.631236
     19          6           0       -5.249875    3.396204   -1.253026
     20          6           0       -5.994942    5.307010    1.870637
     21          6           0       -4.759364    5.970001   -1.275450
     22          8           0       -4.576831    6.067009   -2.537134
     23          6           0       -4.627251    7.141710   -0.390755
     24          7           0       -5.323804    0.786038   -2.859695
     25          6           0       -5.269213    2.012444   -3.390666
     26          6           0       -5.121007    1.955566   -4.882222
     27          6           0       -4.840145    0.425043   -5.240510
     28          6           0       -4.964136   -0.176693   -3.818958
     29          6           0       -6.323282    2.457368   -5.693851
     30          6           0       -3.563238    0.118161   -6.062549
     31          6           0       -2.334634    0.416108   -5.232574
     32          7           0       -5.070192   -1.631312   -1.216859
     33          6           0       -5.012591   -2.240954   -2.478482
     34          6           0       -5.075630   -3.697445   -2.257740
     35          6           0       -5.182920   -3.834246   -0.875126
     36          6           0       -5.213098   -2.544214   -0.272465
     37          6           0       -5.090321   -4.694310   -3.272864
     38          6           0       -5.303892   -4.769568    0.231397
     39          8           0       -5.241352   -5.994872    0.341907
     40          6           0       -5.684547   -3.948858    1.541879
     41          6           0       -4.777680   -4.413598    2.648640
     42          8           0       -3.551544   -4.184599    2.609716
     43          8           0       -5.519876   -4.839751    3.682120
     44          6           0       -4.681168   -5.287471    4.825916
     45          1           0       -7.090821    2.777849    2.537947
     46          1           0       -5.142380    3.964581   -3.269742
     47          1           0       -4.817281   -2.188598   -4.482960
     48          1           0       -7.011008   -2.035243    3.653557
     49          1           0       -6.962382    0.742349    4.133210
     50          1           0       -8.863311   -1.041722    2.660309
     51          1           0       -8.802426    0.650207    2.077270
     52          1           0       -9.229268    0.365163    3.740741
     53          1           0       -4.742859   -0.132330    4.274628
     54          1           0       -4.328566   -1.859317    3.930609
     55          1           0       -6.391727   -1.798902    5.886807
     56          1           0       -5.447874   -0.395838    6.216059
     57          1           0       -6.507953    4.798070    2.685710
     58          1           0       -6.717303    6.039058    1.510068
     59          1           0       -5.096469    5.817368    2.217930
     60          1           0       -5.587765    7.344870    0.083258
     61          1           0       -4.214807    7.939310   -1.007661
     62          1           0       -3.933089    6.899631    0.414531
     63          1           0       -4.278624    2.560686   -5.214858
     64          1           0       -5.646930   -0.011853   -5.829487
     65          1           0       -6.078422    3.262829   -6.386658
     66          1           0       -7.097833    2.766634   -4.992626
     67          1           0       -6.842495    1.688053   -6.264805
     68          1           0       -3.517305    0.756588   -6.944165
     69          1           0       -3.506685   -0.917016   -6.399390
     70          1           0       -2.201138    1.488347   -5.371547
     71          1           0       -1.475222   -0.136884   -5.613130
     72          1           0       -2.519817    0.245575   -4.171861
     73          1           0       -4.414908   -5.481236   -2.937403
     74          1           0       -4.776772   -4.286001   -4.233371
     75          1           0       -6.142824   -4.977143   -3.262915
     76          1           0       -6.731612   -4.163651    1.753163
     77          1           0       -4.974336   -6.311528    5.057418
     78          1           0       -4.799270   -4.538093    5.608789
     79          1           0       -3.617996   -5.418955    4.621670
     80         12           0        5.313329    0.736536    0.744326
     81          6           0        5.528244   -1.863960   -1.719485
     82          6           0        4.162491   -1.625094    2.919835
     83          6           0        4.686713    3.074561    2.795767
     84          6           0        5.374098    3.033317   -1.876136
     85          7           0        4.937592   -1.430820    0.512690
     86          6           0        5.114272   -2.321861   -0.451254
     87          6           0        4.908715   -3.795881   -0.010171
     88          6           0        3.949133   -3.537795    1.251367
     89          6           0        4.396091   -2.122832    1.613013
     90          6           0        2.474474   -3.494379    0.886884
     91          6           0        6.251573   -4.483644    0.420776
     92          6           0        6.176755   -6.005047    0.567342
     93          1           0        7.343996   -6.798614    0.192792
     94          7           0        5.010295    0.678035    2.704756
     95          6           0        4.561900   -0.369457    3.427937
     96          6           0        4.492533    0.102636    4.819509
     97          6           0        4.779277    1.562864    4.834309
     98          6           0        4.816885    1.838535    3.412099
     99          6           0        4.256918   -0.819110    5.980675
    100          6           0        4.973208    2.550512    5.944781
    101          8           0        4.976024    3.813992    5.729324
    102          6           0        5.066282    1.998541    7.304247
    103          7           0        4.852834    2.748130    0.491820
    104          6           0        4.678204    3.555801    1.552531
    105          6           0        4.630613    5.005474    1.132323
    106          6           0        5.053470    5.019848   -0.409940
    107          6           0        5.191961    3.500216   -0.648537
    108          6           0        3.279617    5.701491    1.295856
    109          6           0        6.239511    5.941338   -0.805942
    110          6           0        7.522128    5.422107   -0.197102
    111          7           0        5.613916    0.649599   -1.393469
    112          6           0        5.573209    1.727276   -2.305080
    113          6           0        5.720833    1.157236   -3.659955
    114          6           0        5.814833   -0.225653   -3.442497
    115          6           0        5.711401   -0.499895   -2.051963
    116          6           0        5.705482    1.893128   -4.878295
    117          6           0        5.967385   -1.516652   -4.073951
    118          8           0        6.187524   -1.901799   -5.221533
    119          6           0        5.661720   -2.645160   -2.997183
    120          6           0        6.756428   -3.673513   -3.078548
    121          8           0        7.924860   -3.378473   -2.771415
    122          8           0        6.209128   -4.883563   -3.294399
    123          6           0        7.254543   -5.938536   -3.371717
    124          1           0        3.581335   -2.235739    3.611404
    125          1           0        4.579760    3.928219    3.469043
    126          1           0        5.501022    3.691641   -2.738213
    127          1           0        4.406123   -4.421871   -0.737706
    128          1           0        4.169701   -4.226444    2.062827
    129          1           0        2.322478   -3.526637   -0.181761
    130          1           0        2.097888   -2.565457    1.294719
    131          1           0        1.934442   -4.291939    1.405126
    132          1           0        6.479334   -4.205942    1.457964
    133          1           0        7.045637   -4.224049   -0.252050
    134          1           0        5.268643   -6.418821    0.112307
    135          1           0        6.079050   -6.247060    1.628427
    136          1           0        3.916605   -1.807246    5.647263
    137          1           0        3.408055   -0.414860    6.542709
    138          1           0        5.120429   -0.888046    6.645702
    139          1           0        4.161894    1.438226    7.529211
    140          1           0        5.292855    2.849071    7.950103
    141          1           0        5.895643    1.283133    7.335346
    142          1           0        5.341919    5.595407    1.697246
    143          1           0        4.231952    5.365555   -1.054467
    144          1           0        3.328878    6.606616    1.930196
    145          1           0        2.575656    4.988684    1.704379
    146          1           0        2.796451    5.996325    0.365887
    147          1           0        6.089306    6.946059   -0.403302
    148          1           0        6.370157    6.040383   -1.878375
    149          1           0        7.496277    5.829891    0.817853
    150          1           0        8.384663    5.790642   -0.748690
    151          1           0        7.504036    4.329221   -0.113812
    152          1           0        6.503757    1.496690   -5.491554
    153          1           0        5.831543    2.959084   -4.700533
    154          1           0        4.701590    1.652954   -5.238576
    155          1           0        4.684561   -3.067836   -3.233983
    156          1           0        7.120398   -6.451691   -4.328988
    157          1           0        7.135530   -6.544866   -2.454141
    158          1           0        8.286655   -5.616801   -3.447035
 ---------------------------------------------------------------------

 SCF Done:  E(RCAM-B3LYP) =  -4069.81236193     A.U. after   19 cycles

 Excitation energies and oscillator strengths:

 Excited State   1:      Singlet-A      1.6706 eV  742.17 nm  f=0.2699  <S**2>=0.000
     310 -> 316        0.14850
     311 -> 313       -0.34383
     312 -> 314        0.59390
 This state for optimization and/or second-order correction.
 Total Energy, E(TD-HF/TD-DFT) =  -4069.75096975
 Copying the excited state density for this state as the 1-particle RhoCI density.

 Excited State   2:      Singlet-A      1.6804 eV  737.84 nm  f=0.4333  <S**2>=0.000
     309 -> 315        0.15227
     311 -> 313        0.59321
     312 -> 314        0.34341

 Excited State   3:      Singlet-A      2.1840 eV  567.70 nm  f=0.0922  <S**2>=0.000
     309 -> 313       -0.12178
     310 -> 314        0.63145
     312 -> 316       -0.26544

 Excited State   4:      Singlet-A      2.1933 eV  565.29 nm  f=0.1045  <S**2>=0.000
     309 -> 313        0.62900
     310 -> 314        0.12075
     311 -> 315       -0.27359

 Excited State   5:      Singlet-A      2.4752 eV  500.90 nm  f=0.0000  <S**2>=0.000
     312 -> 313        0.70709

 The electronic state is 1-A.
 Alpha  occ. eigenvalues --  -46.87897 -46.87476 -19.26525 -19.26162 -19.19268
 Alpha  occ. eigenvalues --  -19.18981 -19.18903 -19.18605 -19.18312 -19.17890
 Alpha  occ. eigenvalues --  -14.42554 -14.42284 -14.41541 -14.41184 -14.39501
 Alpha  occ. eigenvalues --  -14.39174 -14.38693 -14.38421 -10.39315 -10.38908
 Alpha  occ. eigenvalues --  -10.35534 -10.35286 -10.34536 -10.34063 -10.31949
 Alpha  occ. eigenvalues --  -10.31573 -10.31518 -10.31073 -10.31022 -10.30808
 Alpha  occ. eigenvalues --  -10.30677 -10.30608 -10.30282 -10.30236 -10.30174
 Alpha  occ. eigenvalues --  -10.30012 -10.29976 -10.29738 -10.29732 -10.29345
 Alpha  occ. eigenvalues --  -10.29262 -10.29241 -10.28888 -10.28731 -10.28475
 Alpha  occ. eigenvalues --  -10.28418 -10.28387 -10.28237 -10.28221 -10.27897
 Alpha  occ. eigenvalues --  -10.27830 -10.27826 -10.27771 -10.27682 -10.27554
 Alpha  occ. eigenvalues --  -10.27544 -10.27518 -10.27504 -10.27442 -10.27389
 Alpha  occ. eigenvalues --  -10.27318 -10.27313 -10.27309 -10.27292 -10.27265
 Alpha  occ. eigenvalues --  -10.26880 -10.26863 -10.26484 -10.26434 -10.26342
 Alpha  occ. eigenvalues --  -10.26338 -10.26191 -10.26104 -10.26029 -10.25938
 Alpha  occ. eigenvalues --  -10.25763 -10.25716 -10.25482 -10.25451 -10.25326
 Alpha  occ. eigenvalues --  -10.24944 -10.24883 -10.24702 -10.24684 -10.24629
 Alpha  occ. eigenvalues --  -10.24528  -3.16640  -3.16226  -1.91521  -1.91108
 Alpha  occ. eigenvalues --   -1.91108  -1.90950  -1.90697  -1.90534  -1.16873
 Alpha  occ. eigenvalues --   -1.16458  -1.08779  -1.08497  -1.07303  -1.06886
 Alpha  occ. eigenvalues --   -1.06862  -1.06765  -1.04689  -1.04284  -1.03856
 Alpha  occ. eigenvalues --   -1.03478  -1.03333  -1.02868  -1.02510  -1.01934
 Alpha  occ. eigenvalues --   -0.92095  -0.91798  -0.89591  -0.89341  -0.89316
 Alpha  occ. eigenvalues --   -0.88837  -0.88354  -0.88080  -0.87974  -0.87778
 Alpha  occ. eigenvalues --   -0.87628  -0.87477  -0.87363  -0.86975  -0.85108
 Alpha  occ. eigenvalues --   -0.84746  -0.84004  -0.83747  -0.83044  -0.82811
 Alpha  occ. eigenvalues --   -0.82771  -0.82426  -0.81746  -0.81411  -0.80723
 Alpha  occ. eigenvalues --   -0.80260  -0.78891  -0.78473  -0.77317  -0.77065
 Alpha  occ. eigenvalues --   -0.76947  -0.76673  -0.76056  -0.75579  -0.74980
 Alpha  occ. eigenvalues --   -0.74653  -0.72872  -0.72517  -0.71777  -0.71368
 Alpha  occ. eigenvalues --   -0.69953  -0.69623  -0.68993  -0.68591  -0.67752
 Alpha  occ. eigenvalues --   -0.67432  -0.67351  -0.66989  -0.65417  -0.65031
 Alpha  occ. eigenvalues --   -0.64977  -0.64737  -0.64584  -0.64448  -0.64346
 Alpha  occ. eigenvalues --   -0.64049  -0.62466  -0.62100  -0.60528  -0.60194
 Alpha  occ. eigenvalues --   -0.59924  -0.59534  -0.59094  -0.58811  -0.58616
 Alpha  occ. eigenvalues --   -0.58249  -0.57747  -0.57407  -0.57374  -0.57086
 Alpha  occ. eigenvalues --   -0.56423  -0.56161  -0.56026  -0.55695  -0.55627
 Alpha  occ. eigenvalues --   -0.55446  -0.55282  -0.55098  -0.54652  -0.54333
 Alpha  occ. eigenvalues --   -0.54027  -0.53618  -0.53398  -0.53344  -0.53065
 Alpha  occ. eigenvalues --   -0.53057  -0.52949  -0.52857  -0.52707  -0.52481
 Alpha  occ. eigenvalues --   -0.52472  -0.52274  -0.52022  -0.51746  -0.51734
 Alpha  occ. eigenvalues --   -0.51431  -0.51312  -0.51020  -0.50648  -0.50338
 Alpha  occ. eigenvalues --   -0.50097  -0.50010  -0.49797  -0.49700  -0.49633
 Alpha  occ. eigenvalues --   -0.49336  -0.49281  -0.49222  -0.49006  -0.48829
 Alpha  occ. eigenvalues --   -0.48732  -0.48565  -0.48538  -0.48337  -0.48243
 Alpha  occ. eigenvalues --   -0.48185  -0.47802  -0.47397  -0.47397  -0.46954
 Alpha  occ. eigenvalues --   -0.46894  -0.46688  -0.46520  -0.46463  -0.46289
 Alpha  occ. eigenvalues --   -0.46270  -0.46105  -0.45963  -0.45930  -0.45633
 Alpha  occ. eigenvalues --   -0.45275  -0.45068  -0.44711  -0.44604  -0.44342
 Alpha  occ. eigenvalues --   -0.44249  -0.44248  -0.44196  -0.44137  -0.43933
 Alpha  occ. eigenvalues --   -0.43868  -0.43764  -0.43647  -0.43491  -0.43368
 Alpha  occ. eigenvalues --   -0.43171  -0.43136  -0.42897  -0.42750  -0.42724
 Alpha  occ. eigenvalues --   -0.42716  -0.42411  -0.42099  -0.41818  -0.41790
 Alpha  occ. eigenvalues --   -0.41656  -0.41483  -0.41247  -0.41231  -0.40979
 Alpha  occ. eigenvalues --   -0.40921  -0.40759  -0.40644  -0.40568  -0.40478
 Alpha  occ. eigenvalues --   -0.40382  -0.40296  -0.39980  -0.39480  -0.39296
 Alpha  occ. eigenvalues --   -0.38545  -0.38190  -0.37895  -0.37422  -0.37400
 Alpha  occ. eigenvalues --   -0.37393  -0.37093  -0.36967  -0.36904  -0.36598
 Alpha  occ. eigenvalues --   -0.36319  -0.36040  -0.34391  -0.34067  -0.33995
 Alpha  occ. eigenvalues --   -0.33683  -0.33295  -0.32994  -0.31433  -0.31162
 Alpha  occ. eigenvalues --   -0.31142  -0.30785  -0.30175  -0.29792  -0.29549
 Alpha  occ. eigenvalues --   -0.29430  -0.29170  -0.29045  -0.24184  -0.23849
 Alpha  occ. eigenvalues --   -0.21226  -0.20932
 Alpha virt. eigenvalues --   -0.08875  -0.08619  -0.01845  -0.01509  -0.00160
 Alpha virt. eigenvalues --    0.00140   0.02083   0.02368   0.03008   0.03394
 Alpha virt. eigenvalues --    0.04599   0.04878   0.04960   0.05348   0.06012

 Mulliken charges:
               1
     1  Mg   0.838717
     2  C   -0.003626
     3  C   -0.094051
     4  C   -0.045714
     5  C   -0.063621
     6  N   -0.256838
     7  C   -0.052616
     8  C   -0.014050
     9  C   -0.087059
    10  C    0.046294
    11  C    0.104740
    12  C    0.053512
    13  C   -0.071409
    14  H    0.034291
    15  N   -0.433196
    16  C    0.168587
    17  C   -0.176874
    18  C   -0.003795
    19  C    0.148791
    20  C    0.110046
    21  C    0.012246
    22  O   -0.249482
    23  C    0.062395
    24  N   -0.341154
    25  C    0.041435
    26  C   -0.028234
    27  C   -0.024078
    28  C    0.074843
    29  C    0.076091
    30  C    0.035020
    31  C   -0.004768
    32  N   -0.310305
    33  C    0.080116
    34  C   -0.169880
    35  C    0.007984
    36  C    0.082617
    37  C    0.127415
    38  C    0.045448
    39  O   -0.189170
    40  C   -0.005134
    41  C    0.213055
    42  O   -0.259059
    43  O   -0.304180
    44  C    0.158226
    45  H   -0.017384
    46  H   -0.016561
    47  H   -0.040983
    48  H    0.000850
    49  H   -0.003926
    50  H    0.025484
    51  H    0.016732
    52  H    0.016870
    53  H    0.011593
    54  H    0.042822
    55  H    0.018300
    56  H    0.018527
    57  H    0.006001
    58  H    0.027060
    59  H    0.040142
    60  H    0.037597
    61  H    0.035652
    62  H    0.031725
    63  H    0.016756
    64  H    0.009679
    65  H    0.023476
    66  H    0.012448
    67  H    0.005040
    68  H    0.006862
    69  H    0.005249
    70  H    0.008550
    71  H    0.019741
    72  H    0.028272
    73  H    0.046956
    74  H    0.009760
    75  H    0.046181
    76  H    0.035432
    77  H    0.043204
    78  H    0.046636
    79  H    0.051679
    80  Mg   0.837764
    81  C   -0.016877
    82  C   -0.087161
    83  C   -0.046158
    84  C   -0.065048
    85  N   -0.254842
    86  C   -0.049036
    87  C   -0.015269
    88  C   -0.090480
    89  C    0.045736
    90  C    0.114045
    91  C    0.062404
    92  C   -0.077728
    93  H    0.033654
    94  N   -0.423524
    95  C    0.162792
    96  C   -0.174319
    97  C   -0.008543
    98  C    0.152458
    99  C    0.099421
   100  C    0.015104
   101  O   -0.254076
   102  C    0.061375
   103  N   -0.350103
   104  C    0.037649
   105  C   -0.019743
   106  C   -0.034893
   107  C    0.088900
   108  C    0.073794
   109  C    0.034878
   110  C   -0.007569
   111  N   -0.324024
   112  C    0.078413
   113  C   -0.163472
   114  C    0.002111
   115  C    0.096172
   116  C    0.131584
   117  C    0.041951
   118  O   -0.188582
   119  C    0.001192
   120  C    0.211212
   121  O   -0.251352
   122  O   -0.305298
   123  C    0.152208
   124  H   -0.017535
   125  H   -0.016584
   126  H   -0.040837
   127  H    0.000188
   128  H   -0.004489
   129  H    0.022427
   130  H    0.015622
   131  H    0.022470
   132  H    0.013395
   133  H    0.036903
   134  H    0.022099
   135  H    0.019686
   136  H    0.009719
   137  H    0.025500
   138  H    0.039203
   139  H    0.037839
   140  H    0.035592
   141  H    0.034005
   142  H    0.013916
   143  H    0.012694
   144  H    0.023961
   145  H    0.011048
   146  H    0.005960
   147  H    0.005710
   148  H    0.003628
   149  H    0.010572
   150  H    0.017607
   151  H    0.030400
   152  H    0.045586
   153  H    0.008313
   154  H    0.046489
   155  H    0.035539
   156  H    0.043544
   157  H    0.049991
   158  H    0.053122
 Sum of Mulliken charges =  -0.00000

 Dipole moment (field-independent basis, Debye):
    X=             -5.0826    Y=              1.5819    Z=              5.3067  Tot=              7.5164
 Quadrupole moment (field-independent basis, Debye-Ang):
   XX=           -518.7598   YY=           -511.9185   ZZ=           -488.1723
   XY=            -21.6625   XZ=              3.3823   YZ=            -13.3490

 Normal termination of Gaussian 16 at Sat Sep  4 06:30:08 2021.
