 Gaussian 16, Revision A.03,
 Gaussian 16:  ES64L-G16RevA.03 25-Dec-2016

 -----------------------------------
 #p cam-b3lyp/Def2SVP td=(nstates=5)
 -----------------------------------

 --------------------------------
 TDDFT excited states in gaussian
 --------------------------------
 Symbolic Z-matrix:
 Charge =  0 Multiplicity = 1

                         Standard orientation:
 ---------------------------------------------------------------------
 Center     Atomic      Atomic             Coordinates (Angstroms)
 Number     Number       Type             X           Y           Z
 ---------------------------------------------------------------------
      1         12           0        6.788492   -0.443166    0.060505
      2          6           0        6.845863    2.785837   -1.483018
      3          6           0        7.627416    1.103757    2.983911
      4          6           0        7.188566   -3.317076    1.340039
      5          6           0        7.077247   -1.811265   -3.131765
      6          7           0        7.159947    1.681122    0.560573
      7          6           0        7.090938    2.827649   -0.108669
      8          6           0        7.228702    4.084030    0.802321
      9          6           0        8.019885    3.426305    2.020280
     10          6           0        7.548091    1.990823    1.869526
     11          6           0        9.535607    3.465173    1.854219
     12          6           0        5.838957    4.643716    1.257394
     13          6           0        5.868930    6.045797    1.872718
     14          1           0        4.753435    6.945377    1.620177
     15          7           0        6.848140   -1.005866    1.953297
     16          6           0        7.196042   -0.240044    3.015261
     17          6           0        7.082468   -1.114029    4.202667
     18          6           0        6.823998   -2.500488    3.724108
     19          6           0        6.971178   -2.332414    2.300919
     20          6           0        7.168859   -0.606376    5.609286
     21          6           0        6.506685   -3.776817    4.437149
     22          8           0        6.548318   -4.912086    3.850630
     23          6           0        6.228397   -3.671071    5.880900
     24          7           0        7.310416   -2.296501   -0.745956
     25          6           0        7.356507   -3.393275    0.018209
     26          6           0        7.471299   -4.635058   -0.815300
     27          6           0        7.248845   -4.174310   -2.327906
     28          6           0        7.118750   -2.649086   -2.093303
     29          6           0        8.799869   -5.395611   -0.703620
     30          6           0        6.133793   -4.895564   -3.125947
     31          6           0        4.780601   -4.543478   -2.549748
     32          7           0        6.759586    0.309814   -1.974988
     33          6           0        6.920225   -0.435472   -3.152026
     34          6           0        6.935445    0.523562   -4.271888
     35          6           0        6.798344    1.769568   -3.663187
     36          6           0        6.729863    1.601652   -2.250598
     37          6           0        7.121937    0.198967   -5.644583
     38          6           0        6.718525    3.205624   -3.875857
     39          8           0        6.630701    3.931906   -4.866965
     40          6           0        6.868589    3.930087   -2.465728
     41          6           0        5.779423    4.963211   -2.367330
     42          8           0        4.580332    4.624188   -2.299431
     43          8           0        6.326887    6.165147   -2.130318
     44          6           0        5.298442    7.230704   -1.992320
     45          1           0        8.116761    1.446604    3.897661
     46          1           0        7.221482   -4.336053    1.731243
     47          1           0        7.079020   -2.171309   -4.162210
     48          1           0        7.815800    4.895437    0.371787
     49          1           0        7.699649    3.831633    2.979905
     50          1           0        9.818914    3.823370    0.864596
     51          1           0        9.870545    2.437657    1.997468
     52          1           0        9.998072    4.045225    2.653246
     53          1           0        5.484733    4.072161    2.115247
     54          1           0        5.127304    4.627730    0.431186
     55          1           0        6.816591    6.547601    1.675132
     56          1           0        5.837612    5.943452    2.957496
     57          1           0        7.528433    0.421305    5.642795
     58          1           0        7.947290   -1.182932    6.108623
     59          1           0        6.226366   -0.719893    6.145153
     60          1           0        7.092264   -3.234878    6.382914
     61          1           0        5.934784   -4.669054    6.204429
     62          1           0        5.402664   -2.975007    6.031269
     63          1           0        6.703555   -5.359223   -0.545892
     64          1           0        8.143776   -4.315684   -2.934360
     65          1           0        8.684578   -6.435835   -0.398091
     66          1           0        9.441481   -4.853078   -0.009875
     67          1           0        9.406641   -5.391060   -1.608729
     68          1           0        6.246457   -5.976014   -3.042993
     69          1           0        6.131224   -4.642824   -4.186309
     70          1           0        4.679535   -5.243017   -1.720735
     71          1           0        3.997946   -4.702403   -3.292315
     72          1           0        4.776333   -3.537517   -2.129618
     73          1           0        6.393813    0.790434   -6.199534
     74          1           0        6.983627   -0.867392   -5.821649
     75          1           0        8.154845    0.515615   -5.788432
     76          1           0        7.861291    4.378802   -2.447912
     77          1           0        5.540791    8.006688   -2.718508
     78          1           0        5.281940    7.510882   -0.938929
     79          1           0        4.286697    6.967216   -2.302617
     80         12           0       -6.428683   -0.977799    0.187859
     81          6           0       -8.781465    1.725081   -0.006861
     82          6           0       -4.040677    1.350075    0.904117
     83          6           0       -4.253636   -3.272763   -0.076165
     84          6           0       -8.697735   -2.900135   -1.629219
     85          7           0       -6.522071    1.222346    0.394941
     86          6           0       -7.482321    2.133952    0.359853
     87          6           0       -7.041575    3.550342    0.817193
     88          6           0       -5.469611    3.422342    0.514801
     89          6           0       -5.318063    1.908206    0.645488
     90          6           0       -5.095341    3.819173   -0.903565
     91          6           0       -7.314828    3.797994    2.342318
     92          6           0       -7.196760    5.257122    2.788152
     93          1           0       -8.100759    5.742801    3.827081
     94          7           0       -4.559273   -1.057729    0.849293
     95          6           0       -3.742472   -0.015111    1.108251
     96          6           0       -2.468470   -0.602434    1.551135
     97          6           0       -2.545918   -2.078144    1.375045
     98          6           0       -3.809177   -2.194081    0.674471
     99          6           0       -1.361835    0.213865    2.153163
    100          6           0       -1.628026   -3.198425    1.760591
    101          8           0       -1.780809   -4.383775    1.297512
    102          6           0       -0.490032   -2.846501    2.622335
    103          7           0       -6.373182   -2.749588   -0.898427
    104          6           0       -5.331112   -3.592756   -0.793072
    105          6           0       -5.635012   -4.919858   -1.446388
    106          6           0       -7.193475   -4.876481   -1.802617
    107          6           0       -7.515374   -3.433851   -1.354758
    108          6           0       -4.833523   -5.239217   -2.708136
    109          6           0       -8.072965   -6.033934   -1.255381
    110          6           0       -8.155878   -5.950959    0.251803
    111          7           0       -8.457739   -0.738425   -0.514768
    112          6           0       -9.209495   -1.657020   -1.279708
    113          6           0      -10.490966   -1.001200   -1.611606
    114          6           0      -10.385647    0.272010   -1.031650
    115          6           0       -9.119268    0.407859   -0.401296
    116          6           0      -11.535509   -1.565670   -2.396734
    117          6           0      -11.053574    1.535786   -0.818472
    118          8           0      -12.180773    1.972171   -1.048062
    119          6           0       -9.994669    2.578122   -0.253982
    120          6           0      -10.613182    3.275385    0.926611
    121          8           0      -10.883519    2.643812    1.963258
    122          8           0      -10.582695    4.604423    0.719042
    123          6           0      -11.175243    5.340002    1.867796
    124          1           0       -3.175912    2.014180    0.910301
    125          1           0       -3.583632   -4.135176   -0.104959
    126          1           0       -9.497518   -3.468345   -2.108972
    127          1           0       -7.465485    4.365473    0.243056
    128          1           0       -4.878997    3.931429    1.272015
    129          1           0       -5.966971    4.009676   -1.511928
    130          1           0       -4.530113    2.987010   -1.302414
    131          1           0       -4.408447    4.670220   -0.888088
    132          1           0       -6.499118    3.355788    2.928664
    133          1           0       -8.274024    3.410133    2.625421
    134          1           0       -7.183004    5.948434    1.936780
    135          1           0       -6.222578    5.397169    3.262892
    136          1           0       -1.525698    1.287848    2.001159
    137          1           0       -0.454299   -0.006152    1.580587
    138          1           0       -1.184155   -0.027022    3.203435
    139          1           0        0.117041   -2.091523    2.128446
    140          1           0       -0.001338   -3.792868    2.862019
    141          1           0       -0.874908   -2.389468    3.540812
    142          1           0       -5.453846   -5.738768   -0.761060
    143          1           0       -7.364422   -4.913938   -2.888536
    144          1           0       -4.269824   -6.188671   -2.638506
    145          1           0       -4.163607   -4.412839   -2.905244
    146          1           0       -5.416986   -5.287613   -3.625967
    147          1           0       -7.616611   -6.999120   -1.488458
    148          1           0       -9.077022   -6.044868   -1.666182
    149          1           0       -7.236395   -6.446706    0.577197
    150          1           0       -9.037084   -6.474955    0.616416
    151          1           0       -8.107231   -4.909994    0.591925
    152          1           0      -12.464157   -1.333798   -1.892401
    153          1           0      -11.405632   -2.638996   -2.518633
    154          1           0      -11.387820   -1.025084   -3.335466
    155          1           0       -9.756253    3.272355   -1.060690
    156          1           0      -11.971740    5.973300    1.465058
    157          1           0      -10.328664    5.850200    2.364544
    158          1           0      -11.717785    4.762141    2.606825
 ---------------------------------------------------------------------

 SCF Done:  E(RCAM-B3LYP) =  -4069.81184054     A.U. after   19 cycles

 Excitation energies and oscillator strengths:

 Excited State   1:      Singlet-A      1.6699 eV  742.46 nm  f=0.2710  <S**2>=0.000
     309 -> 315       -0.10332
     310 -> 316        0.13812
     311 -> 313       -0.40972
     312 -> 314        0.55070
 This state for optimization and/or second-order correction.
 Total Energy, E(TD-HF/TD-DFT) =  -4069.75047239
 Copying the excited state density for this state as the 1-particle RhoCI density.

 Excited State   2:      Singlet-A      1.6836 eV  736.43 nm  f=0.5083  <S**2>=0.000
     309 -> 315        0.14217
     310 -> 316        0.10477
     311 -> 313        0.54989
     312 -> 314        0.40919

 Excited State   3:      Singlet-A      2.1851 eV  567.40 nm  f=0.0371  <S**2>=0.000
     309 -> 313        0.21334
     310 -> 314        0.60685
     312 -> 316       -0.25672

 Excited State   4:      Singlet-A      2.1942 eV  565.05 nm  f=0.1505  <S**2>=0.000
     309 -> 313        0.60423
     310 -> 314       -0.21150
     311 -> 315       -0.26387

 Excited State   5:      Singlet-A      2.5979 eV  477.24 nm  f=0.0000  <S**2>=0.000
     312 -> 313        0.70690

 The electronic state is 1-A.
 Alpha  occ. eigenvalues --  -46.87974 -46.87543 -19.26516 -19.26270 -19.19260
 Alpha  occ. eigenvalues --  -19.19078 -19.18952 -19.18592 -19.18345 -19.17945
 Alpha  occ. eigenvalues --  -14.42629 -14.42376 -14.41606 -14.41243 -14.39578
 Alpha  occ. eigenvalues --  -14.39232 -14.38760 -14.38484 -10.39312 -10.39005
 Alpha  occ. eigenvalues --  -10.35585 -10.35270 -10.34568 -10.34123 -10.31920
 Alpha  occ. eigenvalues --  -10.31690 -10.31585 -10.31185 -10.31096 -10.30900
 Alpha  occ. eigenvalues --  -10.30743 -10.30668 -10.30349 -10.30285 -10.30243
 Alpha  occ. eigenvalues --  -10.30062 -10.30022 -10.29793 -10.29785 -10.29418
 Alpha  occ. eigenvalues --  -10.29314 -10.29286 -10.28964 -10.28810 -10.28601
 Alpha  occ. eigenvalues --  -10.28582 -10.28543 -10.28312 -10.28285 -10.28001
 Alpha  occ. eigenvalues --  -10.27960 -10.27900 -10.27882 -10.27750 -10.27657
 Alpha  occ. eigenvalues --  -10.27586 -10.27580 -10.27536 -10.27533 -10.27418
 Alpha  occ. eigenvalues --  -10.27367 -10.27350 -10.27348 -10.27327 -10.27276
 Alpha  occ. eigenvalues --  -10.26976 -10.26947 -10.26602 -10.26551 -10.26405
 Alpha  occ. eigenvalues --  -10.26292 -10.26218 -10.26168 -10.26053 -10.25980
 Alpha  occ. eigenvalues --  -10.25838 -10.25820 -10.25752 -10.25509 -10.25297
 Alpha  occ. eigenvalues --  -10.25002 -10.24939 -10.24757 -10.24683 -10.24652
 Alpha  occ. eigenvalues --  -10.24574  -3.16718  -3.16293  -1.91600  -1.91186
 Alpha  occ. eigenvalues --   -1.91175  -1.91028  -1.90763  -1.90600  -1.16865
 Alpha  occ. eigenvalues --   -1.16563  -1.08806  -1.08556  -1.07351  -1.06879
 Alpha  occ. eigenvalues --   -1.06862  -1.06843  -1.04761  -1.04374  -1.03921
 Alpha  occ. eigenvalues --   -1.03545  -1.03400  -1.02922  -1.02575  -1.01994
 Alpha  occ. eigenvalues --   -0.92149  -0.91873  -0.89640  -0.89389  -0.89388
 Alpha  occ. eigenvalues --   -0.89025  -0.88398  -0.88116  -0.88030  -0.87848
 Alpha  occ. eigenvalues --   -0.87683  -0.87565  -0.87437  -0.86996  -0.85176
 Alpha  occ. eigenvalues --   -0.84883  -0.84038  -0.83777  -0.83103  -0.82827
 Alpha  occ. eigenvalues --   -0.82815  -0.82535  -0.81777  -0.81498  -0.80773
 Alpha  occ. eigenvalues --   -0.80335  -0.78961  -0.78515  -0.77378  -0.77110
 Alpha  occ. eigenvalues --   -0.77030  -0.76793  -0.76106  -0.75719  -0.75020
 Alpha  occ. eigenvalues --   -0.74697  -0.72932  -0.72583  -0.71831  -0.71462
 Alpha  occ. eigenvalues --   -0.69986  -0.69660  -0.69057  -0.68712  -0.67808
 Alpha  occ. eigenvalues --   -0.67490  -0.67425  -0.67093  -0.65482  -0.65159
 Alpha  occ. eigenvalues --   -0.65025  -0.64788  -0.64659  -0.64545  -0.64391
 Alpha  occ. eigenvalues --   -0.64099  -0.62488  -0.62182  -0.60593  -0.60223
 Alpha  occ. eigenvalues --   -0.59995  -0.59674  -0.59148  -0.58879  -0.58667
 Alpha  occ. eigenvalues --   -0.58315  -0.57776  -0.57454  -0.57453  -0.57128
 Alpha  occ. eigenvalues --   -0.56477  -0.56186  -0.56089  -0.55789  -0.55684
 Alpha  occ. eigenvalues --   -0.55475  -0.55340  -0.55148  -0.54673  -0.54393
 Alpha  occ. eigenvalues --   -0.54099  -0.53791  -0.53454  -0.53405  -0.53116
 Alpha  occ. eigenvalues --   -0.53095  -0.53029  -0.52929  -0.52795  -0.52543
 Alpha  occ. eigenvalues --   -0.52508  -0.52309  -0.52067  -0.51814  -0.51781
 Alpha  occ. eigenvalues --   -0.51545  -0.51356  -0.51095  -0.50728  -0.50353
 Alpha  occ. eigenvalues --   -0.50151  -0.50066  -0.49858  -0.49757  -0.49691
 Alpha  occ. eigenvalues --   -0.49389  -0.49367  -0.49277  -0.49083  -0.48986
 Alpha  occ. eigenvalues --   -0.48774  -0.48606  -0.48584  -0.48445  -0.48274
 Alpha  occ. eigenvalues --   -0.48219  -0.47858  -0.47478  -0.47454  -0.46999
 Alpha  occ. eigenvalues --   -0.46950  -0.46753  -0.46598  -0.46516  -0.46436
 Alpha  occ. eigenvalues --   -0.46314  -0.46157  -0.45998  -0.45981  -0.45721
 Alpha  occ. eigenvalues --   -0.45317  -0.45102  -0.44751  -0.44664  -0.44408
 Alpha  occ. eigenvalues --   -0.44358  -0.44294  -0.44254  -0.44187  -0.44007
 Alpha  occ. eigenvalues --   -0.43972  -0.43822  -0.43676  -0.43551  -0.43458
 Alpha  occ. eigenvalues --   -0.43273  -0.43187  -0.42902  -0.42836  -0.42794
 Alpha  occ. eigenvalues --   -0.42759  -0.42447  -0.42141  -0.41869  -0.41864
 Alpha  occ. eigenvalues --   -0.41718  -0.41558  -0.41350  -0.41304  -0.41042
 Alpha  occ. eigenvalues --   -0.40982  -0.40866  -0.40685  -0.40610  -0.40585
 Alpha  occ. eigenvalues --   -0.40463  -0.40388  -0.40125  -0.39508  -0.39331
 Alpha  occ. eigenvalues --   -0.38594  -0.38246  -0.37967  -0.37553  -0.37463
 Alpha  occ. eigenvalues --   -0.37452  -0.37158  -0.37084  -0.36911  -0.36684
 Alpha  occ. eigenvalues --   -0.36358  -0.36113  -0.34455  -0.34139  -0.33998
 Alpha  occ. eigenvalues --   -0.33772  -0.33356  -0.33059  -0.31481  -0.31201
 Alpha  occ. eigenvalues --   -0.31151  -0.30855  -0.30206  -0.29851  -0.29618
 Alpha  occ. eigenvalues --   -0.29491  -0.29207  -0.29096  -0.24250  -0.23918
 Alpha  occ. eigenvalues --   -0.21292  -0.20998
 Alpha virt. eigenvalues --   -0.08941  -0.08673  -0.01911  -0.01566  -0.00224
 Alpha virt. eigenvalues --    0.00094   0.02037   0.02316   0.02844   0.03325
 Alpha virt. eigenvalues --    0.04529   0.04846   0.04873   0.05254   0.05946

 Mulliken charges:
               1
     1  Mg   0.836947
     2  C   -0.003676
     3  C   -0.094812
     4  C   -0.045363
     5  C   -0.063430
     6  N   -0.256845
     7  C   -0.052895
     8  C   -0.013814
     9  C   -0.086856
    10  C    0.045856
    11  C    0.104733
    12  C    0.053645
    13  C   -0.071536
    14  H    0.034927
    15  N   -0.433261
    16  C    0.167842
    17  C   -0.177677
    18  C   -0.004171
    19  C    0.148293
    20  C    0.110202
    21  C    0.012093
    22  O   -0.248472
    23  C    0.062706
    24  N   -0.341194
    25  C    0.041277
    26  C   -0.028362
    27  C   -0.024126
    28  C    0.074992
    29  C    0.076011
    30  C    0.034881
    31  C   -0.004428
    32  N   -0.310510
    33  C    0.080341
    34  C   -0.169446
    35  C    0.008410
    36  C    0.082694
    37  C    0.127292
    38  C    0.045990
    39  O   -0.188281
    40  C   -0.005232
    41  C    0.213108
    42  O   -0.258334
    43  O   -0.304425
    44  C    0.157782
    45  H   -0.017448
    46  H   -0.015994
    47  H   -0.040868
    48  H    0.001230
    49  H   -0.004337
    50  H    0.025674
    51  H    0.016811
    52  H    0.016893
    53  H    0.010070
    54  H    0.043040
    55  H    0.018711
    56  H    0.017943
    57  H    0.005783
    58  H    0.027406
    59  H    0.038720
    60  H    0.037568
    61  H    0.036542
    62  H    0.030268
    63  H    0.017621
    64  H    0.009634
    65  H    0.023859
    66  H    0.012368
    67  H    0.004959
    68  H    0.007068
    69  H    0.004651
    70  H    0.010363
    71  H    0.019355
    72  H    0.027586
    73  H    0.047625
    74  H    0.009605
    75  H    0.046291
    76  H    0.035481
    77  H    0.043496
    78  H    0.046232
    79  H    0.052894
    80  Mg   0.837836
    81  C   -0.016862
    82  C   -0.087730
    83  C   -0.045394
    84  C   -0.064902
    85  N   -0.254571
    86  C   -0.049836
    87  C   -0.015127
    88  C   -0.090393
    89  C    0.045524
    90  C    0.114123
    91  C    0.062605
    92  C   -0.077586
    93  H    0.034193
    94  N   -0.423629
    95  C    0.162734
    96  C   -0.173781
    97  C   -0.007821
    98  C    0.152334
    99  C    0.099129
   100  C    0.015648
   101  O   -0.253012
   102  C    0.061074
   103  N   -0.350010
   104  C    0.037642
   105  C   -0.019869
   106  C   -0.034746
   107  C    0.088829
   108  C    0.073617
   109  C    0.034804
   110  C   -0.007622
   111  N   -0.324034
   112  C    0.078300
   113  C   -0.163331
   114  C    0.002177
   115  C    0.096045
   116  C    0.131532
   117  C    0.042219
   118  O   -0.188280
   119  C    0.000957
   120  C    0.211193
   121  O   -0.251238
   122  O   -0.305531
   123  C    0.152150
   124  H   -0.018060
   125  H   -0.015615
   126  H   -0.040737
   127  H   -0.000674
   128  H   -0.004592
   129  H    0.022245
   130  H    0.015673
   131  H    0.017148
   132  H    0.013619
   133  H    0.037449
   134  H    0.020948
   135  H    0.019310
   136  H    0.009499
   137  H    0.027659
   138  H    0.038318
   139  H    0.038478
   140  H    0.037501
   141  H    0.032666
   142  H    0.014225
   143  H    0.012342
   144  H    0.024796
   145  H    0.012127
   146  H    0.005581
   147  H    0.006035
   148  H    0.003491
   149  H    0.010857
   150  H    0.017652
   151  H    0.030175
   152  H    0.045703
   153  H    0.008295
   154  H    0.046904
   155  H    0.035138
   156  H    0.043752
   157  H    0.049401
   158  H    0.053360
 Sum of Mulliken charges =  -0.00000

 Dipole moment (field-independent basis, Debye):
    X=              6.3353    Y=              2.0386    Z=              3.9614  Tot=              7.7450
 Quadrupole moment (field-independent basis, Debye-Ang):
   XX=           -559.1984   YY=           -487.5880   ZZ=           -500.4349
   XY=             17.4153   XZ=             32.3815   YZ=             52.4731

 Normal termination of Gaussian 16 at Sat Sep 11 16:59:30 2021.
