 Gaussian 16, Revision A.03,
 Gaussian 16:  ES64L-G16RevA.03 25-Dec-2016

 -----------------------------------
 #p cam-b3lyp/Def2SVP td=(nstates=5)
 -----------------------------------

 --------------------------------
 TDDFT excited states in gaussian
 --------------------------------
 Symbolic Z-matrix:
 Charge =  0 Multiplicity = 1

                         Standard orientation:
 ---------------------------------------------------------------------
 Center     Atomic      Atomic             Coordinates (Angstroms)
 Number     Number       Type             X           Y           Z
 ---------------------------------------------------------------------
      1         12           0        6.181162    0.937929    0.531410
      2          6           0        6.672532   -2.287965   -0.939771
      3          6           0        7.148433    2.281443   -2.452283
      4          6           0        6.193214    3.779726    1.938773
      5          6           0        6.360216   -0.617825    3.644805
      6          7           0        6.805229    0.010801   -1.379511
      7          6           0        6.893456   -1.236160   -1.831702
      8          6           0        7.169015   -1.320055   -3.362847
      9          6           0        7.847317    0.107126   -3.575114
     10          6           0        7.202866    0.856256   -2.422113
     11          6           0        9.359015    0.099486   -3.372105
     12          6           0        5.851347   -1.457929   -4.197397
     13          6           0        6.044092   -1.871396   -5.659329
     14          1           0        5.055072   -2.741721   -6.277165
     15          7           0        6.132239    2.753161   -0.246659
     16          6           0        6.551906    3.116101   -1.482555
     17          6           0        6.306305    4.570663   -1.585562
     18          6           0        5.886126    5.057430   -0.242208
     19          6           0        6.081514    3.872494    0.553485
     20          6           0        6.427416    5.336863   -2.866976
     21          6           0        5.397585    6.383460    0.248816
     22          8           0        5.308651    6.656755    1.494598
     23          6           0        5.105966    7.398135   -0.779987
     24          7           0        6.483270    1.543288    2.506228
     25          6           0        6.376637    2.829392    2.857722
     26          6           0        6.351882    2.987581    4.349132
     27          6           0        6.218982    1.513279    4.947903
     28          6           0        6.275935    0.714267    3.622533
     29          6           0        7.572453    3.681974    4.968838
     30          6           0        5.038646    1.251563    5.916784
     31          6           0        3.728868    1.341726    5.166150
     32          7           0        6.287214   -1.104509    1.258213
     33          6           0        6.376858   -1.520327    2.594526
     34          6           0        6.534182   -2.986321    2.581148
     35          6           0        6.541818   -3.321874    1.228672
     36          6           0        6.424728   -2.137674    0.446208
     37          6           0        6.705967   -3.816496    3.723835
     38          6           0        6.646414   -4.402906    0.262087
     39          8           0        6.669858   -5.632370    0.335305
     40          6           0        6.857721   -3.765358   -1.181765
     41          6           0        5.904515   -4.448434   -2.124163
     42          8           0        4.671334   -4.295726   -2.008790
     43          8           0        6.593110   -4.976118   -3.147847
     44          6           0        5.703401   -5.643567   -4.135310
     45          1           0        7.658481    2.812177   -3.258578
     46          1           0        6.090675    4.728982    2.468712
     47          1           0        6.337510   -1.180427    4.579907
     48          1           0        7.861414   -2.108849   -3.657484
     49          1           0        7.561196    0.556313   -4.525950
     50          1           0        9.704557   -0.860172   -2.987946
     51          1           0        9.559945    0.892611   -2.651637
     52          1           0        9.874342    0.389256   -4.288210
     53          1           0        5.411412   -0.470949   -4.340189
     54          1           0        5.159897   -2.149821   -3.715207
     55          1           0        7.050803   -2.250786   -5.836828
     56          1           0        5.978600   -0.976839   -6.278747
     57          1           0        6.911907    4.745506   -3.642934
     58          1           0        7.117547    6.159769   -2.681900
     59          1           0        5.467630    5.730312   -3.202146
     60          1           0        6.007403    7.589355   -1.362563
     61          1           0        4.683499    8.251017   -0.249928
     62          1           0        4.370898    6.993689   -1.476442
     63          1           0        5.494410    3.580183    4.665345
     64          1           0        7.101131    1.222666    5.518894
     65          1           0        7.321952    4.564807    5.557530
     66          1           0        8.262895    3.931784    4.163744
     67          1           0        8.192961    3.042159    5.595754
     68          1           0        5.013675    2.010770    6.697762
     69          1           0        5.088839    0.277198    6.402936
     70          1           0        3.524630    2.411814    5.160620
     71          1           0        2.947450    0.797866    5.697950
     72          1           0        3.842019    1.026228    4.128777
     73          1           0        6.068712   -4.686748    3.567196
     74          1           0        6.438988   -3.289730    4.639719
     75          1           0        7.773019   -4.029161    3.660349
     76          1           0        7.898179   -3.941465   -1.452978
     77          1           0        6.055292   -6.669712   -4.242233
     78          1           0        5.701053   -5.014136   -5.025376
     79          1           0        4.673043   -5.811180   -3.819704
     80         12           0       -6.994624    0.110301   -0.243194
     81          6           0       -4.329818   -2.196748    0.431617
     82          6           0       -4.609161    2.512755   -0.658376
     83          6           0       -9.325468    2.257605   -0.397069
     84          6           0       -9.150788   -2.138701    1.318421
     85          7           0       -4.788045    0.043832   -0.105862
     86          6           0       -3.882810   -0.901728    0.096175
     87          6           0       -2.417460   -0.452286   -0.149421
     88          6           0       -2.607100    1.124951    0.085574
     89          6           0       -4.084356    1.250851   -0.281202
     90          6           0       -2.438161    1.541739    1.537159
     91          6           0       -1.934245   -0.761423   -1.609884
     92          6           0       -0.425065   -0.633600   -1.828531
     93          1           0        0.224764   -1.557073   -2.754474
     94          7           0       -6.990949    1.960520   -0.961011
     95          6           0       -5.929453    2.785516   -1.078820
     96          6           0       -6.454589    4.038826   -1.642388
     97          6           0       -7.938880    3.944361   -1.693860
     98          6           0       -8.148455    2.698168   -0.984511
     99          6           0       -5.566690    5.141291   -2.142031
    100          6           0       -8.995679    4.835404   -2.273014
    101          8           0      -10.236687    4.677347   -1.994167
    102          6           0       -8.526759    5.955651   -3.101650
    103          7           0       -8.913486    0.168034    0.554928
    104          6           0       -9.741097    1.194536    0.291745
    105          6           0      -11.149964    0.888291    0.740849
    106          6           0      -11.145846   -0.659576    1.142907
    107          6           0       -9.648037   -0.971817    0.932015
    108          6           0      -11.668839    1.717537    1.915374
    109          6           0      -12.195553   -1.569863    0.448541
    110          6           0      -11.879805   -1.690689   -1.024925
    111          7           0       -6.845470   -1.896081    0.544345
    112          6           0       -7.863317   -2.641092    1.179198
    113          6           0       -7.253278   -3.903757    1.643919
    114          6           0       -5.906917   -3.794878    1.264512
    115          6           0       -5.688553   -2.543465    0.627516
    116          6           0       -7.921319   -4.935697    2.361494
    117          6           0       -4.618458   -4.449536    1.267493
    118          8           0       -4.211000   -5.563871    1.593016
    119          6           0       -3.512549   -3.390485    0.841113
    120          6           0       -2.634790   -4.029177   -0.200104
    121          8           0       -3.095701   -4.335594   -1.313776
    122          8           0       -1.354177   -3.973826    0.208978
    123          6           0       -0.443754   -4.585180   -0.795608
    124          1           0       -3.961176    3.386710   -0.586244
    125          1           0      -10.188943    2.915409   -0.520317
    126          1           0       -9.777912   -2.933985    1.726972
    127          1           0       -1.696444   -0.849144    0.555144
    128          1           0       -1.993332    1.703100   -0.600285
    129          1           0       -2.334843    0.689090    2.191722
    130          1           0       -3.327841    2.104875    1.786968
    131          1           0       -1.602190    2.240395    1.633905
    132          1           0       -2.289048    0.032207   -2.279965
    133          1           0       -2.263628   -1.733231   -1.922504
    134          1           0        0.126193   -0.587592   -0.881461
    135          1           0       -0.223553    0.329869   -2.303022
    136          1           0       -4.527442    4.997191   -1.821721
    137          1           0       -5.882032    6.060082   -1.635808
    138          1           0       -5.644226    5.288066   -3.221437
    139          1           0       -7.863570    6.586364   -2.514410
    140          1           0       -9.429774    6.424030   -3.497950
    141          1           0       -7.929267    5.553780   -3.927559
    142          1           0      -11.854979    1.039566   -0.067339
    143          1           0      -11.348863   -0.802774    2.214413
    144          1           0      -12.601991    2.265250    1.684455
    145          1           0      -10.889916    2.404396    2.218762
    146          1           0      -11.852385    1.157478    2.830715
    147          1           0      -13.189876   -1.121804    0.517157
    148          1           0      -12.259318   -2.562958    0.880622
    149          1           0      -12.328906   -0.787336   -1.448424
    150          1           0      -12.331899   -2.588665   -1.441202
    151          1           0      -10.799353   -1.635646   -1.201689
    152          1           0       -7.604590   -5.873641    1.925097
    153          1           0       -9.001901   -4.818460    2.312771
    154          1           0       -7.533869   -4.755761    3.367865
    155          1           0       -2.953856   -3.121038    1.738233
    156          1           0        0.128010   -5.361578   -0.277944
    157          1           0        0.128187   -3.744408   -1.231208
    158          1           0       -0.894754   -5.155163   -1.599456
 ---------------------------------------------------------------------

 SCF Done:  E(RCAM-B3LYP) =  -4069.81228874     A.U. after   19 cycles

 Excitation energies and oscillator strengths:

 Excited State   1:      Singlet-A      1.6633 eV  745.41 nm  f=0.0046  <S**2>=0.000
     309 -> 315       -0.11487
     310 -> 316        0.12605
     311 -> 313       -0.46037
     312 -> 314        0.50962
 This state for optimization and/or second-order correction.
 Total Energy, E(TD-HF/TD-DFT) =  -4069.75116313
 Copying the excited state density for this state as the 1-particle RhoCI density.

 Excited State   2:      Singlet-A      1.6900 eV  733.63 nm  f=0.7312  <S**2>=0.000
     309 -> 315        0.13214
     310 -> 316        0.11847
     311 -> 313        0.50827
     312 -> 314        0.45925

 Excited State   3:      Singlet-A      2.1844 eV  567.58 nm  f=0.1047  <S**2>=0.000
     310 -> 314        0.64118
     312 -> 316       -0.27113

 Excited State   4:      Singlet-A      2.1928 eV  565.42 nm  f=0.0975  <S**2>=0.000
     309 -> 313        0.63902
     311 -> 315       -0.27759

 Excited State   5:      Singlet-A      2.5609 eV  484.14 nm  f=0.0000  <S**2>=0.000
     312 -> 313        0.70676

 The electronic state is 1-A.
 Alpha  occ. eigenvalues --  -46.88052 -46.87480 -19.26526 -19.25752 -19.19306
 Alpha  occ. eigenvalues --  -19.19081 -19.18699 -19.18576 -19.18392 -19.17807
 Alpha  occ. eigenvalues --  -14.42693 -14.42307 -14.41694 -14.41183 -14.39658
 Alpha  occ. eigenvalues --  -14.39176 -14.38835 -14.38415 -10.39356 -10.38632
 Alpha  occ. eigenvalues --  -10.35715 -10.35257 -10.34613 -10.33972 -10.31888
 Alpha  occ. eigenvalues --  -10.31636 -10.31157 -10.31102 -10.30897 -10.30815
 Alpha  occ. eigenvalues --  -10.30807 -10.30753 -10.30450 -10.30218 -10.30169
 Alpha  occ. eigenvalues --  -10.30155 -10.29987 -10.29871 -10.29719 -10.29500
 Alpha  occ. eigenvalues --  -10.29274 -10.29224 -10.28975 -10.28743 -10.28614
 Alpha  occ. eigenvalues --  -10.28441 -10.28333 -10.28223 -10.28210 -10.28028
 Alpha  occ. eigenvalues --  -10.27963 -10.27907 -10.27832 -10.27821 -10.27728
 Alpha  occ. eigenvalues --  -10.27722 -10.27672 -10.27647 -10.27487 -10.27393
 Alpha  occ. eigenvalues --  -10.27385 -10.27342 -10.27294 -10.27274 -10.27239
 Alpha  occ. eigenvalues --  -10.26947 -10.26737 -10.26693 -10.26425 -10.26404
 Alpha  occ. eigenvalues --  -10.26366 -10.26313 -10.26254 -10.26020 -10.26010
 Alpha  occ. eigenvalues --  -10.25805 -10.25766 -10.25688 -10.25631 -10.25277
 Alpha  occ. eigenvalues --  -10.25067 -10.25032 -10.24948 -10.24682 -10.24617
 Alpha  occ. eigenvalues --  -10.24513  -3.16796  -3.16231  -1.91679  -1.91264
 Alpha  occ. eigenvalues --   -1.91113  -1.91106  -1.90701  -1.90538  -1.16881
 Alpha  occ. eigenvalues --   -1.16079  -1.08850  -1.08393  -1.07484  -1.06918
 Alpha  occ. eigenvalues --   -1.06831  -1.06471  -1.04824  -1.04299  -1.04004
 Alpha  occ. eigenvalues --   -1.03480  -1.03480  -1.02864  -1.02655  -1.01931
 Alpha  occ. eigenvalues --   -0.92212  -0.91760  -0.89755  -0.89411  -0.89326
 Alpha  occ. eigenvalues --   -0.88905  -0.88518  -0.88085  -0.88064  -0.87909
 Alpha  occ. eigenvalues --   -0.87612  -0.87527  -0.87482  -0.86970  -0.85212
 Alpha  occ. eigenvalues --   -0.84756  -0.84167  -0.83706  -0.83224  -0.82883
 Alpha  occ. eigenvalues --   -0.82791  -0.82410  -0.81814  -0.81221  -0.80834
 Alpha  occ. eigenvalues --   -0.80130  -0.79038  -0.78469  -0.77447  -0.77157
 Alpha  occ. eigenvalues --   -0.76937  -0.76599  -0.76146  -0.75529  -0.75121
 Alpha  occ. eigenvalues --   -0.74590  -0.73004  -0.72516  -0.71899  -0.71365
 Alpha  occ. eigenvalues --   -0.70140  -0.69611  -0.69104  -0.68589  -0.67881
 Alpha  occ. eigenvalues --   -0.67458  -0.67390  -0.66947  -0.65517  -0.65090
 Alpha  occ. eigenvalues --   -0.65009  -0.64854  -0.64560  -0.64504  -0.64351
 Alpha  occ. eigenvalues --   -0.64013  -0.62533  -0.61866  -0.60689  -0.60182
 Alpha  occ. eigenvalues --   -0.60033  -0.59570  -0.59222  -0.58784  -0.58741
 Alpha  occ. eigenvalues --   -0.58200  -0.57824  -0.57548  -0.57250  -0.57020
 Alpha  occ. eigenvalues --   -0.56541  -0.56211  -0.56013  -0.55759  -0.55571
 Alpha  occ. eigenvalues --   -0.55504  -0.55185  -0.54984  -0.54761  -0.54168
 Alpha  occ. eigenvalues --   -0.54123  -0.53659  -0.53539  -0.53459  -0.53162
 Alpha  occ. eigenvalues --   -0.53021  -0.53003  -0.52896  -0.52673  -0.52601
 Alpha  occ. eigenvalues --   -0.52483  -0.52240  -0.52117  -0.51850  -0.51696
 Alpha  occ. eigenvalues --   -0.51424  -0.51396  -0.50944  -0.50831  -0.50340
 Alpha  occ. eigenvalues --   -0.50261  -0.50163  -0.49799  -0.49752  -0.49708
 Alpha  occ. eigenvalues --   -0.49451  -0.49312  -0.49286  -0.48970  -0.48854
 Alpha  occ. eigenvalues --   -0.48819  -0.48704  -0.48678  -0.48277  -0.48211
 Alpha  occ. eigenvalues --   -0.48117  -0.47931  -0.47530  -0.47361  -0.47028
 Alpha  occ. eigenvalues --   -0.46907  -0.46785  -0.46596  -0.46505  -0.46390
 Alpha  occ. eigenvalues --   -0.46299  -0.46078  -0.46034  -0.45837  -0.45505
 Alpha  occ. eigenvalues --   -0.45428  -0.45031  -0.44804  -0.44746  -0.44383
 Alpha  occ. eigenvalues --   -0.44311  -0.44259  -0.44252  -0.44248  -0.43916
 Alpha  occ. eigenvalues --   -0.43876  -0.43721  -0.43695  -0.43616  -0.43256
 Alpha  occ. eigenvalues --   -0.43223  -0.43089  -0.42939  -0.42892  -0.42696
 Alpha  occ. eigenvalues --   -0.42425  -0.42372  -0.42243  -0.41937  -0.41761
 Alpha  occ. eigenvalues --   -0.41759  -0.41440  -0.41368  -0.41214  -0.41103
 Alpha  occ. eigenvalues --   -0.41077  -0.40799  -0.40782  -0.40544  -0.40478
 Alpha  occ. eigenvalues --   -0.40467  -0.40297  -0.39936  -0.39679  -0.39283
 Alpha  occ. eigenvalues --   -0.38697  -0.38177  -0.37978  -0.37554  -0.37500
 Alpha  occ. eigenvalues --   -0.37366  -0.37085  -0.36963  -0.36938  -0.36435
 Alpha  occ. eigenvalues --   -0.36378  -0.35906  -0.34528  -0.34061  -0.34052
 Alpha  occ. eigenvalues --   -0.33462  -0.33433  -0.32971  -0.31609  -0.31279
 Alpha  occ. eigenvalues --   -0.31133  -0.30776  -0.30250  -0.29700  -0.29700
 Alpha  occ. eigenvalues --   -0.29559  -0.29158  -0.29025  -0.24326  -0.23846
 Alpha  occ. eigenvalues --   -0.21368  -0.20937
 Alpha virt. eigenvalues --   -0.09018  -0.08611  -0.01997  -0.01508  -0.00309
 Alpha virt. eigenvalues --    0.00145   0.01966   0.02412   0.02696   0.03393
 Alpha virt. eigenvalues --    0.04486   0.04828   0.04969   0.05595   0.05953

 Mulliken charges:
               1
     1  Mg   0.836600
     2  C   -0.003601
     3  C   -0.094129
     4  C   -0.046239
     5  C   -0.063657
     6  N   -0.256872
     7  C   -0.052390
     8  C   -0.013915
     9  C   -0.086939
    10  C    0.046001
    11  C    0.104684
    12  C    0.053560
    13  C   -0.072213
    14  H    0.036657
    15  N   -0.433200
    16  C    0.167829
    17  C   -0.177392
    18  C   -0.004452
    19  C    0.148114
    20  C    0.110106
    21  C    0.011370
    22  O   -0.249632
    23  C    0.062862
    24  N   -0.341045
    25  C    0.041120
    26  C   -0.028193
    27  C   -0.024131
    28  C    0.074550
    29  C    0.076014
    30  C    0.035100
    31  C   -0.004588
    32  N   -0.310617
    33  C    0.080264
    34  C   -0.169073
    35  C    0.008657
    36  C    0.082591
    37  C    0.127229
    38  C    0.045809
    39  O   -0.187434
    40  C   -0.005255
    41  C    0.213728
    42  O   -0.259771
    43  O   -0.304201
    44  C    0.157700
    45  H   -0.017180
    46  H   -0.016752
    47  H   -0.040703
    48  H    0.001466
    49  H   -0.003869
    50  H    0.025775
    51  H    0.016587
    52  H    0.017163
    53  H    0.010727
    54  H    0.042948
    55  H    0.018514
    56  H    0.018220
    57  H    0.006246
    58  H    0.027304
    59  H    0.038734
    60  H    0.038072
    61  H    0.035592
    62  H    0.030182
    63  H    0.016174
    64  H    0.010145
    65  H    0.023451
    66  H    0.012767
    67  H    0.005289
    68  H    0.006917
    69  H    0.005673
    70  H    0.008155
    71  H    0.018749
    72  H    0.027693
    73  H    0.048461
    74  H    0.009686
    75  H    0.046551
    76  H    0.035916
    77  H    0.044173
    78  H    0.046902
    79  H    0.052593
    80  Mg   0.837288
    81  C   -0.016541
    82  C   -0.087976
    83  C   -0.045866
    84  C   -0.065425
    85  N   -0.254492
    86  C   -0.049897
    87  C   -0.014771
    88  C   -0.090400
    89  C    0.045720
    90  C    0.114371
    91  C    0.063104
    92  C   -0.079198
    93  H    0.040302
    94  N   -0.423390
    95  C    0.162650
    96  C   -0.174924
    97  C   -0.008237
    98  C    0.152002
    99  C    0.099529
   100  C    0.015266
   101  O   -0.253649
   102  C    0.061348
   103  N   -0.350160
   104  C    0.037369
   105  C   -0.019694
   106  C   -0.034797
   107  C    0.089097
   108  C    0.073816
   109  C    0.034838
   110  C   -0.007606
   111  N   -0.324188
   112  C    0.078671
   113  C   -0.163441
   114  C    0.002544
   115  C    0.096052
   116  C    0.131521
   117  C    0.042042
   118  O   -0.186790
   119  C    0.001491
   120  C    0.211322
   121  O   -0.252481
   122  O   -0.305789
   123  C    0.151115
   124  H   -0.019954
   125  H   -0.016091
   126  H   -0.040823
   127  H    0.000731
   128  H   -0.004852
   129  H    0.022469
   130  H    0.013864
   131  H    0.016462
   132  H    0.012136
   133  H    0.038041
   134  H    0.022100
   135  H    0.016404
   136  H    0.008399
   137  H    0.025742
   138  H    0.038896
   139  H    0.038034
   140  H    0.035881
   141  H    0.033514
   142  H    0.014061
   143  H    0.012164
   144  H    0.024733
   145  H    0.011586
   146  H    0.005369
   147  H    0.005903
   148  H    0.003525
   149  H    0.010722
   150  H    0.017667
   151  H    0.030353
   152  H    0.046147
   153  H    0.008124
   154  H    0.046800
   155  H    0.035167
   156  H    0.048461
   157  H    0.055899
   158  H    0.050691
 Sum of Mulliken charges =  -0.00000

 Dipole moment (field-independent basis, Debye):
    X=              4.3082    Y=              6.7604    Z=             -2.4468  Tot=              8.3815
 Quadrupole moment (field-independent basis, Debye-Ang):
   XX=           -489.4414   YY=           -556.1087   ZZ=           -470.6917
   XY=             20.5416   XZ=            -35.3679   YZ=            -11.1176

 Normal termination of Gaussian 16 at Sat Sep 11 11:47:28 2021.
