 Gaussian 16, Revision A.03,
 Gaussian 16:  ES64L-G16RevA.03 25-Dec-2016

 -----------------------------------
 #p cam-b3lyp/Def2SVP td=(nstates=5)
 -----------------------------------

 --------------------------------
 TDDFT excited states in gaussian
 --------------------------------
 Symbolic Z-matrix:
 Charge =  0 Multiplicity = 1

                         Standard orientation:
 ---------------------------------------------------------------------
 Center     Atomic      Atomic             Coordinates (Angstroms)
 Number     Number       Type             X           Y           Z
 ---------------------------------------------------------------------
      1         12           0       -6.300312    0.708786   -0.077578
      2          6           0       -6.652470   -2.388896    1.680991
      3          6           0       -7.160648    2.283017    2.824952
      4          6           0       -6.439489    3.420025   -1.716613
      5          6           0       -6.586005   -1.108900   -3.037318
      6          7           0       -6.816134   -0.063897    1.931784
      7          6           0       -6.855973   -1.269332    2.490810
      8          6           0       -7.059742   -1.227858    4.034873
      9          6           0       -7.759268    0.199534    4.158217
     10          6           0       -7.184690    0.859663    2.917244
     11          6           0       -9.278085    0.146985    4.028078
     12          6           0       -5.702775   -1.270165    4.814990
     13          6           0       -5.819652   -1.561380    6.313952
     14          1           0       -4.784471   -2.357800    6.955407
     15          7           0       -6.256463    2.584154    0.542035
     16          6           0       -6.627508    3.043046    1.761473
     17          6           0       -6.409887    4.505354    1.730197
     18          6           0       -6.062109    4.883832    0.332378
     19          6           0       -6.267051    3.632193   -0.350832
     20          6           0       -6.489657    5.375315    2.946977
     21          6           0       -5.625992    6.172070   -0.290821
     22          8           0       -5.599854    6.340108   -1.557965
     23          6           0       -5.310563    7.275662    0.634183
     24          7           0       -6.705225    1.138523   -2.079829
     25          6           0       -6.643300    2.391847   -2.542783
     26          6           0       -6.689860    2.423168   -4.041713
     27          6           0       -6.551552    0.906004   -4.520083
     28          6           0       -6.530442    0.221587   -3.131055
     29          6           0       -7.952468    3.039922   -4.659327
     30          6           0       -5.410931    0.584573   -5.518123
     31          6           0       -4.070729    0.762165   -4.840321
     32          7           0       -6.393833   -1.389621   -0.624378
     33          6           0       -6.534835   -1.919051   -1.915306
     34          6           0       -6.658750   -3.381241   -1.771388
     35          6           0       -6.597461   -3.600747   -0.396650
     36          6           0       -6.471301   -2.352399    0.277147
     37          6           0       -6.863775   -4.308512   -2.830901
     38          6           0       -6.633964   -4.597473    0.661207
     39          8           0       -6.633365   -5.828935    0.692743
     40          6           0       -6.793573   -3.843527    2.054733
     41          6           0       -5.783577   -4.426486    3.005194
     42          8           0       -4.560613   -4.261571    2.819376
     43          8           0       -6.413042   -4.877804    4.100926
     44          6           0       -5.464762   -5.442528    5.097924
     45          1           0       -7.645209    2.870910    3.606951
     46          1           0       -6.382270    4.322539   -2.328685
     47          1           0       -6.593307   -1.748411   -3.921866
     48          1           0       -7.720326   -2.001314    4.427070
     49          1           0       -7.440297    0.733051    5.053392
     50          1           0       -9.619299   -0.848011    3.742638
     51          1           0       -9.529130    0.872212    3.253794
     52          1           0       -9.757569    0.504060    4.939872
     53          1           0       -5.278863   -0.266731    4.853440
     54          1           0       -5.018734   -1.987746    4.360576
     55          1           0       -6.808572   -1.942692    6.569976
     56          1           0       -5.745992   -0.616379    6.852233
     57          1           0       -6.925119    4.843254    3.791861
     58          1           0       -7.205613    6.166741    2.726160
     59          1           0       -5.524619    5.813334    3.202269
     60          1           0       -6.188628    7.499148    1.240488
     61          1           0       -4.931688    8.088016    0.015003
     62          1           0       -4.535798    6.945387    1.326719
     63          1           0       -5.861032    3.002364   -4.446683
     64          1           0       -7.452054    0.551817   -5.022400
     65          1           0       -7.748668    3.873982   -5.331275
     66          1           0       -8.611000    3.344547   -3.846412
     67          1           0       -8.586439    2.337896   -5.200304
     68          1           0       -5.438361    1.275006   -6.360439
     69          1           0       -5.461482   -0.428331   -5.917774
     70          1           0       -3.890297    1.832413   -4.934365
     71          1           0       -3.302380    0.189489   -5.360796
     72          1           0       -4.129583    0.533932   -3.775929
     73          1           0       -6.200866   -5.150489   -2.631916
     74          1           0       -6.650467   -3.856672   -3.799375
     75          1           0       -7.921847   -4.534522   -2.699523
     76          1           0       -7.816459   -4.014981    2.388545
     77          1           0       -5.788526   -6.462150    5.307166
     78          1           0       -5.435972   -4.739809    5.930848
     79          1           0       -4.446336   -5.617451    4.749283
     80         12           0        6.907613    0.193418    0.135425
     81          6           0        4.840149   -1.669019   -2.130855
     82          6           0        5.557182    3.027849   -1.197608
     83          6           0        9.032772    1.866876    1.793931
     84          6           0        8.877932   -2.662195    0.465598
     85          7           0        5.401639    0.509268   -1.453461
     86          6           0        4.639584   -0.274642   -2.201187
     87          6           0        3.549282    0.473789   -3.013985
     88          6           0        4.247503    1.918459   -3.079562
     89          6           0        5.098544    1.836288   -1.813995
     90          6           0        5.177047    2.084138   -4.270290
     91          6           0        2.175653    0.533479   -2.257946
     92          6           0        0.987885    0.974475   -3.116131
     93          1           0       -0.317771    0.373026   -2.859226
     94          7           0        6.920282    2.112927    0.639331
     95          6           0        6.299334    3.126209   -0.000164
     96          6           0        6.635017    4.343798    0.754134
     97          6           0        7.638383    3.989400    1.794497
     98          6           0        7.924507    2.616836    1.428068
     99          6           0        5.962566    5.663522    0.510077
    100          6           0        8.249910    4.762412    2.923521
    101          8           0        9.277140    4.330392    3.556760
    102          6           0        7.668188    6.083036    3.204677
    103          7           0        8.812605   -0.250570    0.839835
    104          6           0        9.500520    0.637056    1.579313
    105          6           0       10.719728   -0.000285    2.201984
    106          6           0       10.575193   -1.568202    1.922062
    107          6           0        9.286154   -1.555613    1.071415
    108          6           0       12.068546    0.488385    1.674467
    109          6           0       10.638499   -2.511856    3.154207
    110          6           0        9.425145   -2.298702    4.030412
    111          7           0        6.790290   -1.861650   -0.521054
    112          6           0        7.736344   -2.885063   -0.293673
    113          6           0        7.273378   -4.077841   -1.032169
    114          6           0        6.092774   -3.655406   -1.661612
    115          6           0        5.848673   -2.289519   -1.354576
    116          6           0        7.948381   -5.329297   -1.098145
    117          6           0        5.003169   -4.051330   -2.524586
    118          8           0        4.633307   -5.112441   -3.025558
    119          6           0        4.211094   -2.746991   -2.969222
    120          6           0        2.741712   -3.010339   -2.784606
    121          8           0        2.268931   -3.185431   -1.647752
    122          8           0        2.105866   -2.797103   -3.951053
    123          6           0        0.644011   -3.034812   -3.815837
    124          1           0        5.367889    3.977398   -1.699009
    125          1           0        9.741256    2.366116    2.458983
    126          1           0        9.384666   -3.620623    0.597119
    127          1           0        3.387737    0.093100   -4.015366
    128          1           0        3.513896    2.715929   -2.994612
    129          1           0        5.306215    1.159131   -4.812342
    130          1           0        6.121736    2.418333   -3.861741
    131          1           0        4.823736    2.894432   -4.914445
    132          1           0        2.200905    1.358176   -1.534076
    133          1           0        1.955629   -0.407658   -1.792681
    134          1           0        1.220236    0.945465   -4.187631
    135          1           0        0.786411    2.029263   -2.914036
    136          1           0        5.389842    5.656226   -0.425516
    137          1           0        6.755462    6.399312    0.337443
    138          1           0        5.355726    5.990105    1.357277
    139          1           0        7.739047    6.705499    2.315875
    140          1           0        8.178513    6.442472    4.100358
    141          1           0        6.600510    5.957128    3.416415
    142          1           0       10.738734    0.165334    3.272176
    143          1           0       11.378449   -1.941403    1.269881
    144          1           0       12.728364    0.888378    2.467376
    145          1           0       11.887047    1.238685    0.916414
    146          1           0       12.648131   -0.254941    1.129706
    147          1           0       11.510520   -2.274560    3.768552
    148          1           0       10.706258   -3.562115    2.890878
    149          1           0        9.706361   -1.430882    4.634482
    150          1           0        9.244793   -3.171975    4.654033
    151          1           0        8.552177   -2.014464    3.431416
    152          1           0        7.194819   -6.096206   -0.977754
    153          1           0        8.719906   -5.405612   -0.334812
    154          1           0        8.371172   -5.270022   -2.104626
    155          1           0        4.463823   -2.549680   -4.011711
    156          1           0        0.369214   -3.774897   -4.573764
    157          1           0        0.171007   -2.037620   -3.890745
    158          1           0        0.296655   -3.519714   -2.911042
 ---------------------------------------------------------------------

 SCF Done:  E(RCAM-B3LYP) =  -4069.81135742     A.U. after   19 cycles

 Excitation energies and oscillator strengths:

 Excited State   1:      Singlet-A      1.6644 eV  744.93 nm  f=0.0082  <S**2>=0.000
     309 -> 315       -0.11147
     310 -> 316       -0.12926
     311 -> 313       -0.44735
     312 -> 314        0.52099
 This state for optimization and/or second-order correction.
 Total Energy, E(TD-HF/TD-DFT) =  -4069.75019263
 Copying the excited state density for this state as the 1-particle RhoCI density.

 Excited State   2:      Singlet-A      1.6901 eV  733.60 nm  f=0.7314  <S**2>=0.000
     309 -> 315        0.13475
     310 -> 316       -0.11529
     311 -> 313        0.51967
     312 -> 314        0.44634

 Excited State   3:      Singlet-A      2.1845 eV  567.57 nm  f=0.0766  <S**2>=0.000
     309 -> 313        0.18048
     310 -> 314        0.61719
     312 -> 316        0.26093

 Excited State   4:      Singlet-A      2.1921 eV  565.59 nm  f=0.1208  <S**2>=0.000
     309 -> 313        0.61501
     310 -> 314       -0.17910
     311 -> 315       -0.26679

 Excited State   5:      Singlet-A      2.6505 eV  467.78 nm  f=0.0000  <S**2>=0.000
     312 -> 313        0.70692

 The electronic state is 1-A.
 Alpha  occ. eigenvalues --  -46.87851 -46.87537 -19.26176 -19.26096 -19.18916
 Alpha  occ. eigenvalues --  -19.18909 -19.18894 -19.18626 -19.18161 -19.17893
 Alpha  occ. eigenvalues --  -14.42494 -14.42372 -14.41514 -14.41239 -14.39460
 Alpha  occ. eigenvalues --  -14.39232 -14.38634 -14.38472 -10.38981 -10.38839
 Alpha  occ. eigenvalues --  -10.35551 -10.35306 -10.34378 -10.34067 -10.31544
 Alpha  occ. eigenvalues --  -10.31472 -10.31434 -10.31172 -10.30942 -10.30894
 Alpha  occ. eigenvalues --  -10.30612 -10.30567 -10.30292 -10.30275 -10.30229
 Alpha  occ. eigenvalues --  -10.30037 -10.29988 -10.29775 -10.29687 -10.29325
 Alpha  occ. eigenvalues --  -10.29320 -10.29279 -10.28739 -10.28566 -10.28472
 Alpha  occ. eigenvalues --  -10.28451 -10.28404 -10.28276 -10.28121 -10.27998
 Alpha  occ. eigenvalues --  -10.27877 -10.27837 -10.27774 -10.27645 -10.27623
 Alpha  occ. eigenvalues --  -10.27562 -10.27547 -10.27546 -10.27438 -10.27425
 Alpha  occ. eigenvalues --  -10.27375 -10.27351 -10.27350 -10.27282 -10.27134
 Alpha  occ. eigenvalues --  -10.26876 -10.26657 -10.26535 -10.26503 -10.26364
 Alpha  occ. eigenvalues --  -10.26357 -10.26240 -10.26093 -10.26051 -10.25902
 Alpha  occ. eigenvalues --  -10.25883 -10.25818 -10.25725 -10.25535 -10.25317
 Alpha  occ. eigenvalues --  -10.24936 -10.24870 -10.24852 -10.24744 -10.24642
 Alpha  occ. eigenvalues --  -10.24571  -3.16594  -3.16287  -1.91475  -1.91169
 Alpha  occ. eigenvalues --   -1.91062  -1.90904  -1.90758  -1.90594  -1.16526
 Alpha  occ. eigenvalues --   -1.16388  -1.08609  -1.08491  -1.07321  -1.06880
 Alpha  occ. eigenvalues --   -1.06686  -1.06535  -1.04621  -1.04367  -1.03820
 Alpha  occ. eigenvalues --   -1.03541  -1.03290  -1.02919  -1.02466  -1.01989
 Alpha  occ. eigenvalues --   -0.91996  -0.91845  -0.89617  -0.89381  -0.89191
 Alpha  occ. eigenvalues --   -0.89006  -0.88382  -0.88114  -0.87912  -0.87713
 Alpha  occ. eigenvalues --   -0.87666  -0.87555  -0.87345  -0.87019  -0.84998
 Alpha  occ. eigenvalues --   -0.84856  -0.84044  -0.83767  -0.83066  -0.82841
 Alpha  occ. eigenvalues --   -0.82674  -0.82516  -0.81570  -0.81418  -0.80618
 Alpha  occ. eigenvalues --   -0.80290  -0.78856  -0.78523  -0.77279  -0.77017
 Alpha  occ. eigenvalues --   -0.76944  -0.76746  -0.75926  -0.75685  -0.74969
 Alpha  occ. eigenvalues --   -0.74685  -0.72828  -0.72576  -0.71713  -0.71453
 Alpha  occ. eigenvalues --   -0.70042  -0.69657  -0.68899  -0.68688  -0.67687
 Alpha  occ. eigenvalues --   -0.67471  -0.67232  -0.67055  -0.65298  -0.65120
 Alpha  occ. eigenvalues --   -0.64889  -0.64650  -0.64637  -0.64498  -0.64352
 Alpha  occ. eigenvalues --   -0.64087  -0.62270  -0.62088  -0.60518  -0.60234
 Alpha  occ. eigenvalues --   -0.59823  -0.59658  -0.59033  -0.58862  -0.58543
 Alpha  occ. eigenvalues --   -0.58288  -0.57577  -0.57376  -0.57352  -0.57111
 Alpha  occ. eigenvalues --   -0.56355  -0.56077  -0.55932  -0.55698  -0.55574
 Alpha  occ. eigenvalues --   -0.55396  -0.55316  -0.55110  -0.54542  -0.54330
 Alpha  occ. eigenvalues --   -0.53897  -0.53763  -0.53361  -0.53250  -0.53108
 Alpha  occ. eigenvalues --   -0.53000  -0.52933  -0.52812  -0.52738  -0.52565
 Alpha  occ. eigenvalues --   -0.52561  -0.52297  -0.51951  -0.51751  -0.51628
 Alpha  occ. eigenvalues --   -0.51514  -0.51230  -0.51058  -0.50663  -0.50387
 Alpha  occ. eigenvalues --   -0.50140  -0.49981  -0.49863  -0.49765  -0.49545
 Alpha  occ. eigenvalues --   -0.49366  -0.49242  -0.49104  -0.49059  -0.48962
 Alpha  occ. eigenvalues --   -0.48608  -0.48537  -0.48480  -0.48401  -0.48266
 Alpha  occ. eigenvalues --   -0.48217  -0.47739  -0.47463  -0.47345  -0.46998
 Alpha  occ. eigenvalues --   -0.46856  -0.46581  -0.46559  -0.46419  -0.46405
 Alpha  occ. eigenvalues --   -0.46196  -0.46146  -0.45944  -0.45821  -0.45661
 Alpha  occ. eigenvalues --   -0.45287  -0.45097  -0.44592  -0.44581  -0.44367
 Alpha  occ. eigenvalues --   -0.44344  -0.44228  -0.44106  -0.44036  -0.43996
 Alpha  occ. eigenvalues --   -0.43958  -0.43806  -0.43491  -0.43430  -0.43377
 Alpha  occ. eigenvalues --   -0.43241  -0.43066  -0.42801  -0.42783  -0.42695
 Alpha  occ. eigenvalues --   -0.42602  -0.42448  -0.42083  -0.41837  -0.41735
 Alpha  occ. eigenvalues --   -0.41550  -0.41529  -0.41318  -0.41180  -0.40924
 Alpha  occ. eigenvalues --   -0.40903  -0.40862  -0.40643  -0.40612  -0.40568
 Alpha  occ. eigenvalues --   -0.40376  -0.40219  -0.40070  -0.39590  -0.39327
 Alpha  occ. eigenvalues --   -0.38554  -0.38238  -0.37747  -0.37491  -0.37398
 Alpha  occ. eigenvalues --   -0.37271  -0.37148  -0.37052  -0.36689  -0.36560
 Alpha  occ. eigenvalues --   -0.36188  -0.36060  -0.34333  -0.34124  -0.33692
 Alpha  occ. eigenvalues --   -0.33619  -0.33224  -0.33043  -0.31444  -0.31184
 Alpha  occ. eigenvalues --   -0.31081  -0.30845  -0.30017  -0.29794  -0.29509
 Alpha  occ. eigenvalues --   -0.29362  -0.29212  -0.29082  -0.24129  -0.23909
 Alpha  occ. eigenvalues --   -0.21182  -0.20996
 Alpha virt. eigenvalues --   -0.08827  -0.08670  -0.01813  -0.01566  -0.00117
 Alpha virt. eigenvalues --    0.00085   0.02168   0.02341   0.02934   0.03365
 Alpha virt. eigenvalues --    0.04687   0.04849   0.05181   0.05401   0.06146

 Mulliken charges:
               1
     1  Mg   0.838495
     2  C   -0.002144
     3  C   -0.093748
     4  C   -0.046512
     5  C   -0.064905
     6  N   -0.256727
     7  C   -0.052111
     8  C   -0.014057
     9  C   -0.087023
    10  C    0.046342
    11  C    0.104794
    12  C    0.053379
    13  C   -0.072109
    14  H    0.037337
    15  N   -0.433081
    16  C    0.168237
    17  C   -0.177131
    18  C   -0.004433
    19  C    0.148575
    20  C    0.110136
    21  C    0.011608
    22  O   -0.250401
    23  C    0.062718
    24  N   -0.341077
    25  C    0.041152
    26  C   -0.028102
    27  C   -0.023933
    28  C    0.074696
    29  C    0.076157
    30  C    0.035399
    31  C   -0.005180
    32  N   -0.310584
    33  C    0.080266
    34  C   -0.170141
    35  C    0.008989
    36  C    0.083283
    37  C    0.127131
    38  C    0.046931
    39  O   -0.187149
    40  C   -0.005604
    41  C    0.212835
    42  O   -0.255344
    43  O   -0.305231
    44  C    0.157244
    45  H   -0.017456
    46  H   -0.017416
    47  H   -0.041868
    48  H    0.001243
    49  H   -0.003858
    50  H    0.025610
    51  H    0.016209
    52  H    0.016779
    53  H    0.011105
    54  H    0.045206
    55  H    0.017712
    56  H    0.017716
    57  H    0.006191
    58  H    0.026761
    59  H    0.039157
    60  H    0.037768
    61  H    0.034898
    62  H    0.030984
    63  H    0.015626
    64  H    0.009846
    65  H    0.022913
    66  H    0.012900
    67  H    0.004936
    68  H    0.006441
    69  H    0.004753
    70  H    0.008646
    71  H    0.016545
    72  H    0.028803
    73  H    0.048238
    74  H    0.008418
    75  H    0.046414
    76  H    0.035231
    77  H    0.043061
    78  H    0.046155
    79  H    0.055172
    80  Mg   0.837975
    81  C   -0.016236
    82  C   -0.087753
    83  C   -0.045746
    84  C   -0.065132
    85  N   -0.254507
    86  C   -0.049658
    87  C   -0.015012
    88  C   -0.090533
    89  C    0.045700
    90  C    0.114413
    91  C    0.062492
    92  C   -0.079198
    93  H    0.037038
    94  N   -0.423389
    95  C    0.162712
    96  C   -0.174860
    97  C   -0.008174
    98  C    0.152034
    99  C    0.099443
   100  C    0.015315
   101  O   -0.253563
   102  C    0.061353
   103  N   -0.350138
   104  C    0.037441
   105  C   -0.019745
   106  C   -0.034815
   107  C    0.089059
   108  C    0.073783
   109  C    0.034808
   110  C   -0.007656
   111  N   -0.324246
   112  C    0.078735
   113  C   -0.162986
   114  C    0.002486
   115  C    0.096501
   116  C    0.131390
   117  C    0.042935
   118  O   -0.187096
   119  C    0.000740
   120  C    0.211235
   121  O   -0.248941
   122  O   -0.306527
   123  C    0.150957
   124  H   -0.019785
   125  H   -0.015966
   126  H   -0.040586
   127  H   -0.000834
   128  H   -0.004058
   129  H    0.022261
   130  H    0.014155
   131  H    0.016133
   132  H    0.013712
   133  H    0.038956
   134  H    0.019915
   135  H    0.020105
   136  H    0.008896
   137  H    0.025808
   138  H    0.039123
   139  H    0.038173
   140  H    0.035905
   141  H    0.033497
   142  H    0.014146
   143  H    0.012248
   144  H    0.024817
   145  H    0.011565
   146  H    0.005477
   147  H    0.005952
   148  H    0.003656
   149  H    0.010655
   150  H    0.017888
   151  H    0.030451
   152  H    0.046580
   153  H    0.008334
   154  H    0.046726
   155  H    0.034562
   156  H    0.043066
   157  H    0.048598
   158  H    0.057418
 Sum of Mulliken charges =  -0.00000

 Dipole moment (field-independent basis, Debye):
    X=             -2.2029    Y=              7.1349    Z=              1.2821  Tot=              7.5765
 Quadrupole moment (field-independent basis, Debye-Ang):
   XX=           -479.3152   YY=           -540.8066   ZZ=           -471.5379
   XY=            -21.5342   XZ=            -23.1778   YZ=             -5.1490

 Normal termination of Gaussian 16 at Sat Sep 11 09:30:22 2021.
