 Gaussian 16, Revision A.03,
 Gaussian 16:  ES64L-G16RevA.03 25-Dec-2016

 -----------------------------------
 #p cam-b3lyp/Def2SVP td=(nstates=5)
 -----------------------------------

 --------------------------------
 TDDFT excited states in gaussian
 --------------------------------
 Symbolic Z-matrix:
 Charge =  0 Multiplicity = 1

                         Standard orientation:
 ---------------------------------------------------------------------
 Center     Atomic      Atomic             Coordinates (Angstroms)
 Number     Number       Type             X           Y           Z
 ---------------------------------------------------------------------
      1         12           0        4.148458    1.498178    0.352730
      2          6           0        5.535255   -1.622695   -0.719257
      3          6           0        4.712269    2.663108   -2.804504
      4          6           0        3.353165    4.386291    1.393369
      5          6           0        4.743725    0.468803    3.628658
      6          7           0        5.017321    0.544860   -1.446411
      7          6           0        5.455243   -0.674977   -1.742034
      8          6           0        5.750470   -0.874712   -3.258715
      9          6           0        6.000423    0.645585   -3.668857
     10          6           0        5.165686    1.326323   -2.598467
     11          6           0        7.452126    1.087473   -3.514603
     12          6           0        4.528887   -1.482010   -4.027257
     13          6           0        4.837133   -2.009563   -5.431545
     14          1           0        4.136132   -3.193847   -5.904215
     15          7           0        3.594008    3.111345   -0.643828
     16          6           0        3.900294    3.415042   -1.928057
     17          6           0        3.255518    4.716905   -2.203917
     18          6           0        2.708960    5.235290   -0.919143
     19          6           0        3.226374    4.265030    0.011586
     20          6           0        3.161990    5.314852   -3.574122
     21          6           0        1.864481    6.423327   -0.582162
     22          8           0        1.696332    6.818757    0.621971
     23          6           0        1.303772    7.174676   -1.719756
     24          7           0        4.258587    2.412771    2.225969
     25          6           0        3.792455    3.651741    2.417433
     26          6           0        3.717146    3.987229    3.877472
     27          6           0        4.001971    2.624463    4.659455
     28          6           0        4.287847    1.709682    3.443018
     29          6           0        4.689858    5.069172    4.366596
     30          6           0        2.938558    2.169844    5.690422
     31          6           0        1.659937    1.792503    4.976391
     32          7           0        4.821945   -0.321761    1.324985
     33          6           0        5.018773   -0.520317    2.699215
     34          6           0        5.582611   -1.872736    2.863890
     35          6           0        5.690786   -2.363879    1.564305
     36          6           0        5.248646   -1.370705    0.644299
     37          6           0        5.975847   -2.467435    4.095204
     38          6           0        6.100107   -3.487466    0.737344
     39          8           0        6.468471   -4.641176    0.962631
     40          6           0        6.130115   -3.007579   -0.780758
     41          6           0        5.412276   -4.045462   -1.599792
     42          8           0        4.185468   -4.230423   -1.465264
     43          8           0        6.226403   -4.486525   -2.570978
     44          6           0        5.565302   -5.497569   -3.438669
     45          1           0        5.056008    3.207016   -3.686518
     46          1           0        2.984978    5.328898    1.803697
     47          1           0        4.875971    0.047529    4.626902
     48          1           0        6.638348   -1.469312   -3.474461
     49          1           0        5.603863    0.870511   -4.658741
     50          1           0        8.052112    0.320601   -3.024864
     51          1           0        7.418194    1.990979   -2.905489
     52          1           0        7.869301    1.389478   -4.475611
     53          1           0        3.829501   -0.684499   -4.278050
     54          1           0        4.057994   -2.271711   -3.440777
     55          1           0        5.910763   -2.111632   -5.592200
     56          1           0        4.525299   -1.256531   -6.155357
     57          1           0        3.797041    4.787972   -4.285216
     58          1           0        3.591587    6.314693   -3.515199
     59          1           0        2.131836    5.377457   -3.925113
     60          1           0        2.117612    7.533891   -2.349978
     61          1           0        0.655745    7.936081   -1.287120
     62          1           0        0.715624    6.494572   -2.336593
     63          1           0        2.726022    4.351757    4.144340
     64          1           0        4.927564    2.668315    5.233937
     65          1           0        4.198126    5.914740    4.848177
     66          1           0        5.285791    5.396449    3.515100
     67          1           0        5.462472    4.714779    5.048424
     68          1           0        2.697136    2.985651    6.370951
     69          1           0        3.258812    1.319454    6.292523
     70          1           0        1.162658    2.752702    4.843860
     71          1           0        1.060799    1.124844    5.596453
     72          1           0        1.862227    1.390516    3.983430
     73          1           0        5.610183   -3.493865    4.068709
     74          1           0        5.567033   -1.923133    4.946209
     75          1           0        7.059890   -2.379328    4.024890
     76          1           0        7.179323   -2.918865   -1.060787
     77          1           0        6.192411   -6.389113   -3.427827
     78          1           0        5.389987   -5.013931   -4.399795
     79          1           0        4.622367   -5.904756   -3.072044
     80         12           0       -4.299639   -1.610483    0.197060
     81          6           0       -5.211152    1.534418   -1.271884
     82          6           0       -4.026192    0.029655    3.175272
     83          6           0       -3.061900   -4.259586    1.429004
     84          6           0       -3.539911   -2.732192   -3.013900
     85          7           0       -4.605485    0.508425    0.752854
     86          6           0       -5.010866    1.600646    0.122730
     87          6           0       -5.290391    2.812655    1.051409
     88          6           0       -4.349584    2.393530    2.283516
     89          6           0       -4.349922    0.878903    2.087121
     90          6           0       -2.920759    2.892595    2.146640
     91          6           0       -6.796500    2.900411    1.482633
     92          6           0       -7.203083    4.224520    2.133153
     93          1           0       -8.542804    4.744709    1.874318
     94          7           0       -4.108708   -2.179828    2.088606
     95          6           0       -4.036651   -1.382512    3.175062
     96          6           0       -3.880286   -2.284680    4.326504
     97          6           0       -3.700458   -3.670734    3.815407
     98          6           0       -3.593572   -3.415355    2.392926
     99          6           0       -3.988949   -1.815656    5.748352
    100          6           0       -3.623048   -5.003977    4.495594
    101          8           0       -3.225277   -6.053540    3.876708
    102          6           0       -3.937218   -5.026529    5.931662
    103          7           0       -3.228343   -3.185834   -0.635379
    104          6           0       -2.854640   -4.239109    0.112211
    105          6           0       -2.343053   -5.367108   -0.751664
    106          6           0       -2.678283   -4.941870   -2.256451
    107          6           0       -3.271449   -3.539644   -1.996993
    108          6           0       -0.850539   -5.673767   -0.630227
    109          6           0       -3.503222   -5.947965   -3.104932
    110          6           0       -4.906992   -6.057802   -2.554693
    111          7           0       -4.526227   -0.847055   -1.811391
    112          6           0       -4.116779   -1.468620   -3.011431
    113          6           0       -4.379322   -0.513927   -4.107811
    114          6           0       -4.906141    0.614647   -3.461860
    115          6           0       -4.948796    0.387549   -2.059675
    116          6           0       -4.087596   -0.727505   -5.484546
    117          6           0       -5.425983    1.950482   -3.646277
    118          8           0       -5.708401    2.645812   -4.621212
    119          6           0       -5.528828    2.653485   -2.224443
    120          6           0       -6.884257    3.297524   -2.121673
    121          8           0       -7.914949    2.601833   -2.105022
    122          8           0       -6.730926    4.604744   -1.842313
    123          6           0       -8.047934    5.284649   -1.719717
    124          1           0       -3.691305    0.485542    4.107420
    125          1           0       -2.722658   -5.233195    1.790242
    126          1           0       -3.421697   -3.043988   -4.053850
    127          1           0       -4.977878    3.770929    0.654143
    128          1           0       -4.805234    2.654735    3.235106
    129          1           0       -2.743445    3.347599    1.183483
    130          1           0       -2.291394    2.021739    2.275294
    131          1           0       -2.675924    3.566097    2.972949
    132          1           0       -6.968396    2.217046    2.324176
    133          1           0       -7.443227    2.691992    0.652610
    134          1           0       -6.450511    5.007450    1.979518
    135          1           0       -7.227938    4.085591    3.216707
    136          1           0       -3.958696   -0.721062    5.814276
    137          1           0       -3.079874   -2.144028    6.263737
    138          1           0       -4.857259   -2.231513    6.263865
    139          1           0       -3.260960   -4.358561    6.459815
    140          1           0       -3.914653   -6.079464    6.219239
    141          1           0       -4.948082   -4.628731    6.074925
    142          1           0       -2.858457   -6.292305   -0.524821
    143          1           0       -1.764861   -4.791686   -2.850528
    144          1           0       -0.642161   -6.722323   -0.345311
    145          1           0       -0.419310   -4.991163    0.089929
    146          1           0       -0.262816   -5.468881   -1.523428
    147          1           0       -3.065180   -6.946963   -3.039540
    148          1           0       -3.553515   -5.686595   -4.156673
    149          1           0       -4.796772   -6.779199   -1.739505
    150          1           0       -5.589848   -6.425816   -3.317789
    151          1           0       -5.232030   -5.108567   -2.113159
    152          1           0       -4.944146   -0.373727   -6.042821
    153          1           0       -3.883961   -1.776413   -5.689742
    154          1           0       -3.194045   -0.107000   -5.593124
    155          1           0       -4.722211    3.384904   -2.161514
    156          1           0       -8.041183    6.123347   -2.422730
    157          1           0       -8.159766    5.527959   -0.646384
    158          1           0       -8.925518    4.740303   -2.048330
 ---------------------------------------------------------------------

 SCF Done:  E(RCAM-B3LYP) =  -4069.81212146     A.U. after   19 cycles

 Excitation energies and oscillator strengths:

 Excited State   1:      Singlet-A      1.6535 eV  749.83 nm  f=0.0815  <S**2>=0.000
     309 -> 315        0.10880
     310 -> 316        0.12864
     311 -> 313        0.44466
     312 -> 314        0.52411
 This state for optimization and/or second-order correction.
 Total Energy, E(TD-HF/TD-DFT) =  -4069.75135676
 Copying the excited state density for this state as the 1-particle RhoCI density.

 Excited State   2:      Singlet-A      1.6955 eV  731.26 nm  f=0.6079  <S**2>=0.000
     309 -> 315        0.13681
     310 -> 316       -0.11563
     311 -> 313        0.52191
     312 -> 314       -0.44281

 Excited State   3:      Singlet-A      2.1812 eV  568.43 nm  f=0.0420  <S**2>=0.000
     309 -> 313        0.28071
     310 -> 314        0.58062
     311 -> 315       -0.11630
     312 -> 316       -0.24141

 Excited State   4:      Singlet-A      2.1959 eV  564.61 nm  f=0.1408  <S**2>=0.000
     309 -> 313        0.57570
     310 -> 314       -0.27712
     311 -> 315       -0.25308
     312 -> 316        0.12302

 Excited State   5:      Singlet-A      2.3464 eV  528.41 nm  f=0.0000  <S**2>=0.000
     312 -> 313        0.70708

 The electronic state is 1-A.
 Alpha  occ. eigenvalues --  -46.87914 -46.87433 -19.26421 -19.26248 -19.19169
 Alpha  occ. eigenvalues --  -19.19046 -19.18928 -19.18498 -19.18266 -19.17916
 Alpha  occ. eigenvalues --  -14.42563 -14.42271 -14.41582 -14.41102 -14.39516
 Alpha  occ. eigenvalues --  -14.39130 -14.38699 -14.38390 -10.39223 -10.38972
 Alpha  occ. eigenvalues --  -10.35556 -10.35176 -10.34488 -10.34094 -10.31823
 Alpha  occ. eigenvalues --  -10.31673 -10.31512 -10.31109 -10.31015 -10.30802
 Alpha  occ. eigenvalues --  -10.30677 -10.30631 -10.30345 -10.30181 -10.30174
 Alpha  occ. eigenvalues --  -10.30065 -10.29864 -10.29739 -10.29619 -10.29363
 Alpha  occ. eigenvalues --  -10.29214 -10.29207 -10.28851 -10.28648 -10.28513
 Alpha  occ. eigenvalues --  -10.28496 -10.28470 -10.28208 -10.28198 -10.27915
 Alpha  occ. eigenvalues --  -10.27893 -10.27832 -10.27807 -10.27707 -10.27687
 Alpha  occ. eigenvalues --  -10.27650 -10.27519 -10.27512 -10.27452 -10.27318
 Alpha  occ. eigenvalues --  -10.27273 -10.27271 -10.27269 -10.27152 -10.26925
 Alpha  occ. eigenvalues --  -10.26912 -10.26816 -10.26518 -10.26474 -10.26462
 Alpha  occ. eigenvalues --  -10.26314 -10.26231 -10.26151 -10.25933 -10.25858
 Alpha  occ. eigenvalues --  -10.25755 -10.25741 -10.25700 -10.25615 -10.25065
 Alpha  occ. eigenvalues --  -10.24933 -10.24921 -10.24688 -10.24645 -10.24487
 Alpha  occ. eigenvalues --  -10.24425  -3.16656  -3.16183  -1.91538  -1.91125
 Alpha  occ. eigenvalues --   -1.91065  -1.90966  -1.90653  -1.90491  -1.16771
 Alpha  occ. eigenvalues --   -1.16539  -1.08725  -1.08533  -1.07332  -1.06832
 Alpha  occ. eigenvalues --   -1.06785  -1.06746  -1.04692  -1.04277  -1.03888
 Alpha  occ. eigenvalues --   -1.03433  -1.03351  -1.02797  -1.02530  -1.01879
 Alpha  occ. eigenvalues --   -0.92086  -0.91793  -0.89701  -0.89290  -0.89235
 Alpha  occ. eigenvalues --   -0.88932  -0.88465  -0.87970  -0.87894  -0.87787
 Alpha  occ. eigenvalues --   -0.87626  -0.87448  -0.87359  -0.86932  -0.85093
 Alpha  occ. eigenvalues --   -0.84783  -0.84141  -0.83547  -0.83078  -0.82760
 Alpha  occ. eigenvalues --   -0.82699  -0.82436  -0.81712  -0.81433  -0.80715
 Alpha  occ. eigenvalues --   -0.80253  -0.78889  -0.78448  -0.77357  -0.77064
 Alpha  occ. eigenvalues --   -0.76930  -0.76662  -0.76036  -0.75643  -0.75059
 Alpha  occ. eigenvalues --   -0.74422  -0.72894  -0.72486  -0.71796  -0.71293
 Alpha  occ. eigenvalues --   -0.70138  -0.69439  -0.68982  -0.68618  -0.67757
 Alpha  occ. eigenvalues --   -0.67381  -0.67323  -0.67010  -0.65403  -0.65072
 Alpha  occ. eigenvalues --   -0.64985  -0.64763  -0.64560  -0.64444  -0.64434
 Alpha  occ. eigenvalues --   -0.63915  -0.62436  -0.62105  -0.60553  -0.60108
 Alpha  occ. eigenvalues --   -0.59907  -0.59588  -0.59116  -0.58757  -0.58629
 Alpha  occ. eigenvalues --   -0.58208  -0.57704  -0.57450  -0.57407  -0.56989
 Alpha  occ. eigenvalues --   -0.56414  -0.56106  -0.56023  -0.55725  -0.55627
 Alpha  occ. eigenvalues --   -0.55513  -0.55277  -0.54986  -0.54693  -0.54226
 Alpha  occ. eigenvalues --   -0.54000  -0.53698  -0.53423  -0.53324  -0.53056
 Alpha  occ. eigenvalues --   -0.53015  -0.52945  -0.52849  -0.52709  -0.52672
 Alpha  occ. eigenvalues --   -0.52475  -0.52131  -0.52015  -0.51750  -0.51714
 Alpha  occ. eigenvalues --   -0.51471  -0.51331  -0.51010  -0.50650  -0.50276
 Alpha  occ. eigenvalues --   -0.50209  -0.50016  -0.49759  -0.49619  -0.49518
 Alpha  occ. eigenvalues --   -0.49320  -0.49285  -0.49199  -0.49021  -0.48898
 Alpha  occ. eigenvalues --   -0.48715  -0.48610  -0.48549  -0.48375  -0.48150
 Alpha  occ. eigenvalues --   -0.48026  -0.47816  -0.47408  -0.47373  -0.46938
 Alpha  occ. eigenvalues --   -0.46866  -0.46662  -0.46486  -0.46474  -0.46328
 Alpha  occ. eigenvalues --   -0.46298  -0.46054  -0.45939  -0.45821  -0.45631
 Alpha  occ. eigenvalues --   -0.45369  -0.44809  -0.44701  -0.44627  -0.44318
 Alpha  occ. eigenvalues --   -0.44299  -0.44257  -0.44198  -0.44121  -0.43926
 Alpha  occ. eigenvalues --   -0.43831  -0.43759  -0.43624  -0.43513  -0.43380
 Alpha  occ. eigenvalues --   -0.43157  -0.43138  -0.42887  -0.42821  -0.42785
 Alpha  occ. eigenvalues --   -0.42665  -0.42266  -0.42183  -0.41826  -0.41726
 Alpha  occ. eigenvalues --   -0.41651  -0.41453  -0.41262  -0.41231  -0.41016
 Alpha  occ. eigenvalues --   -0.40933  -0.40738  -0.40725  -0.40509  -0.40475
 Alpha  occ. eigenvalues --   -0.40342  -0.40171  -0.40034  -0.39696  -0.39124
 Alpha  occ. eigenvalues --   -0.38644  -0.38011  -0.37864  -0.37480  -0.37452
 Alpha  occ. eigenvalues --   -0.37372  -0.37019  -0.36969  -0.36864  -0.36606
 Alpha  occ. eigenvalues --   -0.36343  -0.35939  -0.34404  -0.34029  -0.33914
 Alpha  occ. eigenvalues --   -0.33726  -0.33308  -0.32953  -0.31460  -0.31158
 Alpha  occ. eigenvalues --   -0.31050  -0.30742  -0.30127  -0.29824  -0.29552
 Alpha  occ. eigenvalues --   -0.29424  -0.29132  -0.29028  -0.24200  -0.23811
 Alpha  occ. eigenvalues --   -0.21244  -0.20891
 Alpha virt. eigenvalues --   -0.08884  -0.08583  -0.01875  -0.01439  -0.00160
 Alpha virt. eigenvalues --    0.00172   0.02087   0.02380   0.02823   0.03501
 Alpha virt. eigenvalues --    0.04600   0.04959   0.04965   0.05290   0.06056

 Mulliken charges:
               1
     1  Mg   0.838873
     2  C   -0.003026
     3  C   -0.093324
     4  C   -0.046552
     5  C   -0.064124
     6  N   -0.256709
     7  C   -0.052417
     8  C   -0.014065
     9  C   -0.087126
    10  C    0.046251
    11  C    0.104701
    12  C    0.053452
    13  C   -0.071691
    14  H    0.035028
    15  N   -0.433198
    16  C    0.168457
    17  C   -0.176321
    18  C   -0.004000
    19  C    0.148585
    20  C    0.109811
    21  C    0.011522
    22  O   -0.250878
    23  C    0.062342
    24  N   -0.340963
    25  C    0.041260
    26  C   -0.028094
    27  C   -0.023756
    28  C    0.074294
    29  C    0.076138
    30  C    0.035401
    31  C   -0.004655
    32  N   -0.310555
    33  C    0.080366
    34  C   -0.169372
    35  C    0.008623
    36  C    0.082965
    37  C    0.127262
    38  C    0.046262
    39  O   -0.188024
    40  C   -0.005498
    41  C    0.213379
    42  O   -0.258164
    43  O   -0.304442
    44  C    0.157876
    45  H   -0.016986
    46  H   -0.017482
    47  H   -0.041842
    48  H    0.001077
    49  H   -0.003514
    50  H    0.025520
    51  H    0.016506
    52  H    0.017103
    53  H    0.011730
    54  H    0.043173
    55  H    0.018256
    56  H    0.018644
    57  H    0.006296
    58  H    0.027046
    59  H    0.041494
    60  H    0.037936
    61  H    0.035460
    62  H    0.033013
    63  H    0.014956
    64  H    0.009859
    65  H    0.022818
    66  H    0.013217
    67  H    0.004991
    68  H    0.005711
    69  H    0.005166
    70  H    0.006687
    71  H    0.015494
    72  H    0.030811
    73  H    0.048268
    74  H    0.008665
    75  H    0.046105
    76  H    0.035473
    77  H    0.043466
    78  H    0.046500
    79  H    0.052565
    80  Mg   0.837613
    81  C   -0.017437
    82  C   -0.088390
    83  C   -0.044470
    84  C   -0.064380
    85  N   -0.254835
    86  C   -0.050077
    87  C   -0.015042
    88  C   -0.090644
    89  C    0.046111
    90  C    0.114614
    91  C    0.062540
    92  C   -0.077704
    93  H    0.033916
    94  N   -0.423754
    95  C    0.163684
    96  C   -0.174799
    97  C   -0.007075
    98  C    0.152318
    99  C    0.099515
   100  C    0.015694
   101  O   -0.251840
   102  C    0.061278
   103  N   -0.350183
   104  C    0.039263
   105  C   -0.021114
   106  C   -0.033726
   107  C    0.089123
   108  C    0.071425
   109  C    0.034587
   110  C   -0.007418
   111  N   -0.323821
   112  C    0.078165
   113  C   -0.163973
   114  C    0.001361
   115  C    0.096160
   116  C    0.131782
   117  C    0.041144
   118  O   -0.189965
   119  C    0.001434
   120  C    0.211094
   121  O   -0.251067
   122  O   -0.305785
   123  C    0.152232
   124  H   -0.020046
   125  H   -0.013929
   126  H   -0.041334
   127  H   -0.000660
   128  H   -0.004908
   129  H    0.023276
   130  H    0.014209
   131  H    0.017652
   132  H    0.013674
   133  H    0.037250
   134  H    0.021356
   135  H    0.019415
   136  H    0.008251
   137  H    0.025491
   138  H    0.039499
   139  H    0.037827
   140  H    0.036440
   141  H    0.033365
   142  H    0.013219
   143  H    0.013325
   144  H    0.024645
   145  H    0.017698
   146  H    0.012383
   147  H    0.006426
   148  H    0.002158
   149  H    0.011080
   150  H    0.016761
   151  H    0.029632
   152  H    0.045232
   153  H    0.008345
   154  H    0.044827
   155  H    0.033534
   156  H    0.043113
   157  H    0.049829
   158  H    0.053335
 Sum of Mulliken charges =  -0.00000

 Dipole moment (field-independent basis, Debye):
    X=              3.1353    Y=              3.8164    Z=              0.8640  Tot=              5.0141
 Quadrupole moment (field-independent basis, Debye-Ang):
   XX=           -526.6940   YY=           -531.7268   ZZ=           -461.8718
   XY=             15.9853   XZ=            -49.2675   YZ=             25.8900

 Normal termination of Gaussian 16 at Fri Sep  3 21:03:09 2021.
