 Gaussian 16, Revision A.03,
 Gaussian 16:  ES64L-G16RevA.03 25-Dec-2016

 -----------------------------------
 #p cam-b3lyp/Def2SVP td=(nstates=5)
 -----------------------------------

 --------------------------------
 TDDFT excited states in gaussian
 --------------------------------
 Symbolic Z-matrix:
 Charge =  0 Multiplicity = 1

                         Standard orientation:
 ---------------------------------------------------------------------
 Center     Atomic      Atomic             Coordinates (Angstroms)
 Number     Number       Type             X           Y           Z
 ---------------------------------------------------------------------
      1         12           0        8.035540   -0.610419    0.682409
      2          6           0        8.404963    2.267213   -1.414010
      3          6           0        8.675202    1.429426    3.341907
      4          6           0        8.164127   -3.204390    2.502134
      5          6           0        8.551575   -2.562950   -2.157836
      6          7           0        8.467999    1.556373    0.818933
      7          6           0        8.521690    2.558352   -0.053034
      8          6           0        8.638216    3.958233    0.620858
      9          6           0        9.276325    3.515051    2.013124
     10          6           0        8.747001    2.093402    2.081347
     11          6           0       10.800912    3.471331    1.998159
     12          6           0        7.242759    4.639604    0.821269
     13          6           0        7.287442    6.130544    1.168338
     14          1           0        6.248743    7.003408    0.642448
     15          7           0        7.887872   -0.809046    2.642407
     16          6           0        8.173710    0.130645    3.575448
     17          6           0        7.903945   -0.500320    4.885330
     18          6           0        7.620046   -1.942583    4.645807
     19          6           0        7.908778   -2.049985    3.238512
     20          6           0        7.884022    0.259462    6.176099
     21          6           0        7.171421   -3.050833    5.545056
     22          8           0        7.209056   -4.276846    5.184431
     23          6           0        6.764601   -2.666399    6.908782
     24          7           0        8.534130   -2.598683    0.287634
     25          6           0        8.451316   -3.533218    1.240929
     26          6           0        8.579368   -4.912650    0.665855
     27          6           0        8.524171   -4.737208   -0.920312
     28          6           0        8.451856   -3.191591   -0.984407
     29          6           0        9.850351   -5.682639    1.050212
     30          6           0        7.453130   -5.557908   -1.681720
     31          6           0        6.071875   -5.058777   -1.321023
     32          7           0        8.237041   -0.252856   -1.448927
     33          6           0        8.468683   -1.211013   -2.446400
     34          6           0        8.638726   -0.480582   -3.715897
     35          6           0        8.509830    0.861492   -3.363664
     36          6           0        8.300348    0.964425   -1.958739
     37          6           0        8.936260   -1.063419   -4.979309
     38          6           0        8.524895    2.233843   -3.843541
     39          8           0        8.568329    2.763443   -4.954905
     40          6           0        8.579187    3.204979   -2.582679
     41          6           0        7.540623    4.274006   -2.787313
     42          8           0        6.324500    3.994058   -2.780896
     43          8           0        8.124970    5.480085   -2.720583
     44          6           0        7.144737    6.586361   -2.886269
     45          1           0        9.093662    1.921337    4.222166
     46          1           0        8.107282   -4.132210    3.075157
     47          1           0        8.631468   -3.110088   -3.098957
     48          1           0        9.304430    4.654184    0.110727
     49          1           0        8.888807    4.103977    2.844219
     50          1           0       11.194113    3.627489    0.993704
     51          1           0       11.067194    2.478434    2.361122
     52          1           0       11.215720    4.175424    2.719938
     53          1           0        6.780367    4.251619    1.728860
     54          1           0        6.611996    4.492428   -0.056115
     55          1           0        8.274206    6.554311    0.979592
     56          1           0        7.149100    6.234994    2.244513
     57          1           0        8.291647    1.262526    6.056724
     58          1           0        8.581165   -0.238670    6.849571
     59          1           0        6.890748    0.280245    6.624772
     60          1           0        7.598936   -2.172757    7.407531
     61          1           0        6.390556   -3.575416    7.378494
     62          1           0        5.965593   -1.927274    6.843737
     63          1           0        7.753208   -5.547206    0.984012
     64          1           0        9.463574   -5.019870   -1.396019
     65          1           0        9.653100   -6.642463    1.528266
     66          1           0       10.451217   -5.041150    1.694216
     67          1           0       10.538879   -5.868554    0.226330
     68          1           0        7.501341   -6.606667   -1.390643
     69          1           0        7.563283   -5.509007   -2.765106
     70          1           0        5.857255   -5.586275   -0.392306
     71          1           0        5.355253   -5.328172   -2.097611
     72          1           0        6.080315   -3.992213   -1.095510
     73          1           0        8.295131   -0.562782   -5.704764
     74          1           0        8.760101   -2.138824   -4.970623
     75          1           0        9.993133   -0.814153   -5.072813
     76          1           0        9.587747    3.615611   -2.546486
     77          1           0        7.494130    7.203500   -3.714096
     78          1           0        7.043904    7.059907   -1.909544
     79          1           0        6.154321    6.303220   -3.244384
     80         12           0       -7.773482   -0.681594   -0.674862
     81          6           0       -9.653877    1.646669    1.305631
     82          6           0       -6.873323    1.952076   -2.646686
     83          6           0       -6.480930   -2.761832   -2.692135
     84          6           0       -9.703024   -3.221324    0.729539
     85          7           0       -8.263601    1.473178   -0.580124
     86          6           0       -8.937189    2.252399    0.252605
     87          6           0       -8.771768    3.772776   -0.013246
     88          6           0       -8.375712    3.703342   -1.567978
     89          6           0       -7.765657    2.303592   -1.602516
     90          6           0       -9.578277    3.723295   -2.496829
     91          6           0       -7.621725    4.407924    0.844667
     92          6           0       -7.606495    5.937952    0.867672
     93          1           0       -7.198778    6.611542    2.097514
     94          7           0       -6.433137   -0.412535   -2.113491
     95          6           0       -6.184023    0.727947   -2.790622
     96          6           0       -5.123990    0.399176   -3.756237
     97          6           0       -4.883181   -1.068571   -3.706770
     98          6           0       -5.961083   -1.483191   -2.831379
     99          6           0       -4.395764    1.443180   -4.551949
    100          6           0       -3.860737   -1.954236   -4.352055
    101          8           0       -3.983594   -3.230042   -4.359558
    102          6           0       -2.759920   -1.280081   -5.055764
    103          7           0       -8.188261   -2.672934   -1.104854
    104          6           0       -7.440692   -3.360097   -1.986262
    105          6           0       -7.748463   -4.837333   -1.927744
    106          6           0       -8.688999   -5.029903   -0.648723
    107          6           0       -8.841561   -3.553350   -0.222198
    108          6           0       -8.438946   -5.422303   -3.159586
    109          6           0       -8.227025   -6.062728    0.415472
    110          6           0       -6.969767   -5.573602    1.097697
    111          7           0       -9.258918   -0.823333    0.887651
    112          6           0       -9.959098   -1.979450    1.296601
    113          6           0      -10.945062   -1.555061    2.311583
    114          6           0      -10.764404   -0.166965    2.406737
    115          6           0       -9.752236    0.247557    1.499456
    116          6           0      -11.880836   -2.403305    2.968027
    117          6           0      -11.207168    1.043390    3.060724
    118          8           0      -11.979610    1.299487    3.983480
    119          6           0      -10.595687    2.289182    2.285833
    120          6           0      -10.012287    3.229282    3.304842
    121          8           0       -9.033735    2.888107    3.992325
    122          8           0      -10.563941    4.446452    3.148175
    123          6           0      -10.009052    5.416671    4.129293
    124          1           0       -6.716574    2.664563   -3.457050
    125          1           0       -5.992194   -3.536887   -3.287035
    126          1           0      -10.274509   -3.967390    1.285832
    127          1           0       -9.675031    4.357198    0.114615
    128          1           0       -7.628175    4.451384   -1.818930
    129          1           0      -10.508873    3.661522   -1.952475
    130          1           0       -9.462388    2.865712   -3.146570
    131          1           0       -9.537738    4.601797   -3.147162
    132          1           0       -6.659989    4.217850    0.351035
    133          1           0       -7.643246    4.031620    1.848939
    134          1           0       -8.542394    6.365251    0.487590
    135          1           0       -6.846962    6.288036    0.164402
    136          1           0       -4.902523    2.414720   -4.499898
    137          1           0       -4.472012    1.153157   -5.605481
    138          1           0       -3.340338    1.518641   -4.281654
    139          1           0       -3.167408   -0.641373   -5.835807
    140          1           0       -2.084773   -2.076986   -5.373593
    141          1           0       -2.243287   -0.622076   -4.348132
    142          1           0       -6.843355   -5.415718   -1.788637
    143          1           0       -9.692664   -5.381013   -0.930169
    144          1           0       -7.881449   -6.262686   -3.614596
    145          1           0       -8.583371   -4.627704   -3.879510
    146          1           0       -9.456377   -5.773264   -2.995660
    147          1           0       -7.971427   -7.011229   -0.063270
    148          1           0       -8.979825   -6.274152    1.167518
    149          1           0       -6.179003   -5.878062    0.405548
    150          1           0       -6.850118   -6.050859    2.068245
    151          1           0       -6.953774   -4.479048    1.155566
    152          1           0      -11.875874   -2.122657    4.012877
    153          1           0      -11.626539   -3.452954    2.836306
    154          1           0      -12.796421   -2.132788    2.435303
    155          1           0      -11.404467    2.751162    1.718369
    156          1           0      -10.858147    5.842086    4.673132
    157          1           0       -9.387492    6.115989    3.539061
    158          1           0       -9.413293    5.020899    4.943466
 ---------------------------------------------------------------------

 SCF Done:  E(RCAM-B3LYP) =  -4069.81198125     A.U. after   19 cycles

 Excitation energies and oscillator strengths:

 Excited State   1:      Singlet-A      1.6703 eV  742.27 nm  f=0.1016  <S**2>=0.000
     309 -> 315        0.10542
     310 -> 316       -0.13700
     311 -> 313        0.41729
     312 -> 314        0.54490
 This state for optimization and/or second-order correction.
 Total Energy, E(TD-HF/TD-DFT) =  -4069.75059750
 Copying the excited state density for this state as the 1-particle RhoCI density.

 Excited State   2:      Singlet-A      1.6852 eV  735.71 nm  f=0.6639  <S**2>=0.000
     309 -> 315        0.14055
     310 -> 316        0.10711
     311 -> 313        0.54413
     312 -> 314       -0.41683

 Excited State   3:      Singlet-A      2.1869 eV  566.94 nm  f=0.0560  <S**2>=0.000
     309 -> 313        0.14730
     310 -> 314        0.62540
     312 -> 316        0.26627

 Excited State   4:      Singlet-A      2.1933 eV  565.27 nm  f=0.1373  <S**2>=0.000
     309 -> 313        0.62365
     310 -> 314       -0.14638
     311 -> 315       -0.27130

 Excited State   5:      Singlet-A      2.7842 eV  445.32 nm  f=0.0000  <S**2>=0.000
     312 -> 313        0.70707

 The electronic state is 1-A.
 Alpha  occ. eigenvalues --  -46.87799 -46.87579 -19.26352 -19.26310 -19.19116
 Alpha  occ. eigenvalues --  -19.19087 -19.18794 -19.18591 -19.18195 -19.17983
 Alpha  occ. eigenvalues --  -14.42455 -14.42417 -14.41448 -14.41280 -14.39403
 Alpha  occ. eigenvalues --  -14.39266 -14.38593 -14.38520 -10.39142 -10.39044
 Alpha  occ. eigenvalues --  -10.35426 -10.35262 -10.34417 -10.34162 -10.31763
 Alpha  occ. eigenvalues --  -10.31730 -10.31416 -10.31235 -10.30938 -10.30915
 Alpha  occ. eigenvalues --  -10.30577 -10.30509 -10.30317 -10.30282 -10.30197
 Alpha  occ. eigenvalues --  -10.30054 -10.29920 -10.29823 -10.29632 -10.29345
 Alpha  occ. eigenvalues --  -10.29311 -10.29251 -10.28770 -10.28650 -10.28603
 Alpha  occ. eigenvalues --  -10.28581 -10.28371 -10.28320 -10.28131 -10.28068
 Alpha  occ. eigenvalues --  -10.27916 -10.27798 -10.27730 -10.27586 -10.27582
 Alpha  occ. eigenvalues --  -10.27480 -10.27465 -10.27447 -10.27431 -10.27412
 Alpha  occ. eigenvalues --  -10.27405 -10.27369 -10.27315 -10.27307 -10.27190
 Alpha  occ. eigenvalues --  -10.26988 -10.26739 -10.26630 -10.26371 -10.26246
 Alpha  occ. eigenvalues --  -10.26230 -10.26148 -10.26073 -10.26016 -10.25958
 Alpha  occ. eigenvalues --  -10.25857 -10.25855 -10.25790 -10.25416 -10.25334
 Alpha  occ. eigenvalues --  -10.24842 -10.24791 -10.24786 -10.24665 -10.24639
 Alpha  occ. eigenvalues --  -10.24610  -3.16541  -3.16329  -1.91423  -1.91211
 Alpha  occ. eigenvalues --   -1.91009  -1.90852  -1.90800  -1.90637  -1.16700
 Alpha  occ. eigenvalues --   -1.16603  -1.08658  -1.08594  -1.07194  -1.06901
 Alpha  occ. eigenvalues --   -1.06842  -1.06708  -1.04587  -1.04415  -1.03760
 Alpha  occ. eigenvalues --   -1.03582  -1.03235  -1.02958  -1.02413  -1.02030
 Alpha  occ. eigenvalues --   -0.91986  -0.91912  -0.89510  -0.89419  -0.89204
 Alpha  occ. eigenvalues --   -0.89081  -0.88275  -0.88148  -0.87879  -0.87719
 Alpha  occ. eigenvalues --   -0.87678  -0.87605  -0.87264  -0.87000  -0.84995
 Alpha  occ. eigenvalues --   -0.84925  -0.83924  -0.83806  -0.82947  -0.82812
 Alpha  occ. eigenvalues --   -0.82658  -0.82561  -0.81617  -0.81535  -0.80609
 Alpha  occ. eigenvalues --   -0.80366  -0.78794  -0.78534  -0.77220  -0.77065
 Alpha  occ. eigenvalues --   -0.76952  -0.76833  -0.75943  -0.75767  -0.74894
 Alpha  occ. eigenvalues --   -0.74732  -0.72777  -0.72620  -0.71678  -0.71507
 Alpha  occ. eigenvalues --   -0.69885  -0.69687  -0.68883  -0.68748  -0.67646
 Alpha  occ. eigenvalues --   -0.67520  -0.67231  -0.67112  -0.65303  -0.65201
 Alpha  occ. eigenvalues --   -0.64867  -0.64696  -0.64631  -0.64583  -0.64262
 Alpha  occ. eigenvalues --   -0.64131  -0.62333  -0.62220  -0.60433  -0.60236
 Alpha  occ. eigenvalues --   -0.59816  -0.59721  -0.58993  -0.58917  -0.58511
 Alpha  occ. eigenvalues --   -0.58350  -0.57616  -0.57492  -0.57310  -0.57153
 Alpha  occ. eigenvalues --   -0.56317  -0.56120  -0.56020  -0.55824  -0.55520
 Alpha  occ. eigenvalues --   -0.55358  -0.55345  -0.55182  -0.54540  -0.54426
 Alpha  occ. eigenvalues --   -0.53912  -0.53840  -0.53298  -0.53230  -0.53143
 Alpha  occ. eigenvalues --   -0.53055  -0.52935  -0.52830  -0.52750  -0.52544
 Alpha  occ. eigenvalues --   -0.52416  -0.52331  -0.51928  -0.51818  -0.51629
 Alpha  occ. eigenvalues --   -0.51572  -0.51207  -0.51130  -0.50551  -0.50340
 Alpha  occ. eigenvalues --   -0.50016  -0.49912  -0.49886  -0.49783  -0.49520
 Alpha  occ. eigenvalues --   -0.49388  -0.49225  -0.49116  -0.49112  -0.49034
 Alpha  occ. eigenvalues --   -0.48614  -0.48488  -0.48461  -0.48441  -0.48307
 Alpha  occ. eigenvalues --   -0.48227  -0.47698  -0.47508  -0.47297  -0.47025
 Alpha  occ. eigenvalues --   -0.46799  -0.46635  -0.46572  -0.46476  -0.46363
 Alpha  occ. eigenvalues --   -0.46188  -0.46172  -0.46016  -0.45847  -0.45761
 Alpha  occ. eigenvalues --   -0.45192  -0.45136  -0.44597  -0.44502  -0.44444
 Alpha  occ. eigenvalues --   -0.44397  -0.44143  -0.44097  -0.44051  -0.44027
 Alpha  occ. eigenvalues --   -0.43997  -0.43833  -0.43522  -0.43495  -0.43390
 Alpha  occ. eigenvalues --   -0.43312  -0.43034  -0.42872  -0.42831  -0.42743
 Alpha  occ. eigenvalues --   -0.42646  -0.42473  -0.42008  -0.41895  -0.41713
 Alpha  occ. eigenvalues --   -0.41596  -0.41546  -0.41386  -0.41147  -0.40915
 Alpha  occ. eigenvalues --   -0.40874  -0.40811  -0.40641  -0.40596  -0.40563
 Alpha  occ. eigenvalues --   -0.40423  -0.40255  -0.40147  -0.39415  -0.39355
 Alpha  occ. eigenvalues --   -0.38461  -0.38280  -0.37770  -0.37587  -0.37314
 Alpha  occ. eigenvalues --   -0.37279  -0.37192  -0.37123  -0.36755  -0.36721
 Alpha  occ. eigenvalues --   -0.36209  -0.36150  -0.34291  -0.34176  -0.33826
 Alpha  occ. eigenvalues --   -0.33811  -0.33193  -0.33096  -0.31325  -0.31153
 Alpha  occ. eigenvalues --   -0.31039  -0.30891  -0.30057  -0.29890  -0.29448
 Alpha  occ. eigenvalues --   -0.29329  -0.29233  -0.29129  -0.24085  -0.23957
 Alpha  occ. eigenvalues --   -0.21129  -0.21034
 Alpha virt. eigenvalues --   -0.08776  -0.08705  -0.01748  -0.01600  -0.00054
 Alpha virt. eigenvalues --    0.00073   0.02189   0.02283   0.03118   0.03307
 Alpha virt. eigenvalues --    0.04707   0.04802   0.05042   0.05215   0.06147

 Mulliken charges:
               1
     1  Mg   0.838650
     2  C   -0.003196
     3  C   -0.094137
     4  C   -0.045689
     5  C   -0.063821
     6  N   -0.256808
     7  C   -0.052583
     8  C   -0.014014
     9  C   -0.087028
    10  C    0.046352
    11  C    0.104793
    12  C    0.053474
    13  C   -0.071664
    14  H    0.035485
    15  N   -0.433184
    16  C    0.168545
    17  C   -0.177019
    18  C   -0.003786
    19  C    0.148770
    20  C    0.110140
    21  C    0.012502
    22  O   -0.249367
    23  C    0.062365
    24  N   -0.341134
    25  C    0.041321
    26  C   -0.028238
    27  C   -0.023974
    28  C    0.074822
    29  C    0.076151
    30  C    0.035078
    31  C   -0.004583
    32  N   -0.310356
    33  C    0.080217
    34  C   -0.169892
    35  C    0.008140
    36  C    0.082809
    37  C    0.127381
    38  C    0.045788
    39  O   -0.188982
    40  C   -0.005224
    41  C    0.212857
    42  O   -0.257727
    43  O   -0.304598
    44  C    0.157929
    45  H   -0.017518
    46  H   -0.016593
    47  H   -0.041436
    48  H    0.000815
    49  H   -0.003987
    50  H    0.025426
    51  H    0.016563
    52  H    0.016708
    53  H    0.011371
    54  H    0.043689
    55  H    0.017936
    56  H    0.018183
    57  H    0.005861
    58  H    0.026961
    59  H    0.039949
    60  H    0.037308
    61  H    0.035983
    62  H    0.031812
    63  H    0.016849
    64  H    0.009420
    65  H    0.023383
    66  H    0.012479
    67  H    0.004761
    68  H    0.006554
    69  H    0.004690
    70  H    0.009063
    71  H    0.018689
    72  H    0.028659
    73  H    0.047140
    74  H    0.009259
    75  H    0.045981
    76  H    0.035162
    77  H    0.042832
    78  H    0.046514
    79  H    0.052967
    80  Mg   0.837761
    81  C   -0.016871
    82  C   -0.087578
    83  C   -0.045472
    84  C   -0.064933
    85  N   -0.254559
    86  C   -0.050042
    87  C   -0.015099
    88  C   -0.090515
    89  C    0.045755
    90  C    0.114364
    91  C    0.062461
    92  C   -0.077753
    93  H    0.034352
    94  N   -0.423573
    95  C    0.163041
    96  C   -0.174277
    97  C   -0.007511
    98  C    0.152162
    99  C    0.099194
   100  C    0.015699
   101  O   -0.253416
   102  C    0.061084
   103  N   -0.350032
   104  C    0.037574
   105  C   -0.019843
   106  C   -0.034739
   107  C    0.088773
   108  C    0.073700
   109  C    0.034799
   110  C   -0.007659
   111  N   -0.324013
   112  C    0.078209
   113  C   -0.163378
   114  C    0.002083
   115  C    0.096014
   116  C    0.131540
   117  C    0.042167
   118  O   -0.188374
   119  C    0.000952
   120  C    0.211238
   121  O   -0.251167
   122  O   -0.305606
   123  C    0.152141
   124  H   -0.019416
   125  H   -0.015532
   126  H   -0.040713
   127  H   -0.000856
   128  H   -0.004151
   129  H    0.022317
   130  H    0.014483
   131  H    0.016294
   132  H    0.014205
   133  H    0.037496
   134  H    0.020687
   135  H    0.019797
   136  H    0.008765
   137  H    0.026391
   138  H    0.041498
   139  H    0.038436
   140  H    0.036715
   141  H    0.035252
   142  H    0.014434
   143  H    0.012222
   144  H    0.025086
   145  H    0.011676
   146  H    0.005524
   147  H    0.006117
   148  H    0.003465
   149  H    0.011018
   150  H    0.017778
   151  H    0.030186
   152  H    0.045714
   153  H    0.008357
   154  H    0.046717
   155  H    0.034862
   156  H    0.043703
   157  H    0.049474
   158  H    0.053345
 Sum of Mulliken charges =  -0.00000

 Dipole moment (field-independent basis, Debye):
    X=              2.8626    Y=              3.0911    Z=              0.3588  Tot=              4.2282
 Quadrupole moment (field-independent basis, Debye-Ang):
   XX=           -513.0101   YY=           -462.7937   ZZ=           -527.8263
   XY=              7.7515   XZ=             72.6786   YZ=             16.2605

 Normal termination of Gaussian 16 at Sat Sep 11 20:28:28 2021.
