 Gaussian 16, Revision A.03,
 Gaussian 16:  ES64L-G16RevA.03 25-Dec-2016

 -----------------------------------
 #p cam-b3lyp/Def2SVP td=(nstates=5)
 -----------------------------------

 --------------------------------
 TDDFT excited states in gaussian
 --------------------------------
 Symbolic Z-matrix:
 Charge =  0 Multiplicity = 1

                         Standard orientation:
 ---------------------------------------------------------------------
 Center     Atomic      Atomic             Coordinates (Angstroms)
 Number     Number       Type             X           Y           Z
 ---------------------------------------------------------------------
      1         12           0        8.097639    0.381614    0.070138
      2          6           0        8.145449   -3.155588   -0.475874
      3          6           0        8.935769    0.750277   -3.216910
      4          6           0        8.506124    3.475505    0.633700
      5          6           0        8.386465   -0.289292    3.477795
      6          7           0        8.464370   -1.091758   -1.540864
      7          6           0        8.391841   -2.415814   -1.634611
      8          6           0        8.527448   -2.940097   -3.095470
      9          6           0        9.321511   -1.712214   -3.730897
     10          6           0        8.853104   -0.610472   -2.796722
     11          6           0       10.836960   -1.841922   -3.616482
     12          6           0        7.136799   -3.142079   -3.786143
     13          6           0        7.163949   -3.953124   -5.084920
     14          1           0        6.045979   -4.835529   -5.382999
     15          7           0        8.160633    1.913450   -1.175799
     16          6           0        8.507743    1.878880   -2.484846
     17          6           0        8.397554    3.270506   -2.972613
     18          6           0        8.142009    4.146365   -1.795472
     19          6           0        8.287302    3.204686   -0.714958
     20          6           0        8.484148    3.644172   -4.420586
     21          6           0        7.828584    5.603328   -1.664499
     22          8           0        7.872410    6.210077   -0.539995
     23          6           0        7.551529    6.330806   -2.916321
     24          7           0        8.623298    1.456111    1.780920
     25          6           0        8.672885    2.792660    1.768231
     26          6           0        8.789877    3.347915    3.156736
     27          6           0        8.564723    2.115077    4.146265
     28          6           0        8.431109    0.988077    3.092562
     29          6           0       10.120434    4.035518    3.492641
     30          6           0        7.450628    2.263668    5.212629
     31          6           0        6.097168    2.301338    4.538963
     32          7           0        8.064770   -1.387912    1.326619
     33          6           0        8.226029   -1.436521    2.718849
     34          6           0        8.237725   -2.860042    3.102931
     35          6           0        8.098180   -3.545488    1.897718
     36          6           0        8.031576   -2.610122    0.825828
     37          6           0        8.423597   -3.366475    4.419521
     38          6           0        8.014600   -4.851180    1.263654
     39          8           0        7.923959   -6.009611    1.672698
     40          6           0        8.164335   -4.654757   -0.309503
     41          6           0        7.072727   -5.449638   -0.972726
     42          8           0        5.874547   -5.128224   -0.836996
     43          8           0        7.617469   -6.310064   -1.846492
     44          6           0        6.586542   -7.109561   -2.560739
     45          1           0        9.425212    0.981082   -4.165128
     46          1           0        8.541958    4.537539    0.885168
     47          1           0        8.388059   -0.572982    4.531821
     48          1           0        9.112097   -3.854509   -3.197747
     49          1           0        9.001269   -1.505021   -4.751798
     50          1           0       11.118358   -2.696500   -3.001314
     51          1           0       11.174579   -0.913439   -3.155585
     52          1           0       11.298819   -1.871633   -4.603691
     53          1           0        6.784873   -2.185411   -4.172144
     54          1           0        6.424333   -3.592882   -3.094410
     55          1           0        8.110165   -4.481440   -5.205199
     56          1           0        7.134007   -3.256849   -5.923075
     57          1           0        8.841220    2.813401   -5.027927
     58          1           0        9.264514    4.399847   -4.508289
     59          1           0        7.542493    4.042548   -4.798627
     60          1           0        8.414837    6.251376   -3.577335
     61          1           0        7.260714    7.338199   -2.620626
     62          1           0        6.724239    5.842905   -3.432549
     63          1           0        8.024201    4.099897    3.342985
     64          1           0        9.459371    1.887529    4.726351
     65          1           0       10.008025    5.067179    3.826924
     66          1           0       10.761423    3.976958    2.613440
     67          1           0       10.726256    3.519809    4.237248
     68          1           0        7.566042    3.202450    5.753288
     69          1           0        7.446338    1.457045    5.945835
     70          1           0        5.998686    3.346777    4.248809
     71          1           0        5.314140    2.015931    5.242255
     72          1           0        6.090853    1.707460    3.624766
     73          1           0        7.693443   -4.165956    4.544718
     74          1           0        8.287734   -2.585288    5.167112
     75          1           0        9.455571   -3.711802    4.359220
     76          1           0        9.155946   -5.017890   -0.577765
     77          1           0        6.826225   -8.160524   -2.398686
     78          1           0        6.570440   -6.746935   -3.588673
     79          1           0        5.575130   -7.064270   -2.155360
     80         12           0       -7.771945    1.039454    0.324124
     81          6           0       -9.404044   -2.153298    0.176853
     82          6           0       -8.654616    1.474056   -2.941854
     83          6           0       -5.963889    3.646535    0.285718
     84          6           0       -6.071693   -0.115062    3.138718
     85          7           0       -8.885317   -0.244889   -1.091197
     86          6           0       -9.510760   -1.410081   -1.017167
     87          6           0      -10.361279   -1.764054   -2.266517
     88          6           0       -9.589548   -0.860419   -3.346686
     89          6           0       -9.033705    0.213909   -2.414197
     90          6           0       -8.419913   -1.574678   -4.003286
     91          6           0      -11.859442   -1.323250   -2.114160
     92          6           0      -12.811669   -1.909335   -3.158917
     93          1           0      -14.172086   -2.246767   -2.749187
     94          7           0       -7.765305    2.579398   -0.927709
     95          6           0       -8.180887    2.586135   -2.211651
     96          6           0       -7.949795    3.953675   -2.702165
     97          6           0       -7.211732    4.709505   -1.653975
     98          6           0       -6.927207    3.645144   -0.712554
     99          6           0       -8.483730    4.448340   -4.015036
    100          6           0       -6.815056    6.149188   -1.526796
    101          8           0       -5.970985    6.539677   -0.644820
    102          6           0       -7.372508    7.073437   -2.525052
    103          7           0       -6.087391    1.603087    1.404371
    104          6           0       -5.527009    2.812809    1.229835
    105          6           0       -4.504277    3.100193    2.303061
    106          6           0       -4.668690    1.927743    3.378200
    107          6           0       -5.744035    1.079165    2.664790
    108          6           0       -3.049996    3.162329    1.836589
    109          6           0       -4.919866    2.353345    4.850768
    110          6           0       -6.279173    3.003042    4.975531
    111          7           0       -7.855300   -0.716617    1.580049
    112          6           0       -7.035179   -1.010102    2.691501
    113          6           0       -7.392501   -2.368346    3.149661
    114          6           0       -8.387521   -2.783151    2.251686
    115          6           0       -8.618721   -1.763906    1.288783
    116          6           0       -6.786295   -3.067870    4.231000
    117          6           0       -9.287336   -3.855714    1.892991
    118          8           0       -9.597525   -4.934472    2.396773
    119          6           0       -9.895997   -3.546020    0.457724
    120          6           0      -11.382788   -3.763255    0.526981
    121          8           0      -12.095850   -3.032835    1.237373
    122          8           0      -11.742891   -4.650910   -0.417871
    123          6           0      -13.210446   -4.891024   -0.396169
    124          1           0       -8.681942    1.613308   -4.022939
    125          1           0       -5.388154    4.569759    0.384096
    126          1           0       -5.656237   -0.507958    4.069157
    127          1           0      -10.325405   -2.806324   -2.560048
    128          1           0      -10.281037   -0.423475   -4.062418
    129          1           0       -8.227302   -2.534835   -3.548158
    130          1           0       -7.567773   -0.919327   -3.879049
    131          1           0       -8.584172   -1.654309   -5.081712
    132          1           0      -11.945520   -0.256721   -2.358794
    133          1           0      -12.223263   -1.543907   -1.129490
    134          1           0      -12.357920   -2.742965   -3.708568
    135          1           0      -12.995402   -1.151808   -3.924688
    136          1           0       -8.843211    3.621712   -4.640220
    137          1           0       -7.634394    4.859918   -4.570998
    138          1           0       -9.239170    5.227920   -3.895689
    139          1           0       -7.080741    6.748324   -3.520863
    140          1           0       -7.046709    8.068547   -2.216043
    141          1           0       -8.465909    7.015918   -2.482969
    142          1           0       -4.705285    4.049298    2.784617
    143          1           0       -3.765733    1.302779    3.440831
    144          1           0       -2.554287    4.121143    2.079529
    145          1           0       -3.025525    2.981073    0.770252
    146          1           0       -2.407776    2.371367    2.220170
    147          1           0       -4.187668    3.104050    5.158155
    148          1           0       -4.853279    1.531106    5.555374
    149          1           0       -6.087707    4.036321    4.670972
    150          1           0       -6.634478    2.953741    6.002837
    151          1           0       -6.987915    2.573789    4.257837
    152          1           0       -7.587772   -3.533768    4.788751
    153          1           0       -6.200552   -2.399326    4.858472
    154          1           0       -6.155965   -3.770731    3.679693
    155          1           0       -9.416566   -4.219516   -0.253703
    156          1           0      -13.356047   -5.969551   -0.281023
    157          1           0      -13.603021   -4.425508   -1.319717
    158          1           0      -13.768058   -4.510624    0.451653
 ---------------------------------------------------------------------

 SCF Done:  E(RCAM-B3LYP) =  -4069.81173828     A.U. after   19 cycles

 Excitation energies and oscillator strengths:

 Excited State   1:      Singlet-A      1.6697 eV  742.55 nm  f=0.0179  <S**2>=0.000
     309 -> 315       -0.10266
     310 -> 316        0.13855
     311 -> 313       -0.40728
     312 -> 314        0.55247
 This state for optimization and/or second-order correction.
 Total Energy, E(TD-HF/TD-DFT) =  -4069.75037732
 Copying the excited state density for this state as the 1-particle RhoCI density.

 Excited State   2:      Singlet-A      1.6854 eV  735.64 nm  f=0.7386  <S**2>=0.000
     309 -> 315        0.14248
     310 -> 316        0.10449
     311 -> 313        0.55164
     312 -> 314        0.40674

 Excited State   3:      Singlet-A      2.1855 eV  567.31 nm  f=0.0753  <S**2>=0.000
     309 -> 313       -0.11341
     310 -> 314        0.63262
     312 -> 316       -0.26847

 Excited State   4:      Singlet-A      2.1930 eV  565.36 nm  f=0.1211  <S**2>=0.000
     309 -> 313        0.63067
     310 -> 314        0.11245
     311 -> 315       -0.27418

 Excited State   5:      Singlet-A      2.7706 eV  447.50 nm  f=0.0000  <S**2>=0.000
     312 -> 313        0.70705

 The electronic state is 1-A.
 Alpha  occ. eigenvalues --  -46.87811 -46.87587 -19.26293 -19.26291 -19.19100
 Alpha  occ. eigenvalues --  -19.19030 -19.18818 -19.18655 -19.18179 -19.17976
 Alpha  occ. eigenvalues --  -14.42464 -14.42426 -14.41465 -14.41282 -14.39416
 Alpha  occ. eigenvalues --  -14.39280 -14.38601 -14.38524 -10.39090 -10.39028
 Alpha  occ. eigenvalues --  -10.35451 -10.35334 -10.34399 -10.34154 -10.31704
 Alpha  occ. eigenvalues --  -10.31685 -10.31420 -10.31236 -10.30958 -10.30922
 Alpha  occ. eigenvalues --  -10.30584 -10.30521 -10.30321 -10.30286 -10.30221
 Alpha  occ. eigenvalues --  -10.30064 -10.29936 -10.29812 -10.29643 -10.29364
 Alpha  occ. eigenvalues --  -10.29328 -10.29267 -10.28763 -10.28660 -10.28611
 Alpha  occ. eigenvalues --  -10.28557 -10.28377 -10.28334 -10.28131 -10.28080
 Alpha  occ. eigenvalues --  -10.27926 -10.27805 -10.27741 -10.27599 -10.27596
 Alpha  occ. eigenvalues --  -10.27520 -10.27492 -10.27465 -10.27426 -10.27418
 Alpha  occ. eigenvalues --  -10.27417 -10.27412 -10.27397 -10.27284 -10.27169
 Alpha  occ. eigenvalues --  -10.26979 -10.26722 -10.26641 -10.26406 -10.26373
 Alpha  occ. eigenvalues --  -10.26247 -10.26213 -10.26054 -10.26035 -10.25966
 Alpha  occ. eigenvalues --  -10.25856 -10.25854 -10.25748 -10.25446 -10.25289
 Alpha  occ. eigenvalues --  -10.24845 -10.24801 -10.24797 -10.24728 -10.24657
 Alpha  occ. eigenvalues --  -10.24614  -3.16554  -3.16336  -1.91436  -1.91219
 Alpha  occ. eigenvalues --   -1.91022  -1.90864  -1.90807  -1.90644  -1.16642
 Alpha  occ. eigenvalues --   -1.16584  -1.08636  -1.08584  -1.07219  -1.06908
 Alpha  occ. eigenvalues --   -1.06884  -1.06653  -1.04595  -1.04424  -1.03775
 Alpha  occ. eigenvalues --   -1.03589  -1.03248  -1.02962  -1.02425  -1.02036
 Alpha  occ. eigenvalues --   -0.91985  -0.91914  -0.89538  -0.89416  -0.89203
 Alpha  occ. eigenvalues --   -0.89089  -0.88304  -0.88137  -0.87883  -0.87711
 Alpha  occ. eigenvalues --   -0.87687  -0.87612  -0.87283  -0.87059  -0.84996
 Alpha  occ. eigenvalues --   -0.84936  -0.83956  -0.83794  -0.82975  -0.82871
 Alpha  occ. eigenvalues --   -0.82661  -0.82590  -0.81597  -0.81529  -0.80608
 Alpha  occ. eigenvalues --   -0.80375  -0.78808  -0.78567  -0.77234  -0.77076
 Alpha  occ. eigenvalues --   -0.76949  -0.76829  -0.75936  -0.75773  -0.74913
 Alpha  occ. eigenvalues --   -0.74720  -0.72788  -0.72623  -0.71685  -0.71506
 Alpha  occ. eigenvalues --   -0.69930  -0.69676  -0.68886  -0.68763  -0.67653
 Alpha  occ. eigenvalues --   -0.67531  -0.67232  -0.67142  -0.65301  -0.65207
 Alpha  occ. eigenvalues --   -0.64867  -0.64698  -0.64635  -0.64586  -0.64287
 Alpha  occ. eigenvalues --   -0.64125  -0.62309  -0.62211  -0.60453  -0.60271
 Alpha  occ. eigenvalues --   -0.59818  -0.59731  -0.59001  -0.58918  -0.58517
 Alpha  occ. eigenvalues --   -0.58353  -0.57596  -0.57484  -0.57322  -0.57162
 Alpha  occ. eigenvalues --   -0.56322  -0.56133  -0.55989  -0.55824  -0.55530
 Alpha  occ. eigenvalues --   -0.55389  -0.55355  -0.55169  -0.54538  -0.54413
 Alpha  occ. eigenvalues --   -0.53909  -0.53851  -0.53310  -0.53233  -0.53157
 Alpha  occ. eigenvalues --   -0.53077  -0.52928  -0.52836  -0.52765  -0.52613
 Alpha  occ. eigenvalues --   -0.52463  -0.52323  -0.51927  -0.51794  -0.51628
 Alpha  occ. eigenvalues --   -0.51599  -0.51210  -0.51128  -0.50579  -0.50420
 Alpha  occ. eigenvalues --   -0.50050  -0.49928  -0.49916  -0.49789  -0.49525
 Alpha  occ. eigenvalues --   -0.49426  -0.49225  -0.49137  -0.49109  -0.49036
 Alpha  occ. eigenvalues --   -0.48605  -0.48490  -0.48474  -0.48453  -0.48292
 Alpha  occ. eigenvalues --   -0.48278  -0.47708  -0.47529  -0.47308  -0.47049
 Alpha  occ. eigenvalues --   -0.46813  -0.46635  -0.46569  -0.46492  -0.46373
 Alpha  occ. eigenvalues --   -0.46197  -0.46176  -0.46005  -0.45834  -0.45746
 Alpha  occ. eigenvalues --   -0.45217  -0.45126  -0.44589  -0.44519  -0.44446
 Alpha  occ. eigenvalues --   -0.44408  -0.44160  -0.44101  -0.44061  -0.44029
 Alpha  occ. eigenvalues --   -0.44007  -0.43876  -0.43507  -0.43485  -0.43400
 Alpha  occ. eigenvalues --   -0.43316  -0.43040  -0.42865  -0.42827  -0.42712
 Alpha  occ. eigenvalues --   -0.42673  -0.42477  -0.42029  -0.41892  -0.41717
 Alpha  occ. eigenvalues --   -0.41596  -0.41549  -0.41394  -0.41154  -0.40918
 Alpha  occ. eigenvalues --   -0.40886  -0.40830  -0.40664  -0.40635  -0.40589
 Alpha  occ. eigenvalues --   -0.40414  -0.40249  -0.40173  -0.39467  -0.39345
 Alpha  occ. eigenvalues --   -0.38486  -0.38270  -0.37764  -0.37594  -0.37337
 Alpha  occ. eigenvalues --   -0.37278  -0.37189  -0.37133  -0.36725  -0.36705
 Alpha  occ. eigenvalues --   -0.36207  -0.36142  -0.34300  -0.34179  -0.33798
 Alpha  occ. eigenvalues --   -0.33782  -0.33200  -0.33101  -0.31348  -0.31213
 Alpha  occ. eigenvalues --   -0.31048  -0.30900  -0.30038  -0.29881  -0.29460
 Alpha  occ. eigenvalues --   -0.29334  -0.29258  -0.29135  -0.24095  -0.23961
 Alpha  occ. eigenvalues --   -0.21141  -0.21043
 Alpha virt. eigenvalues --   -0.08787  -0.08719  -0.01763  -0.01610  -0.00067
 Alpha virt. eigenvalues --    0.00036   0.02189   0.02284   0.03099   0.03293
 Alpha virt. eigenvalues --    0.04702   0.04798   0.05088   0.05228   0.06160

 Mulliken charges:
               1
     1  Mg   0.838531
     2  C   -0.002960
     3  C   -0.094125
     4  C   -0.045830
     5  C   -0.064002
     6  N   -0.256762
     7  C   -0.052503
     8  C   -0.013985
     9  C   -0.087006
    10  C    0.046314
    11  C    0.104801
    12  C    0.053482
    13  C   -0.071767
    14  H    0.036057
    15  N   -0.433149
    16  C    0.168438
    17  C   -0.177119
    18  C   -0.003938
    19  C    0.148677
    20  C    0.110180
    21  C    0.012388
    22  O   -0.249498
    23  C    0.062431
    24  N   -0.341093
    25  C    0.041201
    26  C   -0.028232
    27  C   -0.023951
    28  C    0.074732
    29  C    0.076140
    30  C    0.035170
    31  C   -0.004499
    32  N   -0.310445
    33  C    0.080293
    34  C   -0.169811
    35  C    0.008406
    36  C    0.082878
    37  C    0.127330
    38  C    0.046089
    39  O   -0.188329
    40  C   -0.005341
    41  C    0.212939
    42  O   -0.257190
    43  O   -0.304788
    44  C    0.157658
    45  H   -0.017586
    46  H   -0.016752
    47  H   -0.041538
    48  H    0.000983
    49  H   -0.004074
    50  H    0.025518
    51  H    0.016479
    52  H    0.016667
    53  H    0.011134
    54  H    0.044097
    55  H    0.017932
    56  H    0.017877
    57  H    0.005820
    58  H    0.026881
    59  H    0.039591
    60  H    0.037282
    61  H    0.035895
    62  H    0.031574
    63  H    0.016571
    64  H    0.009533
    65  H    0.023300
    66  H    0.012601
    67  H    0.004787
    68  H    0.006438
    69  H    0.004700
    70  H    0.008889
    71  H    0.017632
    72  H    0.028936
    73  H    0.047566
    74  H    0.009026
    75  H    0.046091
    76  H    0.035203
    77  H    0.043066
    78  H    0.046336
    79  H    0.053734
    80  Mg   0.837913
    81  C   -0.016852
    82  C   -0.087919
    83  C   -0.045551
    84  C   -0.064455
    85  N   -0.254570
    86  C   -0.049769
    87  C   -0.015110
    88  C   -0.090506
    89  C    0.045767
    90  C    0.114410
    91  C    0.062555
    92  C   -0.077783
    93  H    0.034747
    94  N   -0.423436
    95  C    0.162872
    96  C   -0.174846
    97  C   -0.007930
    98  C    0.152088
    99  C    0.099478
   100  C    0.015423
   101  O   -0.253195
   102  C    0.061250
   103  N   -0.350022
   104  C    0.037592
   105  C   -0.019919
   106  C   -0.034919
   107  C    0.088969
   108  C    0.073470
   109  C    0.034708
   110  C   -0.007645
   111  N   -0.324187
   112  C    0.078489
   113  C   -0.162839
   114  C    0.002317
   115  C    0.096242
   116  C    0.131486
   117  C    0.042542
   118  O   -0.187750
   119  C    0.000860
   120  C    0.211236
   121  O   -0.251110
   122  O   -0.305595
   123  C    0.152063
   124  H   -0.019974
   125  H   -0.015579
   126  H   -0.040079
   127  H   -0.000659
   128  H   -0.004554
   129  H    0.022630
   130  H    0.014499
   131  H    0.015960
   132  H    0.013855
   133  H    0.037677
   134  H    0.020745
   135  H    0.019453
   136  H    0.008577
   137  H    0.025789
   138  H    0.039584
   139  H    0.038012
   140  H    0.036235
   141  H    0.033823
   142  H    0.014240
   143  H    0.013122
   144  H    0.025130
   145  H    0.011640
   146  H    0.006414
   147  H    0.006239
   148  H    0.003780
   149  H    0.010835
   150  H    0.017787
   151  H    0.030016
   152  H    0.045897
   153  H    0.008651
   154  H    0.047728
   155  H    0.035163
   156  H    0.043892
   157  H    0.049381
   158  H    0.053522
 Sum of Mulliken charges =  -0.00000

 Dipole moment (field-independent basis, Debye):
    X=              2.5745    Y=              3.3548    Z=             -7.7618  Tot=              8.8390
 Quadrupole moment (field-independent basis, Debye-Ang):
   XX=           -482.7140   YY=           -562.4489   ZZ=           -447.1148
   XY=             -7.7418   XZ=             29.0514   YZ=             18.9273

 Normal termination of Gaussian 16 at Sun Sep 12 06:44:55 2021.
