 Gaussian 16, Revision A.03,
 Gaussian 16:  ES64L-G16RevA.03 25-Dec-2016

 -----------------------------------
 #p cam-b3lyp/Def2SVP td=(nstates=5)
 -----------------------------------

 --------------------------------
 TDDFT excited states in gaussian
 --------------------------------
 Symbolic Z-matrix:
 Charge =  0 Multiplicity = 1

                         Standard orientation:
 ---------------------------------------------------------------------
 Center     Atomic      Atomic             Coordinates (Angstroms)
 Number     Number       Type             X           Y           Z
 ---------------------------------------------------------------------
      1         12           0       -5.013708    0.716152    0.099974
      2          6           0       -5.384046   -2.465031    1.698455
      3          6           0       -5.805598    2.146430    3.095017
      4          6           0       -5.138423    3.511963   -1.391503
      5          6           0       -5.372056   -0.938291   -2.946346
      6          7           0       -5.509569   -0.154506    2.073986
      7          6           0       -5.558451   -1.387155    2.569323
      8          6           0       -5.737578   -1.424592    4.116541
      9          6           0       -6.414026    0.003844    4.326270
     10          6           0       -5.849144    0.720658    3.112594
     11          6           0       -7.935290   -0.020671    4.218301
     12          6           0       -4.369427   -1.526926    4.871141
     13          6           0       -4.467278   -1.895373    6.354389
     14          1           0       -3.434087   -2.738893    6.936060
     15          7           0       -4.932652    2.555331    0.816704
     16          6           0       -5.277917    2.954179    2.064501
     17          6           0       -5.039316    4.412934    2.106745
     18          6           0       -4.707762    4.859961    0.725320
     19          6           0       -4.941686    3.649177   -0.019434
     20          6           0       -5.087367    5.218337    3.368793
     21          6           0       -4.262471    6.173186    0.163815
     22          8           0       -4.253550    6.407636   -1.092977
     23          6           0       -3.916509    7.221821    1.140399
     24          7           0       -5.443309    1.256774   -1.870002
     25          6           0       -5.370147    2.531853   -2.267250
     26          6           0       -5.439520    2.643060   -3.761492
     27          6           0       -5.330998    1.151551   -4.321295
     28          6           0       -5.298386    0.394392   -2.970771
     29          6           0       -6.702358    3.309077   -4.325118
     30          6           0       -4.210870    0.867570   -5.353326
     31          6           0       -2.857833    0.990450   -4.689031
     32          7           0       -5.146577   -1.348894   -0.554990
     33          6           0       -5.315389   -1.807290   -1.869543
     34          6           0       -5.458554   -3.273186   -1.800837
     35          6           0       -5.379154   -3.565932   -0.440749
     36          6           0       -5.224188   -2.356844    0.295718
     37          6           0       -5.693633   -4.140182   -2.904237
     38          6           0       -5.413882   -4.616618    0.563597
     39          8           0       -5.430912   -5.847913    0.530217
     40          6           0       -5.540714   -3.935297    1.997314
     41          6           0       -4.524763   -4.581671    2.899175
     42          8           0       -3.302539   -4.424141    2.702404
     43          8           0       -5.143704   -5.081541    3.979723
     44          6           0       -4.188462   -5.711313    4.930015
     45          1           0       -6.269252    2.698801    3.914683
     46          1           0       -5.077445    4.444709   -1.956042
     47          1           0       -5.402506   -1.529956   -3.863112
     48          1           0       -6.403299   -2.208472    4.478165
     49          1           0       -6.073374    0.484788    5.242988
     50          1           0       -8.295500   -0.994346    3.886449
     51          1           0       -8.187635    0.747910    3.487480
     52          1           0       -8.395248    0.294291    5.155326
     53          1           0       -3.930251   -0.532907    4.955477
     54          1           0       -3.703159   -2.228885    4.368482
     55          1           0       -5.457605   -2.275937    6.606048
     56          1           0       -4.371368   -0.981280    6.940423
     57          1           0       -5.517434    4.648423    4.191463
     58          1           0       -5.794945    6.030192    3.201657
     59          1           0       -4.112140    5.628809    3.631047
     60          1           0       -4.781666    7.425083    1.771855
     61          1           0       -3.535386    8.060456    0.558775
     62          1           0       -3.136023    6.844660    1.801868
     63          1           0       -4.608650    3.231313   -4.148842
     64          1           0       -6.244308    0.836958   -4.826834
     65          1           0       -6.496771    4.174605   -4.955434
     66          1           0       -7.343630    3.579382   -3.486669
     67          1           0       -7.354917    2.645511   -4.891920
     68          1           0       -4.241219    1.601906   -6.157550
     69          1           0       -4.282521   -0.121977   -5.804893
     70          1           0       -2.663156    2.061569   -4.729502
     71          1           0       -2.106171    0.435503   -5.251391
     72          1           0       -2.903498    0.707073   -3.637319
     73          1           0       -5.040173   -5.000621   -2.760698
     74          1           0       -5.488770   -3.640748   -3.850915
     75          1           0       -6.752747   -4.358124   -2.767728
     76          1           0       -6.560703   -4.109961    2.338249
     77          1           0       -4.523904   -6.735986    5.090511
     78          1           0       -4.136401   -5.054103    5.798214
     79          1           0       -3.178259   -5.881662    4.556103
     80         12           0        5.544656    0.150144    0.075188
     81          6           0        3.759008   -1.461791   -2.587932
     82          6           0        4.631392    3.127883   -1.315360
     83          6           0        7.474932    1.592718    2.139277
     84          6           0        7.232627   -2.857246    0.577243
     85          7           0        4.348269    0.640037   -1.719500
     86          6           0        3.668889   -0.054551   -2.619692
     87          6           0        2.782346    0.805060   -3.560263
     88          6           0        3.579075    2.194057   -3.438637
     89          6           0        4.200793    1.999066   -2.057288
     90          6           0        4.702355    2.334306   -4.452502
     91          6           0        1.309719    0.939714   -3.035622
     92          6           0        0.313764    1.502130   -4.052229
     93          1           0       -1.054512    0.992040   -4.041665
     94          7           0        5.605049    2.042402    0.670388
     95          6           0        5.169647    3.123660   -0.009760
     96          6           0        5.458205    4.282441    0.849395
     97          6           0        6.248476    3.813310    2.019903
     98          6           0        6.496697    2.438057    1.636274
     99          6           0        4.927549    5.657753    0.565958
    100          6           0        6.715799    4.493828    3.270786
    101          8           0        7.591744    3.961151    4.040087
    102          6           0        6.187356    5.843002    3.519696
    103          7           0        7.271502   -0.463761    1.056748
    104          6           0        7.886430    0.340100    1.941965
    105          6           0        8.938920   -0.411300    2.721736
    106          6           0        8.735748   -1.951835    2.343495
    107          6           0        7.609559   -1.808887    1.296277
    108          6           0       10.386805   -0.006471    2.445835
    109          6           0        8.529035   -2.944140    3.520467
    110          6           0        7.204670   -2.673344    4.197302
    111          7           0        5.397327   -1.863408   -0.694203
    112          6           0        6.220219   -2.963594   -0.367799
    113          6           0        5.805522   -4.088607   -1.230826
    114          6           0        4.777409   -3.553999   -2.021807
    115          6           0        4.579921   -2.186320   -1.690213
    116          6           0        6.394781   -5.384202   -1.249054
    117          6           0        3.821485   -3.832734   -3.069289
    118          8           0        3.468017   -4.842735   -3.676502
    119          6           0        3.205356   -2.455985   -3.570606
    120          6           0        1.711160   -2.614005   -3.640873
    121          8           0        1.045524   -2.796218   -2.606307
    122          8           0        1.293687   -2.308568   -4.882965
    123          6           0       -0.183147   -2.439720   -4.999399
    124          1           0        4.593382    4.107590   -1.792450
    125          1           0        8.095817    2.010892    2.934956
    126          1           0        7.643670   -3.855699    0.741010
    127          1           0        2.763417    0.476420   -4.592448
    128          1           0        2.897920    3.041028   -3.434099
    129          1           0        4.855956    1.423650   -5.012184
    130          1           0        5.586851    2.579971   -3.879481
    131          1           0        4.517117    3.193181   -5.103933
    132          1           0        1.271008    1.731733   -2.276710
    133          1           0        0.951628    0.000825   -2.660289
    134          1           0        0.718059    1.496717   -5.071770
    135          1           0        0.154298    2.560631   -3.832775
    136          1           0        4.518784    5.729826   -0.449482
    137          1           0        5.786611    6.337371    0.561803
    138          1           0        4.212430    5.996686    1.318549
    139          1           0        6.447110    6.491938    2.686708
    140          1           0        6.565481    6.128067    4.503377
    141          1           0        5.093272    5.790417    3.548392
    142          1           0        8.791478   -0.288775    3.787734
    143          1           0        9.608548   -2.359598    1.812672
    144          1           0       10.931815    0.311616    3.354602
    145          1           0       10.385373    0.783965    1.707094
    146          1           0       10.996407   -0.770153    1.965869
    147          1           0        9.301284   -2.797422    4.279587
    148          1           0        8.567420   -3.985645    3.219141
    149          1           0        7.440586   -1.853176    4.881963
    150          1           0        6.863995   -3.553699    4.738548
    151          1           0        6.464681   -2.300942    3.479404
    152          1           0        5.580947   -6.095804   -1.291544
    153          1           0        7.021966   -5.548047   -0.375234
    154          1           0        6.981694   -5.318595   -2.169114
    155          1           0        3.640382   -2.238571   -4.546853
    156          1           0       -0.378491   -3.127200   -5.828197
    157          1           0       -0.567747   -1.407380   -5.099958
    158          1           0       -0.708137   -2.931236   -4.188692
 ---------------------------------------------------------------------

 SCF Done:  E(RCAM-B3LYP) =  -4069.79801877     A.U. after   19 cycles

 Excitation energies and oscillator strengths:

 Excited State   1:      Singlet-A      1.6544 eV  749.40 nm  f=0.0097  <S**2>=0.000
     309 -> 315       -0.10884
     310 -> 316        0.12712
     311 -> 313       -0.44543
     312 -> 314        0.52339
 This state for optimization and/or second-order correction.
 Total Energy, E(TD-HF/TD-DFT) =  -4069.73721927
 Copying the excited state density for this state as the 1-particle RhoCI density.

 Excited State   2:      Singlet-A      1.6975 eV  730.38 nm  f=0.7077  <S**2>=0.000
     309 -> 315        0.13636
     310 -> 316        0.11525
     311 -> 313        0.52124
     312 -> 314        0.44373

 Excited State   3:      Singlet-A      2.1819 eV  568.23 nm  f=0.0546  <S**2>=0.000
     309 -> 313        0.27940
     310 -> 314        0.58070
     311 -> 315       -0.11611
     312 -> 316       -0.24152

 Excited State   4:      Singlet-A      2.1930 eV  565.37 nm  f=0.1369  <S**2>=0.000
     309 -> 313        0.57655
     310 -> 314       -0.27680
     311 -> 315       -0.25199
     312 -> 316        0.12058

 Excited State   5:      Singlet-A      2.4516 eV  505.72 nm  f=0.0000  <S**2>=0.000
     312 -> 313        0.70681

 The electronic state is 1-A.
 Alpha  occ. eigenvalues --  -46.87891 -46.87338 -19.26126 -19.26119 -19.18973
 Alpha  occ. eigenvalues --  -19.18836 -19.18811 -19.18490 -19.18133 -19.17741
 Alpha  occ. eigenvalues --  -14.42535 -14.42131 -14.41607 -14.41056 -14.39505
 Alpha  occ. eigenvalues --  -14.39043 -14.38652 -14.38280 -10.38919 -10.38758
 Alpha  occ. eigenvalues --  -10.35608 -10.35174 -10.34349 -10.33915 -10.31731
 Alpha  occ. eigenvalues --  -10.31507 -10.31464 -10.30972 -10.30932 -10.30648
 Alpha  occ. eigenvalues --  -10.30639 -10.30621 -10.30423 -10.30090 -10.30086
 Alpha  occ. eigenvalues --  -10.30029 -10.29869 -10.29731 -10.29595 -10.29369
 Alpha  occ. eigenvalues --  -10.29151 -10.29095 -10.28748 -10.28461 -10.28419
 Alpha  occ. eigenvalues --  -10.28137 -10.28103 -10.28092 -10.27924 -10.27855
 Alpha  occ. eigenvalues --  -10.27819 -10.27791 -10.27707 -10.27688 -10.27651
 Alpha  occ. eigenvalues --  -10.27581 -10.27471 -10.27327 -10.27283 -10.27225
 Alpha  occ. eigenvalues --  -10.27174 -10.27144 -10.27141 -10.27116 -10.26849
 Alpha  occ. eigenvalues --  -10.26734 -10.26711 -10.26644 -10.26588 -10.26261
 Alpha  occ. eigenvalues --  -10.26258 -10.26211 -10.25924 -10.25894 -10.25808
 Alpha  occ. eigenvalues --  -10.25794 -10.25705 -10.25641 -10.25639 -10.25568
 Alpha  occ. eigenvalues --  -10.25193 -10.24926 -10.24871 -10.24570 -10.24515
 Alpha  occ. eigenvalues --  -10.24392  -3.16632  -3.16088  -1.91513  -1.91101
 Alpha  occ. eigenvalues --   -1.90970  -1.90942  -1.90558  -1.90396  -1.16474
 Alpha  occ. eigenvalues --   -1.16382  -1.08572  -1.08345  -1.07379  -1.06747
 Alpha  occ. eigenvalues --   -1.06614  -1.06467  -1.04659  -1.04134  -1.03900
 Alpha  occ. eigenvalues --   -1.03339  -1.03336  -1.02737  -1.02515  -1.01800
 Alpha  occ. eigenvalues --   -0.92021  -0.91665  -0.89927  -0.89220  -0.89209
 Alpha  occ. eigenvalues --   -0.88628  -0.88592  -0.87950  -0.87927  -0.87767
 Alpha  occ. eigenvalues --   -0.87481  -0.87390  -0.87269  -0.86860  -0.85053
 Alpha  occ. eigenvalues --   -0.84540  -0.84393  -0.83632  -0.83181  -0.82735
 Alpha  occ. eigenvalues --   -0.82710  -0.82246  -0.81604  -0.81311  -0.80665
 Alpha  occ. eigenvalues --   -0.80129  -0.78904  -0.78351  -0.77601  -0.77018
 Alpha  occ. eigenvalues --   -0.76809  -0.76427  -0.75964  -0.75488  -0.75175
 Alpha  occ. eigenvalues --   -0.74547  -0.72939  -0.72382  -0.71787  -0.71267
 Alpha  occ. eigenvalues --   -0.70790  -0.69510  -0.68956  -0.68376  -0.67739
 Alpha  occ. eigenvalues --   -0.67294  -0.67254  -0.66607  -0.65427  -0.65069
 Alpha  occ. eigenvalues --   -0.64825  -0.64749  -0.64523  -0.64469  -0.64252
 Alpha  occ. eigenvalues --   -0.63928  -0.62308  -0.62025  -0.60603  -0.60073
 Alpha  occ. eigenvalues --   -0.59848  -0.59350  -0.59113  -0.58671  -0.58614
 Alpha  occ. eigenvalues --   -0.58123  -0.57632  -0.57411  -0.57251  -0.56962
 Alpha  occ. eigenvalues --   -0.56408  -0.55994  -0.55934  -0.55877  -0.55595
 Alpha  occ. eigenvalues --   -0.55538  -0.55178  -0.54988  -0.54703  -0.54231
 Alpha  occ. eigenvalues --   -0.53920  -0.53668  -0.53385  -0.53322  -0.53176
 Alpha  occ. eigenvalues --   -0.52950  -0.52907  -0.52821  -0.52742  -0.52573
 Alpha  occ. eigenvalues --   -0.52316  -0.52158  -0.51963  -0.51644  -0.51591
 Alpha  occ. eigenvalues --   -0.51350  -0.51207  -0.50951  -0.50754  -0.50448
 Alpha  occ. eigenvalues --   -0.50237  -0.50035  -0.49682  -0.49612  -0.49562
 Alpha  occ. eigenvalues --   -0.49298  -0.49170  -0.49129  -0.48900  -0.48758
 Alpha  occ. eigenvalues --   -0.48651  -0.48574  -0.48539  -0.48282  -0.48124
 Alpha  occ. eigenvalues --   -0.48082  -0.47938  -0.47440  -0.47319  -0.47196
 Alpha  occ. eigenvalues --   -0.46859  -0.46620  -0.46569  -0.46395  -0.46275
 Alpha  occ. eigenvalues --   -0.45997  -0.45988  -0.45862  -0.45807  -0.45608
 Alpha  occ. eigenvalues --   -0.45448  -0.44980  -0.44919  -0.44608  -0.44392
 Alpha  occ. eigenvalues --   -0.44276  -0.44139  -0.44070  -0.44048  -0.43963
 Alpha  occ. eigenvalues --   -0.43804  -0.43628  -0.43549  -0.43488  -0.43370
 Alpha  occ. eigenvalues --   -0.43282  -0.43046  -0.42943  -0.42670  -0.42596
 Alpha  occ. eigenvalues --   -0.42584  -0.42336  -0.42260  -0.41806  -0.41613
 Alpha  occ. eigenvalues --   -0.41595  -0.41360  -0.41328  -0.41152  -0.40977
 Alpha  occ. eigenvalues --   -0.40865  -0.40803  -0.40652  -0.40609  -0.40415
 Alpha  occ. eigenvalues --   -0.40229  -0.40197  -0.39566  -0.39425  -0.39125
 Alpha  occ. eigenvalues --   -0.38756  -0.37970  -0.37787  -0.37578  -0.37291
 Alpha  occ. eigenvalues --   -0.37059  -0.36933  -0.36877  -0.36510  -0.36267
 Alpha  occ. eigenvalues --   -0.35958  -0.34706  -0.34366  -0.33895  -0.33648
 Alpha  occ. eigenvalues --   -0.33512  -0.33234  -0.32858  -0.31503  -0.31117
 Alpha  occ. eigenvalues --   -0.31047  -0.30648  -0.29987  -0.29642  -0.29546
 Alpha  occ. eigenvalues --   -0.29359  -0.29041  -0.28906  -0.24180  -0.23717
 Alpha  occ. eigenvalues --   -0.21239  -0.20796
 Alpha virt. eigenvalues --   -0.08870  -0.08487  -0.01888  -0.01375  -0.00149
 Alpha virt. eigenvalues --    0.00266   0.02133   0.02514   0.03010   0.03583
 Alpha virt. eigenvalues --    0.04631   0.05231   0.05275   0.05486   0.06183

 Mulliken charges:
               1
     1  Mg   0.841212
     2  C   -0.001099
     3  C   -0.093258
     4  C   -0.046848
     5  C   -0.066682
     6  N   -0.256428
     7  C   -0.051844
     8  C   -0.014184
     9  C   -0.087111
    10  C    0.046347
    11  C    0.104776
    12  C    0.053373
    13  C   -0.072087
    14  H    0.037388
    15  N   -0.433017
    16  C    0.168243
    17  C   -0.176922
    18  C   -0.004522
    19  C    0.148792
    20  C    0.110100
    21  C    0.011573
    22  O   -0.250933
    23  C    0.062702
    24  N   -0.340485
    25  C    0.040326
    26  C   -0.029773
    27  C   -0.028435
    28  C    0.072197
    29  C    0.076532
    30  C    0.108723
    31  C   -0.103324
    32  N   -0.311166
    33  C    0.081835
    34  C   -0.168232
    35  C    0.010248
    36  C    0.085410
    37  C    0.126481
    38  C    0.048672
    39  O   -0.186253
    40  C   -0.006377
    41  C    0.212635
    42  O   -0.253430
    43  O   -0.305534
    44  C    0.157331
    45  H   -0.017268
    46  H   -0.017892
    47  H   -0.043253
    48  H    0.001372
    49  H   -0.003709
    50  H    0.025678
    51  H    0.016056
    52  H    0.016868
    53  H    0.011245
    54  H    0.045889
    55  H    0.017622
    56  H    0.017709
    57  H    0.006368
    58  H    0.026759
    59  H    0.039288
    60  H    0.037952
    61  H    0.034743
    62  H    0.031032
    63  H    0.015176
    64  H    0.011736
    65  H    0.023060
    66  H    0.013920
    67  H    0.005040
    68  H    0.005283
    69  H    0.001856
    70  H    0.026290
    71  H    0.045347
    72  H    0.055315
    73  H    0.050608
    74  H    0.006508
    75  H    0.046425
    76  H    0.035110
    77  H    0.042893
    78  H    0.045870
    79  H    0.055328
    80  Mg   0.837728
    81  C   -0.016446
    82  C   -0.087637
    83  C   -0.046145
    84  C   -0.065511
    85  N   -0.255191
    86  C   -0.047860
    87  C   -0.013107
    88  C   -0.090213
    89  C    0.046427
    90  C    0.114748
    91  C    0.070613
    92  C   -0.105894
    93  H    0.049987
    94  N   -0.423241
    95  C    0.162501
    96  C   -0.175248
    97  C   -0.008674
    98  C    0.151967
    99  C    0.099584
   100  C    0.014833
   101  O   -0.254109
   102  C    0.061648
   103  N   -0.350182
   104  C    0.037302
   105  C   -0.019560
   106  C   -0.034771
   107  C    0.089132
   108  C    0.073961
   109  C    0.034898
   110  C   -0.007569
   111  N   -0.324376
   112  C    0.079101
   113  C   -0.162728
   114  C    0.002419
   115  C    0.097102
   116  C    0.131262
   117  C    0.043563
   118  O   -0.187781
   119  C    0.000437
   120  C    0.211965
   121  O   -0.247503
   122  O   -0.307319
   123  C    0.155133
   124  H   -0.019984
   125  H   -0.016558
   126  H   -0.040985
   127  H   -0.003670
   128  H   -0.002855
   129  H    0.021396
   130  H    0.013076
   131  H    0.015361
   132  H    0.008852
   133  H    0.030371
   134  H    0.007819
   135  H    0.010357
   136  H    0.009336
   137  H    0.025301
   138  H    0.038190
   139  H    0.038143
   140  H    0.035237
   141  H    0.032825
   142  H    0.013717
   143  H    0.011918
   144  H    0.024345
   145  H    0.011496
   146  H    0.005162
   147  H    0.005461
   148  H    0.003537
   149  H    0.010213
   150  H    0.017638
   151  H    0.031027
   152  H    0.046851
   153  H    0.008139
   154  H    0.046267
   155  H    0.034202
   156  H    0.042565
   157  H    0.044104
   158  H    0.056722
 Sum of Mulliken charges =  -0.00000

 Dipole moment (field-independent basis, Debye):
    X=             -2.6065    Y=              6.7125    Z=              1.6400  Tot=              7.3852
 Quadrupole moment (field-independent basis, Debye-Ang):
   XX=           -485.6580   YY=           -536.4682   ZZ=           -468.8877
   XY=            -19.8671   XZ=            -16.6640   YZ=            -13.8318

 Normal termination of Gaussian 16 at Fri Sep 10 16:00:30 2021.
