 Gaussian 16, Revision A.03,
 Gaussian 16:  ES64L-G16RevA.03 25-Dec-2016

 -----------------------------------
 #p cam-b3lyp/Def2SVP td=(nstates=5)
 -----------------------------------

 --------------------------------
 TDDFT excited states in gaussian
 --------------------------------
 Symbolic Z-matrix:
 Charge =  0 Multiplicity = 1

                         Standard orientation:
 ---------------------------------------------------------------------
 Center     Atomic      Atomic             Coordinates (Angstroms)
 Number     Number       Type             X           Y           Z
 ---------------------------------------------------------------------
      1         12           0       -7.628418    0.684297   -0.152315
      2          6           0       -7.961465   -2.408292    1.618896
      3          6           0       -8.523504    2.263751    2.736839
      4          6           0       -7.783630    3.386150   -1.805349
      5          6           0       -7.876488   -1.150271   -3.105023
      6          7           0       -8.149833   -0.083863    1.857337
      7          6           0       -8.181413   -1.286948    2.421926
      8          6           0       -8.395792   -1.240122    3.964399
      9          6           0       -9.110239    0.180813    4.076226
     10          6           0       -8.534040    0.840686    2.835869
     11          6           0      -10.627566    0.112536    3.936372
     12          6           0       -7.043663   -1.265197    4.753606
     13          6           0       -7.167559   -1.550391    6.253162
     14          1           0       -6.128797   -2.333397    6.905253
     15          7           0       -7.607269    2.562950    0.458476
     16          6           0       -7.990904    3.023952    1.673213
     17          6           0       -7.787592    4.488186    1.636280
     18          6           0       -7.434346    4.863419    0.238957
     19          6           0       -7.622342    3.606550   -0.439510
     20          6           0       -7.884033    5.363119    2.848279
     21          6           0       -7.006913    6.152937   -0.387601
     22          8           0       -6.974061    6.315166   -1.655346
     23          6           0       -6.708569    7.264022    0.534096
     24          7           0       -8.024320    1.100406   -2.159240
     25          6           0       -7.971765    2.352057   -2.627847
     26          6           0       -8.008718    2.375746   -4.127185
     27          6           0       -7.852211    0.857763   -4.597277
     28          6           0       -7.833503    0.180239   -3.204840
     29          6           0       -9.273266    2.976949   -4.756059
     30          6           0       -6.701881    0.542927   -5.586236
     31          6           0       -5.368018    0.737082   -4.900516
     32          7           0       -7.697507   -1.417527   -0.689540
     33          6           0       -7.824710   -1.954499   -1.978786
     34          6           0       -7.935068   -3.417145   -1.828600
     35          6           0       -7.880700   -3.629455   -0.452441
     36          6           0       -7.771385   -2.376706    0.216113
     37          6           0       -8.123874   -4.351465   -2.884929
     38          6           0       -7.914314   -4.621426    0.609972
     39          8           0       -7.901711   -5.852656    0.647479
     40          6           0       -8.090606   -3.862451    1.998750
     41          6           0       -7.081188   -4.430782    2.958637
     42          8           0       -5.858717   -4.254600    2.780057
     43          8           0       -7.713380   -4.883096    4.052386
     44          6           0       -6.766162   -5.433585    5.058315
     45          1           0       -9.019034    2.850527    3.512781
     46          1           0       -7.731316    4.286252   -2.421399
     47          1           0       -7.871596   -1.794045   -3.986490
     48          1           0       -9.051254   -2.018227    4.355993
     49          1           0       -8.802504    0.721752    4.970880
     50          1           0      -10.957001   -0.887159    3.653524
     51          1           0      -10.880664    0.831519    3.156950
     52          1           0      -11.116589    0.469178    4.843257
     53          1           0       -6.629986   -0.257423    4.789975
     54          1           0       -6.349548   -1.978102    4.307177
     55          1           0       -8.154321   -1.940293    6.504531
     56          1           0       -7.106836   -0.602140    6.787328
     57          1           0       -8.319776    4.830798    3.692854
     58          1           0       -8.606325    6.146318    2.618932
     59          1           0       -6.925096    5.811932    3.107777
     60          1           0       -7.592798    7.481658    1.133531
     61          1           0       -6.333681    8.077135   -0.086513
     62          1           0       -5.935165    6.944786    1.233297
     63          1           0       -7.183013    2.961216   -4.529506
     64          1           0       -8.745813    0.492238   -5.103774
     65          1           0       -9.073307    3.809773   -5.430688
     66          1           0       -9.940150    3.278891   -3.948972
     67          1           0       -9.896653    2.266072   -5.297779
     68          1           0       -6.730584    1.229018   -6.432050
     69          1           0       -6.739740   -0.472329   -5.981296
     70          1           0       -5.197591    1.808610   -4.998559
     71          1           0       -4.590602    0.169596   -5.413152
     72          1           0       -5.431646    0.513366   -3.835440
     73          1           0       -7.453979   -5.185845   -2.677517
     74          1           0       -7.908656   -3.902160   -3.854160
     75          1           0       -9.180499   -4.587359   -2.759409
     76          1           0       -9.113927   -4.042474    2.326664
     77          1           0       -7.081176   -6.455365    5.270366
     78          1           0       -6.749853   -4.726640    5.887994
     79          1           0       -5.743768   -5.600033    4.717222
     80         12           0        8.226343    0.224173    0.209776
     81          6           0        6.192486   -1.669554   -2.060979
     82          6           0        6.856718    3.038623   -1.145818
     83          6           0       10.323796    1.926599    1.874072
     84          6           0       10.222657   -2.610086    0.566718
     85          7           0        6.727854    0.517425   -1.390478
     86          6           0        5.978582   -0.277604   -2.139388
     87          6           0        4.886314    0.456058   -2.962943
     88          6           0        5.570583    1.907274   -3.030933
     89          6           0        6.414007    1.839625   -1.759421
     90          6           0        6.506294    2.076497   -4.216320
     91          6           0        3.507189    0.505694   -2.216238
     92          6           0        2.320799    0.930744   -3.084331
     93          1           0        1.019511    0.317571   -2.833095
     94          7           0        8.216642    2.146091    0.704442
     95          6           0        7.589922    3.150086    0.055983
     96          6           0        7.908517    4.374546    0.806559
     97          6           0        8.908454    4.035125    1.855194
     98          6           0        9.210582    2.663730    1.497305
     99          6           0        7.224651    5.686333    0.551697
    100          6           0        9.504804    4.819572    2.984449
    101          8           0       10.532046    4.400826    3.626508
    102          6           0        8.908167    6.135672    3.255375
    103          7           0       10.130943   -0.197469    0.928825
    104          6           0       10.805125    0.700473    1.668489
    105          6           0       12.026448    0.078276    2.302234
    106          6           0       11.899324   -1.492312    2.028976
    107          6           0       10.615868   -1.496623    1.169828
    108          6           0       13.373813    0.577812    1.781225
    109          6           0       11.963823   -2.429387    3.266069
    110          6           0       10.742655   -2.224128    4.133243
    111          7           0        8.133750   -1.835076   -0.437491
    112          6           0        9.088382   -2.847927   -0.198945
    113          6           0        8.642163   -4.048770   -0.934676
    114          6           0        7.461617   -3.641115   -1.573898
    115          6           0        7.201957   -2.276272   -1.275096
    116          6           0        9.329964   -5.293750   -0.990151
    117          6           0        6.381733   -4.051982   -2.442081
    118          8           0        6.025734   -5.119103   -2.940322
    119          6           0        5.579711   -2.757727   -2.898225
    120          6           0        4.111825   -3.034794   -2.721988
    121          8           0        3.633292   -3.209152   -1.587431
    122          8           0        3.481634   -2.833483   -3.893609
    123          6           0        2.021335   -3.085074   -3.766845
    124          1           0        6.661349    3.983833   -1.653049
    125          1           0       11.022878    2.436027    2.541330
    126          1           0       10.737989   -3.562786    0.706207
    127          1           0        4.735179    0.068998   -3.963506
    128          1           0        4.828558    2.697803   -2.954669
    129          1           0        6.648211    1.150240   -4.753023
    130          1           0        7.444899    2.422023   -3.803201
    131          1           0        6.149234    2.880147   -4.866701
    132          1           0        3.519461    1.334045   -1.496227
    133          1           0        3.293426   -0.435349   -1.747872
    134          1           0        2.560519    0.898924   -4.154130
    135          1           0        2.107542    1.984430   -2.888679
    136          1           0        6.658228    5.668856   -0.387594
    137          1           0        8.011326    6.429141    0.380711
    138          1           0        6.609001    6.010906    1.393311
    139          1           0        8.978728    6.754552    2.364052
    140          1           0        9.408957    6.504447    4.152636
    141          1           0        7.840413    6.000162    3.460705
    142          1           0       12.036722    0.249201    3.371718
    143          1           0       12.710527   -1.860626    1.383897
    144          1           0       14.024364    0.988146    2.576507
    145          1           0       13.189901    1.322637    1.018368
    146          1           0       13.964333   -0.162297    1.243895
    147          1           0       12.829375   -2.180494    3.884970
    148          1           0       12.043733   -3.480176    3.008281
    149          1           0       11.011240   -1.350675    4.734935
    150          1           0       10.566841   -3.096160    4.759893
    151          1           0        9.870893   -1.951461    3.527167
    152          1           0        8.583273   -6.067543   -0.871001
    153          1           0       10.097142   -5.358735   -0.221407
    154          1           0        9.758794   -5.235085   -1.994110
    155          1           0        5.837361   -2.562907   -3.939979
    156          1           0        1.758912   -3.831462   -4.522960
    157          1           0        1.538973   -2.092997   -3.849686
    158          1           0        1.672829   -3.569070   -2.861998
 ---------------------------------------------------------------------

 SCF Done:  E(RCAM-B3LYP) =  -4069.81159551     A.U. after   19 cycles

 Excitation energies and oscillator strengths:

 Excited State   1:      Singlet-A      1.6694 eV  742.70 nm  f=0.0160  <S**2>=0.000
     309 -> 315       -0.10553
     310 -> 316       -0.13594
     311 -> 313       -0.41963
     312 -> 314        0.54319
 This state for optimization and/or second-order correction.
 Total Energy, E(TD-HF/TD-DFT) =  -4069.75024687
 Copying the excited state density for this state as the 1-particle RhoCI density.

 Excited State   2:      Singlet-A      1.6857 eV  735.50 nm  f=0.7386  <S**2>=0.000
     309 -> 315        0.13985
     310 -> 316       -0.10757
     311 -> 313        0.54230
     312 -> 314        0.41904

 Excited State   3:      Singlet-A      2.1853 eV  567.35 nm  f=0.0853  <S**2>=0.000
     309 -> 313        0.11228
     310 -> 314        0.63283
     312 -> 316        0.26831

 Excited State   4:      Singlet-A      2.1922 eV  565.57 nm  f=0.1136  <S**2>=0.000
     309 -> 313        0.63083
     310 -> 314       -0.11147
     311 -> 315       -0.27385

 Excited State   5:      Singlet-A      2.7688 eV  447.78 nm  f=0.0000  <S**2>=0.000
     312 -> 313        0.70701

 The electronic state is 1-A.
 Alpha  occ. eigenvalues --  -46.87827 -46.87578 -19.26221 -19.26174 -19.18988
 Alpha  occ. eigenvalues --  -19.18961 -19.18875 -19.18654 -19.18165 -19.17946
 Alpha  occ. eigenvalues --  -14.42474 -14.42412 -14.41485 -14.41279 -14.39435
 Alpha  occ. eigenvalues --  -14.39271 -14.38613 -14.38515 -10.39027 -10.38925
 Alpha  occ. eigenvalues --  -10.35510 -10.35333 -10.34383 -10.34121 -10.31594
 Alpha  occ. eigenvalues --  -10.31548 -10.31420 -10.31217 -10.30935 -10.30928
 Alpha  occ. eigenvalues --  -10.30592 -10.30540 -10.30316 -10.30273 -10.30254
 Alpha  occ. eigenvalues --  -10.30071 -10.29958 -10.29815 -10.29662 -10.29362
 Alpha  occ. eigenvalues --  -10.29320 -10.29291 -10.28741 -10.28610 -10.28500
 Alpha  occ. eigenvalues --  -10.28494 -10.28388 -10.28319 -10.28117 -10.28043
 Alpha  occ. eigenvalues --  -10.27918 -10.27817 -10.27752 -10.27619 -10.27586
 Alpha  occ. eigenvalues --  -10.27568 -10.27520 -10.27514 -10.27456 -10.27423
 Alpha  occ. eigenvalues --  -10.27404 -10.27394 -10.27388 -10.27314 -10.27144
 Alpha  occ. eigenvalues --  -10.26933 -10.26676 -10.26557 -10.26487 -10.26374
 Alpha  occ. eigenvalues --  -10.26281 -10.26235 -10.26080 -10.26058 -10.25940
 Alpha  occ. eigenvalues --  -10.25858 -10.25857 -10.25767 -10.25494 -10.25345
 Alpha  occ. eigenvalues --  -10.24853 -10.24824 -10.24819 -10.24786 -10.24671
 Alpha  occ. eigenvalues --  -10.24611  -3.16570  -3.16327  -1.91452  -1.91210
 Alpha  occ. eigenvalues --   -1.91039  -1.90881  -1.90798  -1.90635  -1.16572
 Alpha  occ. eigenvalues --   -1.16469  -1.08617  -1.08547  -1.07279  -1.06908
 Alpha  occ. eigenvalues --   -1.06775  -1.06585  -1.04603  -1.04408  -1.03794
 Alpha  occ. eigenvalues --   -1.03581  -1.03265  -1.02959  -1.02442  -1.02029
 Alpha  occ. eigenvalues --   -0.91985  -0.91892  -0.89573  -0.89418  -0.89188
 Alpha  occ. eigenvalues --   -0.89050  -0.88340  -0.88149  -0.87891  -0.87708
 Alpha  occ. eigenvalues --   -0.87695  -0.87596  -0.87315  -0.87051  -0.84989
 Alpha  occ. eigenvalues --   -0.84899  -0.83995  -0.83802  -0.83025  -0.82870
 Alpha  occ. eigenvalues --   -0.82662  -0.82558  -0.81574  -0.81472  -0.80608
 Alpha  occ. eigenvalues --   -0.80337  -0.78830  -0.78559  -0.77249  -0.77056
 Alpha  occ. eigenvalues --   -0.76938  -0.76792  -0.75923  -0.75732  -0.74938
 Alpha  occ. eigenvalues --   -0.74723  -0.72803  -0.72616  -0.71695  -0.71494
 Alpha  occ. eigenvalues --   -0.69981  -0.69690  -0.68886  -0.68730  -0.67666
 Alpha  occ. eigenvalues --   -0.67513  -0.67226  -0.67098  -0.65291  -0.65167
 Alpha  occ. eigenvalues --   -0.64871  -0.64679  -0.64636  -0.64547  -0.64315
 Alpha  occ. eigenvalues --   -0.64125  -0.62280  -0.62148  -0.60486  -0.60268
 Alpha  occ. eigenvalues --   -0.59813  -0.59701  -0.59012  -0.58905  -0.58525
 Alpha  occ. eigenvalues --   -0.58333  -0.57577  -0.57434  -0.57336  -0.57153
 Alpha  occ. eigenvalues --   -0.56333  -0.56118  -0.55950  -0.55754  -0.55550
 Alpha  occ. eigenvalues --   -0.55369  -0.55358  -0.55154  -0.54534  -0.54381
 Alpha  occ. eigenvalues --   -0.53895  -0.53808  -0.53333  -0.53237  -0.53145
 Alpha  occ. eigenvalues --   -0.53044  -0.52922  -0.52791  -0.52788  -0.52594
 Alpha  occ. eigenvalues --   -0.52510  -0.52332  -0.51931  -0.51796  -0.51622
 Alpha  occ. eigenvalues --   -0.51557  -0.51213  -0.51103  -0.50626  -0.50414
 Alpha  occ. eigenvalues --   -0.50091  -0.49955  -0.49899  -0.49798  -0.49532
 Alpha  occ. eigenvalues --   -0.49404  -0.49229  -0.49106  -0.49098  -0.49006
 Alpha  occ. eigenvalues --   -0.48596  -0.48508  -0.48466  -0.48451  -0.48300
 Alpha  occ. eigenvalues --   -0.48258  -0.47719  -0.47504  -0.47324  -0.47036
 Alpha  occ. eigenvalues --   -0.46828  -0.46622  -0.46556  -0.46453  -0.46390
 Alpha  occ. eigenvalues --   -0.46186  -0.46181  -0.45991  -0.45818  -0.45711
 Alpha  occ. eigenvalues --   -0.45249  -0.45134  -0.44583  -0.44546  -0.44413
 Alpha  occ. eigenvalues --   -0.44385  -0.44190  -0.44097  -0.44037  -0.44030
 Alpha  occ. eigenvalues --   -0.43995  -0.43849  -0.43489  -0.43430  -0.43409
 Alpha  occ. eigenvalues --   -0.43287  -0.43048  -0.42826  -0.42766  -0.42744
 Alpha  occ. eigenvalues --   -0.42633  -0.42483  -0.42049  -0.41877  -0.41722
 Alpha  occ. eigenvalues --   -0.41575  -0.41541  -0.41360  -0.41162  -0.40903
 Alpha  occ. eigenvalues --   -0.40896  -0.40869  -0.40644  -0.40613  -0.40609
 Alpha  occ. eigenvalues --   -0.40414  -0.40224  -0.40115  -0.39523  -0.39359
 Alpha  occ. eigenvalues --   -0.38516  -0.38274  -0.37744  -0.37538  -0.37364
 Alpha  occ. eigenvalues --   -0.37267  -0.37186  -0.37098  -0.36696  -0.36627
 Alpha  occ. eigenvalues --   -0.36194  -0.36113  -0.34312  -0.34167  -0.33729
 Alpha  occ. eigenvalues --   -0.33705  -0.33208  -0.33088  -0.31404  -0.31212
 Alpha  occ. eigenvalues --   -0.31061  -0.30887  -0.30022  -0.29847  -0.29483
 Alpha  occ. eigenvalues --   -0.29344  -0.29250  -0.29126  -0.24107  -0.23951
 Alpha  occ. eigenvalues --   -0.21158  -0.21035
 Alpha virt. eigenvalues --   -0.08804  -0.08710  -0.01785  -0.01605  -0.00092
 Alpha virt. eigenvalues --    0.00048   0.02182   0.02298   0.03076   0.03316
 Alpha virt. eigenvalues --    0.04704   0.04827   0.05143   0.05321   0.06195

 Mulliken charges:
               1
     1  Mg   0.838516
     2  C   -0.002627
     3  C   -0.093919
     4  C   -0.046248
     5  C   -0.064269
     6  N   -0.256766
     7  C   -0.052280
     8  C   -0.014011
     9  C   -0.086996
    10  C    0.046313
    11  C    0.104799
    12  C    0.053412
    13  C   -0.072047
    14  H    0.036988
    15  N   -0.433103
    16  C    0.168277
    17  C   -0.177157
    18  C   -0.004279
    19  C    0.148626
    20  C    0.110151
    21  C    0.011902
    22  O   -0.250122
    23  C    0.062630
    24  N   -0.341095
    25  C    0.041187
    26  C   -0.028112
    27  C   -0.023931
    28  C    0.074721
    29  C    0.076170
    30  C    0.035232
    31  C   -0.004407
    32  N   -0.310540
    33  C    0.080412
    34  C   -0.169758
    35  C    0.008658
    36  C    0.083049
    37  C    0.127249
    38  C    0.046453
    39  O   -0.187671
    40  C   -0.005439
    41  C    0.212950
    42  O   -0.256426
    43  O   -0.305001
    44  C    0.157388
    45  H   -0.017521
    46  H   -0.017211
    47  H   -0.041606
    48  H    0.001147
    49  H   -0.003917
    50  H    0.025563
    51  H    0.016298
    52  H    0.016744
    53  H    0.011121
    54  H    0.044622
    55  H    0.017807
    56  H    0.017832
    57  H    0.006069
    58  H    0.026760
    59  H    0.039287
    60  H    0.037583
    61  H    0.035126
    62  H    0.031203
    63  H    0.015976
    64  H    0.009657
    65  H    0.022969
    66  H    0.012745
    67  H    0.004852
    68  H    0.006240
    69  H    0.004875
    70  H    0.008363
    71  H    0.017100
    72  H    0.029133
    73  H    0.047995
    74  H    0.008851
    75  H    0.046209
    76  H    0.035246
    77  H    0.043129
    78  H    0.046329
    79  H    0.054544
    80  Mg   0.837908
    81  C   -0.016519
    82  C   -0.087745
    83  C   -0.045666
    84  C   -0.065048
    85  N   -0.254541
    86  C   -0.049723
    87  C   -0.015051
    88  C   -0.090505
    89  C    0.045755
    90  C    0.114416
    91  C    0.062519
    92  C   -0.078339
    93  H    0.036360
    94  N   -0.423434
    95  C    0.162811
    96  C   -0.174756
    97  C   -0.008039
    98  C    0.152072
    99  C    0.099420
   100  C    0.015421
   101  O   -0.253432
   102  C    0.061279
   103  N   -0.350120
   104  C    0.037476
   105  C   -0.019788
   106  C   -0.034805
   107  C    0.088999
   108  C    0.073748
   109  C    0.034780
   110  C   -0.007660
   111  N   -0.324187
   112  C    0.078605
   113  C   -0.163070
   114  C    0.002398
   115  C    0.096335
   116  C    0.131443
   117  C    0.042620
   118  O   -0.187350
   119  C    0.000853
   120  C    0.211335
   121  O   -0.250143
   122  O   -0.306103
   123  C    0.151533
   124  H   -0.019775
   125  H   -0.015835
   126  H   -0.040546
   127  H   -0.000665
   128  H   -0.004224
   129  H    0.022375
   130  H    0.014214
   131  H    0.016171
   132  H    0.013778
   133  H    0.038375
   134  H    0.020301
   135  H    0.019523
   136  H    0.008806
   137  H    0.025903
   138  H    0.039449
   139  H    0.038182
   140  H    0.036071
   141  H    0.033708
   142  H    0.014244
   143  H    0.012301
   144  H    0.024924
   145  H    0.011585
   146  H    0.005540
   147  H    0.006059
   148  H    0.003655
   149  H    0.010761
   150  H    0.017914
   151  H    0.030313
   152  H    0.046347
   153  H    0.008396
   154  H    0.046821
   155  H    0.034815
   156  H    0.043788
   157  H    0.049238
   158  H    0.055423
 Sum of Mulliken charges =  -0.00000

 Dipole moment (field-independent basis, Debye):
    X=             -2.2294    Y=              7.2670    Z=              1.1588  Tot=              7.6891
 Quadrupole moment (field-independent basis, Debye-Ang):
   XX=           -473.4678   YY=           -541.3941   ZZ=           -471.8166
   XY=            -19.8504   XZ=            -27.9347   YZ=             -4.8334

 Normal termination of Gaussian 16 at Sun Sep 12 00:47:55 2021.
