 Gaussian 16, Revision A.03,
 Gaussian 16:  ES64L-G16RevA.03 25-Dec-2016

 -----------------------------------
 #p cam-b3lyp/Def2SVP td=(nstates=5)
 -----------------------------------

 --------------------------------
 TDDFT excited states in gaussian
 --------------------------------
 Symbolic Z-matrix:
 Charge =  0 Multiplicity = 1

                         Standard orientation:
 ---------------------------------------------------------------------
 Center     Atomic      Atomic             Coordinates (Angstroms)
 Number     Number       Type             X           Y           Z
 ---------------------------------------------------------------------
      1         12           0      -15.789653    0.640690   -0.447119
      2          6           0      -16.015191   -2.631903    0.985181
      3          6           0      -16.742372    1.872887    2.588846
      4          6           0      -16.038419    3.495416   -1.805528
      5          6           0      -15.970341   -0.878208   -3.578566
      6          7           0      -16.285493   -0.353829    1.467488
      7          6           0      -16.275199   -1.610331    1.901386
      8          6           0      -16.492471   -1.734727    3.439142
      9          6           0      -17.256603   -0.359457    3.697469
     10          6           0      -16.702887    0.447845    2.536614
     11          6           0      -18.770460   -0.465467    3.544168
     12          6           0      -15.141003   -1.796063    4.227495
     13          6           0      -15.256120   -2.242699    5.687844
     14          1           0      -14.191016   -3.053646    6.258166
     15          7           0      -15.835205    2.443631    0.359217
     16          6           0      -16.235918    2.759644    1.614148
     17          6           0      -16.084252    4.225749    1.733374
     18          6           0      -15.743189    4.759037    0.385274
     19          6           0      -15.886211    3.575344   -0.423301
     20          6           0      -16.212519    4.963424    3.030730
     21          6           0      -15.360862    6.121821   -0.099266
     22          8           0      -15.332611    6.418518   -1.342547
     23          6           0      -15.102646    7.138719    0.936245
     24          7           0      -16.198168    1.253038   -2.400521
     25          6           0      -16.189295    2.548365   -2.733739
     26          6           0      -16.225720    2.729490   -4.222298
     27          6           0      -16.015445    1.276261   -4.849724
     28          6           0      -15.974138    0.456073   -3.536767
     29          6           0      -17.510090    3.349425   -4.789824
     30          6           0      -14.853862    1.108348   -5.861133
     31          6           0      -13.528274    1.275201   -5.152560
     32          7           0      -15.784218   -1.393498   -1.204150
     33          6           0      -15.891285   -1.794947   -2.543572
     34          6           0      -15.950212   -3.268229   -2.549586
     35          6           0      -15.889631   -3.623137   -1.203400
     36          6           0      -15.825088   -2.445235   -0.405483
     37          6           0      -16.105063   -4.091376   -3.699752
     38          6           0      -15.889248   -4.722665   -0.252141
     39          8           0      -15.833337   -5.949743   -0.345132
     40          6           0      -16.093392   -4.121743    1.208354
     41          6           0      -15.065448   -4.752995    2.107331
     42          8           0      -13.849779   -4.516306    1.954053
     43          8           0      -15.682300   -5.340455    3.144117
     44          6           0      -14.717186   -5.961026    4.090479
     45          1           0      -17.258946    2.356477    3.420250
     46          1           0      -16.017278    4.457004   -2.322577
     47          1           0      -15.941999   -1.424389   -4.523201
     48          1           0      -17.120480   -2.572355    3.743130
     49          1           0      -16.968903    0.094048    4.645775
     50          1           0      -19.064241   -1.440451    3.155557
     51          1           0      -19.048019    0.322780    2.844081
     52          1           0      -19.272546   -0.224222    4.481444
     53          1           0      -14.763097   -0.783990    4.372259
     54          1           0      -14.421820   -2.432976    3.711313
     55          1           0      -16.228766   -2.691256    5.891963
     56          1           0      -15.229297   -1.354850    6.319670
     57          1           0      -16.630005    4.329719    3.812182
     58          1           0      -16.961734    5.740818    2.882252
     59          1           0      -15.270211    5.415420    3.340709
     60          1           0      -15.994524    7.260606    1.551262
     61          1           0      -14.756064    8.025608    0.406943
     62          1           0      -14.319106    6.774391    1.601285
     63          1           0      -15.420781    3.382766   -4.556559
     64          1           0      -16.895172    0.935487   -5.396193
     65          1           0      -17.338974    4.255517   -5.371564
     66          1           0      -18.187911    3.540676   -3.958396
     67          1           0      -18.107577    2.678623   -5.406630
     68          1           0      -14.905947    1.878778   -6.629684
     69          1           0      -14.855599    0.139970   -6.361625
     70          1           0      -13.395591    2.356380   -5.135824
     71          1           0      -12.730903    0.792723   -5.718797
     72          1           0      -13.584936    0.937802   -4.117457
     73          1           0      -15.406391   -4.919135   -3.578747
     74          1           0      -15.904931   -3.534659   -4.614966
     75          1           0      -17.152838   -4.375991   -3.604792
     76          1           0      -17.110033   -4.371119    1.510637
     77          1           0      -14.996219   -7.009895    4.191709
     78          1           0      -14.726517   -5.345840    4.990404
     79          1           0      -13.689261   -6.054594    3.738406
     80         12           0       15.958708    0.745897    0.320840
     81          6           0       15.807454   -2.332134   -1.518155
     82          6           0       15.021277   -1.029156    3.078557
     83          6           0       15.644770    3.500122    1.864565
     84          6           0       15.758842    2.417505   -2.730625
     85          7           0       15.503157   -1.398319    0.615957
     86          6           0       15.539052   -2.484068   -0.141816
     87          6           0       15.351480   -3.815839    0.633269
     88          6           0       14.558905   -3.243126    1.907114
     89          6           0       15.081944   -1.808222    1.895558
     90          6           0       13.052477   -3.203987    1.710910
     91          6           0       16.718964   -4.462250    1.050591
     92          6           0       16.624193   -5.910414    1.535971
     93          1           0       17.716979   -6.824677    1.215969
     94          7           0       15.894452    1.127008    2.267424
     95          6           0       15.510904    0.284393    3.249348
     96          6           0       15.622846    1.048315    4.501564
     97          6           0       15.945951    2.460786    4.162068
     98          6           0       15.817618    2.421054    2.719136
     99          6           0       15.506750    0.411879    5.856151
    100          6           0       16.298035    3.653381    4.998696
    101          8           0       16.306501    4.838870    4.511468
    102          6           0       16.541470    3.403477    6.426901
    103          7           0       15.521792    2.676588   -0.314651
    104          6           0       15.497570    3.701796    0.554997
    105          6           0       15.435869    5.027274   -0.165898
    106          6           0       15.668659    4.687155   -1.711124
    107          6           0       15.738841    3.146775   -1.623406
    108          6           0       14.132660    5.810305   -0.008136
    109          6           0       16.820704    5.439729   -2.431595
    110          6           0       18.154238    4.999105   -1.872200
    111          7           0       15.995339    0.184848   -1.765287
    112          6           0       15.871463    1.041272   -2.881201
    113          6           0       15.839156    0.185742   -4.085137
    114          6           0       15.923993   -1.120688   -3.580627
    115          6           0       15.983198   -1.083032   -2.161268
    116          6           0       15.694598    0.641448   -5.425870
    117          6           0       15.966206   -2.523539   -3.925473
    118          8           0       16.035677   -3.157781   -4.977441
    119          6           0       15.765154   -3.376217   -2.599234
    120          6           0       16.815648   -4.452509   -2.575285
    121          8           0       18.019775   -4.158316   -2.474584
    122          8           0       16.215889   -5.651048   -2.456252
    123          6           0       17.217290   -6.749906   -2.416970
    124          1           0       14.513150   -1.445817    3.948673
    125          1           0       15.641859    4.483191    2.341053
    126          1           0       15.796736    2.867112   -3.725155
    127          1           0       14.748704   -4.557438    0.122897
    128          1           0       14.858906   -3.750988    2.820048
    129          1           0       12.771149   -3.458068    0.699756
    130          1           0       12.751677   -2.190972    1.944107
    131          1           0       12.559403   -3.842390    2.449604
    132          1           0       17.077827   -3.979482    1.968686
    133          1           0       17.431791   -4.394757    0.251875
    134          1           0       15.657429   -6.365574    1.288715
    135          1           0       16.649910   -5.912639    2.628377
    136          1           0       15.103703   -0.606180    5.789051
    137          1           0       14.742818    0.970650    6.407563
    138          1           0       16.442575    0.443889    6.418170
    139          1           0       15.657243    2.951822    6.870329
    140          1           0       16.866106    4.360531    6.839859
    141          1           0       17.350198    2.670160    6.520880
    142          1           0       16.225103    5.687975    0.171272
    143          1           0       14.783951    4.927311   -2.318959
    144          1           0       14.281336    6.827177    0.401671
    145          1           0       13.465761    5.239285    0.624103
    146          1           0       13.547789    5.922011   -0.919533
    147          1           0       16.745828    6.513977   -2.245693
    148          1           0       16.822686    5.298428   -3.507248
    149          1           0       18.262037    5.616898   -0.975650
    150          1           0       18.952468    5.195458   -2.585167
    151          1           0       18.118868    3.952270   -1.548870
    152          1           0       16.402314    0.081845   -6.022930
    153          1           0       15.868112    1.712800   -5.502526
    154          1           0       14.648679    0.380899   -5.608715
    155          1           0       14.756143   -3.789491   -2.625279
    156          1           0       16.955080   -7.449842   -3.216357
    157          1           0       17.195282   -7.137259   -1.380997
    158          1           0       18.240408   -6.505177   -2.677305
 ---------------------------------------------------------------------

 SCF Done:  E(RCAM-B3LYP) =  -4069.81177286     A.U. after   19 cycles

 Excitation energies and oscillator strengths:

 Excited State   1:      Singlet-A      1.6755 eV  739.99 nm  f=0.3223  <S**2>=0.000
     310 -> 316        0.17166
     311 -> 314       -0.10104
     312 -> 313        0.67857
     310 <- 316        0.10347
 This state for optimization and/or second-order correction.
 Total Energy, E(TD-HF/TD-DFT) =  -4069.75020007
 Copying the excited state density for this state as the 1-particle RhoCI density.

 Excited State   2:      Singlet-A      1.6799 eV  738.03 nm  f=0.4543  <S**2>=0.000
     309 -> 315        0.17367
     311 -> 314        0.67821
     312 -> 313        0.10100
     309 <- 315        0.10400

 Excited State   3:      Singlet-A      2.1861 eV  567.16 nm  f=0.0996  <S**2>=0.000
     310 -> 313        0.64232
     312 -> 316       -0.27301

 Excited State   4:      Singlet-A      2.1926 eV  565.48 nm  f=0.1011  <S**2>=0.000
     309 -> 314        0.64054
     311 -> 315       -0.27826

 Excited State   5:      Singlet-A      3.0660 eV  404.38 nm  f=0.0000  <S**2>=0.000
     311 -> 313        0.70711

 The electronic state is 1-A.
 Alpha  occ. eigenvalues --  -46.87796 -46.87660 -19.26344 -19.26289 -19.19157
 Alpha  occ. eigenvalues --  -19.19024 -19.18814 -19.18716 -19.18171 -19.18049
 Alpha  occ. eigenvalues --  -14.42496 -14.42450 -14.41449 -14.41359 -14.39403
 Alpha  occ. eigenvalues --  -14.39352 -14.38599 -14.38587 -10.39087 -10.39083
 Alpha  occ. eigenvalues --  -10.35447 -10.35393 -10.34391 -10.34226 -10.31750
 Alpha  occ. eigenvalues --  -10.31686 -10.31406 -10.31307 -10.31022 -10.30909
 Alpha  occ. eigenvalues --  -10.30570 -10.30507 -10.30398 -10.30360 -10.30206
 Alpha  occ. eigenvalues --  -10.30142 -10.29920 -10.29895 -10.29630 -10.29437
 Alpha  occ. eigenvalues --  -10.29401 -10.29254 -10.28751 -10.28715 -10.28648
 Alpha  occ. eigenvalues --  -10.28544 -10.28404 -10.28365 -10.28136 -10.28118
 Alpha  occ. eigenvalues --  -10.28001 -10.27793 -10.27727 -10.27668 -10.27584
 Alpha  occ. eigenvalues --  -10.27520 -10.27499 -10.27483 -10.27481 -10.27468
 Alpha  occ. eigenvalues --  -10.27465 -10.27447 -10.27404 -10.27378 -10.27160
 Alpha  occ. eigenvalues --  -10.27047 -10.26708 -10.26689 -10.26418 -10.26409
 Alpha  occ. eigenvalues --  -10.26236 -10.26180 -10.26141 -10.26019 -10.26018
 Alpha  occ. eigenvalues --  -10.25934 -10.25850 -10.25843 -10.25433 -10.25400
 Alpha  occ. eigenvalues --  -10.24872 -10.24833 -10.24787 -10.24734 -10.24690
 Alpha  occ. eigenvalues --  -10.24684  -3.16539  -3.16410  -1.91421  -1.91292
 Alpha  occ. eigenvalues --   -1.91007  -1.90881  -1.90849  -1.90718  -1.16638
 Alpha  occ. eigenvalues --   -1.16637  -1.08656  -1.08629  -1.07215  -1.06968
 Alpha  occ. eigenvalues --   -1.06941  -1.06646  -1.04581  -1.04494  -1.03760
 Alpha  occ. eigenvalues --   -1.03663  -1.03234  -1.03039  -1.02411  -1.02111
 Alpha  occ. eigenvalues --   -0.91986  -0.91973  -0.89518  -0.89495  -0.89189
 Alpha  occ. eigenvalues --   -0.89147  -0.88285  -0.88221  -0.87870  -0.87793
 Alpha  occ. eigenvalues --   -0.87683  -0.87673  -0.87273  -0.87121  -0.84997
 Alpha  occ. eigenvalues --   -0.84983  -0.83935  -0.83877  -0.82966  -0.82933
 Alpha  occ. eigenvalues --   -0.82651  -0.82650  -0.81594  -0.81588  -0.80597
 Alpha  occ. eigenvalues --   -0.80441  -0.78797  -0.78635  -0.77218  -0.77143
 Alpha  occ. eigenvalues --   -0.76936  -0.76896  -0.75925  -0.75836  -0.74897
 Alpha  occ. eigenvalues --   -0.74803  -0.72774  -0.72699  -0.71672  -0.71580
 Alpha  occ. eigenvalues --   -0.69905  -0.69759  -0.68874  -0.68825  -0.67641
 Alpha  occ. eigenvalues --   -0.67601  -0.67221  -0.67198  -0.65288  -0.65269
 Alpha  occ. eigenvalues --   -0.64854  -0.64769  -0.64652  -0.64621  -0.64268
 Alpha  occ. eigenvalues --   -0.64204  -0.62300  -0.62276  -0.60441  -0.60340
 Alpha  occ. eigenvalues --   -0.59805  -0.59794  -0.58992  -0.58987  -0.58504
 Alpha  occ. eigenvalues --   -0.58425  -0.57586  -0.57552  -0.57308  -0.57237
 Alpha  occ. eigenvalues --   -0.56310  -0.56203  -0.55981  -0.55883  -0.55520
 Alpha  occ. eigenvalues --   -0.55451  -0.55339  -0.55247  -0.54524  -0.54487
 Alpha  occ. eigenvalues --   -0.53909  -0.53896  -0.53299  -0.53227  -0.53223
 Alpha  occ. eigenvalues --   -0.53140  -0.52916  -0.52900  -0.52756  -0.52668
 Alpha  occ. eigenvalues --   -0.52436  -0.52403  -0.51915  -0.51884  -0.51656
 Alpha  occ. eigenvalues --   -0.51618  -0.51200  -0.51196  -0.50571  -0.50476
 Alpha  occ. eigenvalues --   -0.50030  -0.49979  -0.49918  -0.49868  -0.49515
 Alpha  occ. eigenvalues --   -0.49487  -0.49215  -0.49201  -0.49102  -0.49097
 Alpha  occ. eigenvalues --   -0.48594  -0.48556  -0.48460  -0.48446  -0.48377
 Alpha  occ. eigenvalues --   -0.48339  -0.47695  -0.47593  -0.47297  -0.47118
 Alpha  occ. eigenvalues --   -0.46797  -0.46708  -0.46557  -0.46551  -0.46359
 Alpha  occ. eigenvalues --   -0.46270  -0.46163  -0.46085  -0.45823  -0.45820
 Alpha  occ. eigenvalues --   -0.45209  -0.45200  -0.44579  -0.44512  -0.44507
 Alpha  occ. eigenvalues --   -0.44474  -0.44144  -0.44125  -0.44089  -0.44078
 Alpha  occ. eigenvalues --   -0.44020  -0.43938  -0.43551  -0.43496  -0.43386
 Alpha  occ. eigenvalues --   -0.43384  -0.43027  -0.42928  -0.42899  -0.42701
 Alpha  occ. eigenvalues --   -0.42655  -0.42554  -0.42009  -0.41964  -0.41704
 Alpha  occ. eigenvalues --   -0.41668  -0.41535  -0.41457  -0.41141  -0.40988
 Alpha  occ. eigenvalues --   -0.40870  -0.40823  -0.40722  -0.40697  -0.40570
 Alpha  occ. eigenvalues --   -0.40494  -0.40237  -0.40224  -0.39439  -0.39427
 Alpha  occ. eigenvalues --   -0.38468  -0.38351  -0.37750  -0.37651  -0.37319
 Alpha  occ. eigenvalues --   -0.37266  -0.37265  -0.37197  -0.36768  -0.36715
 Alpha  occ. eigenvalues --   -0.36216  -0.36193  -0.34286  -0.34253  -0.33859
 Alpha  occ. eigenvalues --   -0.33774  -0.33186  -0.33175  -0.31344  -0.31275
 Alpha  occ. eigenvalues --   -0.31035  -0.30972  -0.30030  -0.29953  -0.29449
 Alpha  occ. eigenvalues --   -0.29327  -0.29322  -0.29211  -0.24080  -0.24036
 Alpha  occ. eigenvalues --   -0.21127  -0.21116
 Alpha virt. eigenvalues --   -0.08792  -0.08774  -0.01749  -0.01684  -0.00058
 Alpha virt. eigenvalues --   -0.00029   0.02200   0.02208   0.03123   0.03225
 Alpha virt. eigenvalues --    0.04717   0.04732   0.05095   0.05169   0.06174

 Mulliken charges:
               1
     1  Mg   0.838761
     2  C   -0.002970
     3  C   -0.094123
     4  C   -0.045876
     5  C   -0.063965
     6  N   -0.256781
     7  C   -0.052480
     8  C   -0.014007
     9  C   -0.087009
    10  C    0.046313
    11  C    0.104812
    12  C    0.053470
    13  C   -0.071786
    14  H    0.036066
    15  N   -0.433158
    16  C    0.168428
    17  C   -0.177161
    18  C   -0.003991
    19  C    0.148721
    20  C    0.110185
    21  C    0.012293
    22  O   -0.249600
    23  C    0.062473
    24  N   -0.341157
    25  C    0.041260
    26  C   -0.028185
    27  C   -0.023993
    28  C    0.074874
    29  C    0.076174
    30  C    0.035129
    31  C   -0.004510
    32  N   -0.310457
    33  C    0.080408
    34  C   -0.169711
    35  C    0.008340
    36  C    0.082984
    37  C    0.127313
    38  C    0.046128
    39  O   -0.188465
    40  C   -0.005339
    41  C    0.212868
    42  O   -0.257117
    43  O   -0.304788
    44  C    0.157702
    45  H   -0.017606
    46  H   -0.016818
    47  H   -0.041473
    48  H    0.000925
    49  H   -0.004046
    50  H    0.025472
    51  H    0.016462
    52  H    0.016653
    53  H    0.011207
    54  H    0.044105
    55  H    0.017874
    56  H    0.017951
    57  H    0.005864
    58  H    0.026835
    59  H    0.039554
    60  H    0.037347
    61  H    0.035673
    62  H    0.031499
    63  H    0.016572
    64  H    0.009471
    65  H    0.023230
    66  H    0.012539
    67  H    0.004762
    68  H    0.006390
    69  H    0.004742
    70  H    0.008791
    71  H    0.018169
    72  H    0.028959
    73  H    0.047562
    74  H    0.009132
    75  H    0.046008
    76  H    0.035145
    77  H    0.042929
    78  H    0.046392
    79  H    0.053658
    80  Mg   0.837861
    81  C   -0.016812
    82  C   -0.087763
    83  C   -0.045534
    84  C   -0.064886
    85  N   -0.254562
    86  C   -0.049841
    87  C   -0.015084
    88  C   -0.090511
    89  C    0.045742
    90  C    0.114353
    91  C    0.062525
    92  C   -0.077917
    93  H    0.034916
    94  N   -0.423497
    95  C    0.162921
    96  C   -0.174628
    97  C   -0.007809
    98  C    0.152123
    99  C    0.099370
   100  C    0.015570
   101  O   -0.253217
   102  C    0.061188
   103  N   -0.350054
   104  C    0.037541
   105  C   -0.019836
   106  C   -0.034813
   107  C    0.088913
   108  C    0.073648
   109  C    0.034736
   110  C   -0.007679
   111  N   -0.324119
   112  C    0.078460
   113  C   -0.163142
   114  C    0.002271
   115  C    0.096204
   116  C    0.131481
   117  C    0.042393
   118  O   -0.187821
   119  C    0.000899
   120  C    0.211266
   121  O   -0.251040
   122  O   -0.305606
   123  C    0.152018
   124  H   -0.019620
   125  H   -0.015593
   126  H   -0.040459
   127  H   -0.000588
   128  H   -0.004307
   129  H    0.022512
   130  H    0.014426
   131  H    0.016353
   132  H    0.013900
   133  H    0.037667
   134  H    0.020843
   135  H    0.019598
   136  H    0.008789
   137  H    0.026141
   138  H    0.039788
   139  H    0.038257
   140  H    0.036373
   141  H    0.033905
   142  H    0.014383
   143  H    0.012434
   144  H    0.025116
   145  H    0.011657
   146  H    0.005691
   147  H    0.006250
   148  H    0.003655
   149  H    0.010923
   150  H    0.017928
   151  H    0.030114
   152  H    0.046013
   153  H    0.008501
   154  H    0.046990
   155  H    0.035096
   156  H    0.043954
   157  H    0.049513
   158  H    0.053566
 Sum of Mulliken charges =  -0.00000

 Dipole moment (field-independent basis, Debye):
    X=             -4.1724    Y=              2.1985    Z=              6.7390  Tot=              8.2254
 Quadrupole moment (field-independent basis, Debye-Ang):
   XX=           -516.5988   YY=           -529.8231   ZZ=           -469.1474
   XY=            -52.9708   XZ=             15.5231   YZ=            -28.4281

 Normal termination of Gaussian 16 at Sat Sep  4 20:26:53 2021.
