 Gaussian 16, Revision A.03,
 Gaussian 16:  ES64L-G16RevA.03 25-Dec-2016

 -----------------------------------
 #p cam-b3lyp/Def2SVP td=(nstates=5)
 -----------------------------------

 --------------------------------
 TDDFT excited states in gaussian
 --------------------------------
 Symbolic Z-matrix:
 Charge =  0 Multiplicity = 1

                         Standard orientation:
 ---------------------------------------------------------------------
 Center     Atomic      Atomic             Coordinates (Angstroms)
 Number     Number       Type             X           Y           Z
 ---------------------------------------------------------------------
      1         12           0        7.676805   -0.868034    0.103384
      2          6           0        7.988130    2.103507   -1.867716
      3          6           0        8.567630    1.011528    2.808332
      4          6           0        7.851412   -3.555978    1.777030
      5          6           0        7.928169   -2.683494   -2.860832
      6          7           0        8.186471    1.275674    0.316468
      7          6           0        8.210106    2.319865   -0.505894
      8          6           0        8.418467    3.678860    0.226971
      9          6           0        9.139136    3.145900    1.545526
     10          6           0        8.571067    1.738070    1.580669
     11          6           0       10.656678    3.060182    1.418161
     12          6           0        7.063056    4.387807    0.561613
     13          6           0        7.179546    5.856768    0.978671
     14          1           0        6.134483    6.784727    0.573599
     15          7           0        7.662029   -1.164394    2.056536
     16          6           0        8.042917   -0.283056    3.012285
     17          6           0        7.846651   -0.973652    4.305049
     18          6           0        7.500825   -2.392907    4.014856
     19          6           0        7.685644   -2.434833    2.586759
     20          6           0        7.942309   -0.281971    5.630257
     21          6           0        7.082002   -3.533504    4.887643
     22          8           0        7.055039   -4.739611    4.464378
     23          6           0        6.785169   -3.209442    6.294738
     24          7           0        8.082769   -2.846229   -0.425361
     25          6           0        8.038000   -3.826517    0.483492
     26          6           0        8.081124   -5.177129   -0.167604
     27          6           0        7.919375   -4.917710   -1.734860
     28          6           0        7.891851   -3.369433   -1.716177
     29          6           0        9.351020   -6.001540    0.084827
     30          6           0        6.771583   -5.667147   -2.456897
     31          6           0        5.435888   -5.148880   -1.972732
     32          7           0        7.738170   -0.405594   -2.016387
     33          6           0        7.868054   -1.316550   -3.074669
     34          6           0        7.970919   -0.525966   -4.315018
     35          6           0        7.909990    0.799000   -3.887705
     36          6           0        7.803872    0.834361   -2.467923
     37          6           0        8.159594   -1.050244   -5.624204
     38          6           0        7.934640    2.193547   -4.298179
     39          8           0        7.916091    2.778964   -5.381893
     40          6           0        8.108888    3.095685   -2.997559
     41          6           0        7.092935    4.202701   -3.072819
     42          8           0        5.872038    3.957095   -2.992467
     43          8           0        7.718566    5.386755   -2.988293
     44          6           0        6.764709    6.527283   -3.027112
     45          1           0        9.062776    1.444898    3.679517
     46          1           0        7.805826   -4.510459    2.305542
     47          1           0        7.923810   -3.182828   -3.831450
     48          1           0        9.068670    4.381470   -0.294565
     49          1           0        8.830337    3.701335    2.430883
     50          1           0       10.982544    3.257405    0.396968
     51          1           0       10.916305    2.042613    1.710802
     52          1           0       11.143705    3.713730    2.142356
     53          1           0        6.653983    3.966162    1.479728
     54          1           0        6.367403    4.304384   -0.274111
     55          1           0        8.163438    6.261899    0.740479
     56          1           0        7.121128    5.908790    2.065907
     57          1           0        8.372125    0.714099    5.532027
     58          1           0        8.669201   -0.833952    6.225784
     59          1           0        6.984454   -0.256707    6.150072
     60          1           0        7.667982   -2.766134    6.755897
     61          1           0        6.416623   -4.130847    6.744223
     62          1           0        6.007450   -2.445763    6.324701
     63          1           0        7.259817   -5.803943    0.177340
     64          1           0        8.813287   -5.201470   -2.290806
     65          1           0        9.157711   -6.979068    0.527293
     66          1           0       10.016050   -5.411660    0.714960
     67          1           0        9.973238   -6.163510   -0.794961
     68          1           0        6.806933   -6.730601   -2.222885
     69          1           0        6.806260   -5.564919   -3.541608
     70          1           0        5.270904   -5.717860   -1.058470
     71          1           0        4.657888   -5.357151   -2.707953
     72          1           0        5.494157   -4.096190   -1.695361
     73          1           0        7.484945   -0.494625   -6.275439
     74          1           0        7.950411   -2.119260   -5.656594
     75          1           0        9.214580   -0.826247   -5.781321
     76          1           0        9.130017    3.475357   -3.013917
     77          1           0        7.074050    7.176696   -3.846138
     78          1           0        6.748373    6.951885   -2.023194
     79          1           0        5.742930    6.291159   -3.326365
     80         12           0       -8.191732   -0.421955   -0.118392
     81          6           0       -5.875010    1.886215    1.359524
     82          6           0      -10.607062    1.943499    0.334831
     83          6           0      -10.337764   -2.587523   -0.997170
     84          6           0       -5.904760   -2.954889    0.588519
     85          7           0       -8.126156    1.613070    0.745688
     86          6           0       -7.177967    2.407705    1.218820
     87          6           0       -7.635361    3.866941    1.485242
     88          6           0       -9.206645    3.595473    1.675562
     89          6           0       -9.338027    2.323959    0.839704
     90          6           0       -9.591391    3.266948    3.108531
     91          6           0       -7.359589    4.812246    0.263619
     92          6           0       -7.494936    6.306738    0.563526
     93          1           0       -6.593411    7.236484   -0.111241
     94          7           0      -10.057437   -0.195963   -0.756069
     95          6           0      -10.886738    0.836532   -0.496266
     96          6           0      -12.151326    0.517985   -1.177095
     97          6           0      -12.055371   -0.863290   -1.722612
     98          6           0      -10.793358   -1.286054   -1.149299
     99          6           0      -13.266190    1.511601   -1.329435
    100          6           0      -12.957173   -1.674559   -2.602837
    101          8           0      -12.790752   -2.936028   -2.757169
    102          6           0      -14.096391   -0.966379   -3.204639
    103          7           0       -8.228298   -2.497557   -0.004996
    104          6           0       -9.258917   -3.199354   -0.508214
    105          6           0       -8.940275   -4.674508   -0.561076
    106          6           0       -7.383856   -4.790609   -0.212246
    107          6           0       -7.079046   -3.305419    0.082214
    108          6           0       -9.742297   -5.562818    0.389733
    109          6           0       -6.487341   -5.540413   -1.235350
    110          6           0       -6.399850   -4.750351   -2.521245
    111          7           0       -6.168617   -0.525687    0.632811
    112          6           0       -5.407879   -1.690152    0.876511
    113          6           0       -4.136297   -1.258522    1.492313
    114          6           0       -4.255968    0.136248    1.585992
    115          6           0       -5.521610    0.543125    1.083913
    116          6           0       -3.087475   -2.118193    1.924816
    117          6           0       -3.603710    1.355873    2.005252
    118          8           0       -2.483141    1.641585    2.425294
    119          6           0       -4.673932    2.530990    1.993796
    120          6           0       -4.060090    3.711462    1.292212
    121          8           0       -3.777659    3.651047    0.082593
    122          8           0       -4.108617    4.781834    2.106041
    123          6           0       -3.521360    5.980631    1.450434
    124          1           0      -11.480347    2.522383    0.636737
    125          1           0      -10.996606   -3.366423   -1.387961
    126          1           0       -5.099481   -3.675087    0.748229
    127          1           0       -7.224229    4.315350    2.381719
    128          1           0       -9.800975    4.397524    1.245617
    129          1           0       -8.724601    3.153855    3.742587
    130          1           0      -10.147247    2.339806    3.058682
    131          1           0      -10.289216    4.016440    3.492761
    132          1           0       -8.167277    4.693962   -0.470140
    133          1           0       -6.394382    4.614787   -0.160667
    134          1           0       -7.520876    6.510232    1.640959
    135          1           0       -8.469059    6.646166    0.203127
    136          1           0      -13.116871    2.385847   -0.683841
    137          1           0      -14.172939    1.037190   -0.938801
    138          1           0      -13.436763    1.797081   -2.369670
    139          1           0      -14.715082   -0.542704   -2.417118
    140          1           0      -14.571841   -1.689804   -3.869826
    141          1           0      -13.714021   -0.124077   -3.791956
    142          1           0       -9.108204   -5.071043   -1.554888
    143          1           0       -7.216538   -5.337966    0.727025
    144          1           0      -10.293338   -6.370508   -0.128013
    145          1           0      -10.423629   -4.935896    0.949458
    146          1           0       -9.161713   -6.035955    1.179834
    147          1           0       -6.932001   -6.504738   -1.493215
    148          1           0       -5.484789   -5.735562   -0.869578
    149          1           0       -7.311574   -5.040739   -3.051823
    150          1           0       -5.510540   -5.029600   -3.082660
    151          1           0       -6.460725   -3.673335   -2.326354
    152          1           0       -2.160020   -1.665568    1.600067
    153          1           0       -3.203848   -3.121713    1.520851
    154          1           0       -3.245715   -2.090117    3.006224
    155          1           0       -4.924387    2.756124    3.031176
    156          1           0       -2.734675    6.354098    2.113254
    157          1           0       -4.372612    6.657415    1.247751
    158          1           0       -2.968565    5.828658    0.530780
 ---------------------------------------------------------------------

 SCF Done:  E(RCAM-B3LYP) =  -4069.81154929     A.U. after   19 cycles

 Excitation energies and oscillator strengths:

 Excited State   1:      Singlet-A      1.6737 eV  740.77 nm  f=0.2987  <S**2>=0.000
     309 -> 315        0.15407
     311 -> 313        0.61062
     312 -> 314        0.31298
 This state for optimization and/or second-order correction.
 Total Energy, E(TD-HF/TD-DFT) =  -4069.75004088
 Copying the excited state density for this state as the 1-particle RhoCI density.

 Excited State   2:      Singlet-A      1.6817 eV  737.26 nm  f=0.4833  <S**2>=0.000
     310 -> 316        0.15648
     311 -> 313       -0.31275
     312 -> 314        0.61010

 Excited State   3:      Singlet-A      2.1854 eV  567.34 nm  f=0.0457  <S**2>=0.000
     309 -> 313        0.61596
     310 -> 314       -0.18382
     311 -> 315       -0.26135

 Excited State   4:      Singlet-A      2.1924 eV  565.52 nm  f=0.1460  <S**2>=0.000
     309 -> 313        0.18268
     310 -> 314        0.61401
     312 -> 316       -0.26662

 Excited State   5:      Singlet-A      2.7263 eV  454.76 nm  f=0.0000  <S**2>=0.000
     312 -> 313        0.70682

 The electronic state is 1-A.
 Alpha  occ. eigenvalues --  -46.87596 -46.87525 -19.26274 -19.26008 -19.19068
 Alpha  occ. eigenvalues --  -19.18722 -19.18655 -19.18568 -19.17984 -19.17912
 Alpha  occ. eigenvalues --  -14.42436 -14.42183 -14.41296 -14.41192 -14.39288
 Alpha  occ. eigenvalues --  -14.39134 -14.38533 -14.38318 -10.39004 -10.38788
 Alpha  occ. eigenvalues --  -10.35333 -10.35202 -10.34161 -10.34130 -10.31687
 Alpha  occ. eigenvalues --  -10.31417 -10.31246 -10.31140 -10.30964 -10.30639
 Alpha  occ. eigenvalues --  -10.30332 -10.30305 -10.30295 -10.30248 -10.30081
 Alpha  occ. eigenvalues --  -10.29958 -10.29830 -10.29673 -10.29374 -10.29372
 Alpha  occ. eigenvalues --  -10.29336 -10.28994 -10.28664 -10.28598 -10.28474
 Alpha  occ. eigenvalues --  -10.28341 -10.28252 -10.28097 -10.28089 -10.27935
 Alpha  occ. eigenvalues --  -10.27856 -10.27609 -10.27533 -10.27465 -10.27458
 Alpha  occ. eigenvalues --  -10.27420 -10.27411 -10.27402 -10.27323 -10.27318
 Alpha  occ. eigenvalues --  -10.27284 -10.27235 -10.27218 -10.27138 -10.26985
 Alpha  occ. eigenvalues --  -10.26893 -10.26629 -10.26391 -10.26361 -10.26163
 Alpha  occ. eigenvalues --  -10.26071 -10.26002 -10.25987 -10.25981 -10.25870
 Alpha  occ. eigenvalues --  -10.25775 -10.25767 -10.25611 -10.25349 -10.25244
 Alpha  occ. eigenvalues --  -10.24806 -10.24655 -10.24627 -10.24572 -10.24534
 Alpha  occ. eigenvalues --  -10.24474  -3.16345  -3.16267  -1.91227  -1.91148
 Alpha  occ. eigenvalues --   -1.90816  -1.90735  -1.90653  -1.90577  -1.16565
 Alpha  occ. eigenvalues --   -1.16353  -1.08589  -1.08368  -1.06971  -1.06908
 Alpha  occ. eigenvalues --   -1.06857  -1.06349  -1.04433  -1.04314  -1.03600
 Alpha  occ. eigenvalues --   -1.03502  -1.02975  -1.02971  -1.02150  -1.02047
 Alpha  occ. eigenvalues --   -0.91922  -0.91708  -0.89430  -0.89281  -0.89096
 Alpha  occ. eigenvalues --   -0.88920  -0.88159  -0.88054  -0.87725  -0.87622
 Alpha  occ. eigenvalues --   -0.87617  -0.87410  -0.87060  -0.87014  -0.84941
 Alpha  occ. eigenvalues --   -0.84715  -0.83813  -0.83709  -0.82873  -0.82721
 Alpha  occ. eigenvalues --   -0.82594  -0.82389  -0.81529  -0.81324  -0.80378
 Alpha  occ. eigenvalues --   -0.80336  -0.78573  -0.78539  -0.77084  -0.76969
 Alpha  occ. eigenvalues --   -0.76837  -0.76678  -0.75779  -0.75666  -0.74743
 Alpha  occ. eigenvalues --   -0.74667  -0.72635  -0.72521  -0.71522  -0.71423
 Alpha  occ. eigenvalues --   -0.69693  -0.69684  -0.68768  -0.68612  -0.67538
 Alpha  occ. eigenvalues --   -0.67384  -0.67140  -0.66945  -0.65211  -0.65018
 Alpha  occ. eigenvalues --   -0.64706  -0.64596  -0.64590  -0.64365  -0.64141
 Alpha  occ. eigenvalues --   -0.64029  -0.62209  -0.62035  -0.60279  -0.60190
 Alpha  occ. eigenvalues --   -0.59738  -0.59539  -0.58929  -0.58733  -0.58361
 Alpha  occ. eigenvalues --   -0.58248  -0.57483  -0.57319  -0.57173  -0.57060
 Alpha  occ. eigenvalues --   -0.56140  -0.56054  -0.55820  -0.55711  -0.55389
 Alpha  occ. eigenvalues --   -0.55267  -0.55183  -0.55100  -0.54420  -0.54275
 Alpha  occ. eigenvalues --   -0.53855  -0.53625  -0.53165  -0.53079  -0.53047
 Alpha  occ. eigenvalues --   -0.52959  -0.52834  -0.52652  -0.52611  -0.52498
 Alpha  occ. eigenvalues --   -0.52334  -0.52213  -0.51812  -0.51668  -0.51599
 Alpha  occ. eigenvalues --   -0.51347  -0.51136  -0.50943  -0.50418  -0.50317
 Alpha  occ. eigenvalues --   -0.49922  -0.49807  -0.49802  -0.49663  -0.49428
 Alpha  occ. eigenvalues --   -0.49256  -0.49139  -0.49046  -0.48956  -0.48841
 Alpha  occ. eigenvalues --   -0.48494  -0.48339  -0.48315  -0.48279  -0.48225
 Alpha  occ. eigenvalues --   -0.48193  -0.47534  -0.47441  -0.47058  -0.47048
 Alpha  occ. eigenvalues --   -0.46646  -0.46547  -0.46496  -0.46288  -0.46206
 Alpha  occ. eigenvalues --   -0.46106  -0.46020  -0.45914  -0.45755  -0.45569
 Alpha  occ. eigenvalues --   -0.45149  -0.44972  -0.44451  -0.44416  -0.44322
 Alpha  occ. eigenvalues --   -0.44256  -0.44068  -0.44014  -0.43899  -0.43878
 Alpha  occ. eigenvalues --   -0.43834  -0.43763  -0.43486  -0.43324  -0.43237
 Alpha  occ. eigenvalues --   -0.43131  -0.42863  -0.42833  -0.42775  -0.42491
 Alpha  occ. eigenvalues --   -0.42451  -0.42403  -0.41900  -0.41765  -0.41606
 Alpha  occ. eigenvalues --   -0.41449  -0.41399  -0.41271  -0.40932  -0.40891
 Alpha  occ. eigenvalues --   -0.40664  -0.40640  -0.40615  -0.40569  -0.40432
 Alpha  occ. eigenvalues --   -0.40335  -0.40169  -0.39946  -0.39360  -0.39219
 Alpha  occ. eigenvalues --   -0.38291  -0.38233  -0.37593  -0.37471  -0.37203
 Alpha  occ. eigenvalues --   -0.37138  -0.37077  -0.36990  -0.36694  -0.36446
 Alpha  occ. eigenvalues --   -0.36150  -0.35932  -0.34188  -0.34023  -0.33773
 Alpha  occ. eigenvalues --   -0.33477  -0.33110  -0.32922  -0.31214  -0.31099
 Alpha  occ. eigenvalues --   -0.30910  -0.30776  -0.29888  -0.29771  -0.29264
 Alpha  occ. eigenvalues --   -0.29186  -0.29144  -0.29059  -0.23972  -0.23817
 Alpha  occ. eigenvalues --   -0.21054  -0.20867
 Alpha virt. eigenvalues --   -0.08728  -0.08513  -0.01621  -0.01491   0.00032
 Alpha virt. eigenvalues --    0.00202   0.02273   0.02457   0.03309   0.03470
 Alpha virt. eigenvalues --    0.04789   0.04982   0.05248   0.05384   0.06240

 Mulliken charges:
               1
     1  Mg   0.840312
     2  C   -0.002341
     3  C   -0.093600
     4  C   -0.046041
     5  C   -0.064229
     6  N   -0.256716
     7  C   -0.052168
     8  C   -0.014231
     9  C   -0.087121
    10  C    0.046712
    11  C    0.104936
    12  C    0.053320
    13  C   -0.071598
    14  H    0.036143
    15  N   -0.433032
    16  C    0.168929
    17  C   -0.176824
    18  C   -0.003914
    19  C    0.148998
    20  C    0.110239
    21  C    0.012517
    22  O   -0.250250
    23  C    0.062243
    24  N   -0.341167
    25  C    0.041252
    26  C   -0.028034
    27  C   -0.023893
    28  C    0.074940
    29  C    0.076365
    30  C    0.035241
    31  C   -0.004456
    32  N   -0.310473
    33  C    0.080625
    34  C   -0.169746
    35  C    0.008256
    36  C    0.083423
    37  C    0.127282
    38  C    0.046344
    39  O   -0.188805
    40  C   -0.005504
    41  C    0.212556
    42  O   -0.255666
    43  O   -0.305187
    44  C    0.157740
    45  H   -0.017968
    46  H   -0.017346
    47  H   -0.041973
    48  H    0.000453
    49  H   -0.003941
    50  H    0.025188
    51  H    0.016177
    52  H    0.016204
    53  H    0.012450
    54  H    0.045187
    55  H    0.017030
    56  H    0.017895
    57  H    0.005769
    58  H    0.026166
    59  H    0.040383
    60  H    0.036942
    61  H    0.035075
    62  H    0.032585
    63  H    0.016249
    64  H    0.009012
    65  H    0.022706
    66  H    0.012444
    67  H    0.004356
    68  H    0.005666
    69  H    0.004486
    70  H    0.008367
    71  H    0.017743
    72  H    0.030054
    73  H    0.047618
    74  H    0.008800
    75  H    0.045503
    76  H    0.034613
    77  H    0.042225
    78  H    0.046204
    79  H    0.054300
    80  Mg   0.838068
    81  C   -0.016655
    82  C   -0.087833
    83  C   -0.045520
    84  C   -0.064904
    85  N   -0.254536
    86  C   -0.049849
    87  C   -0.015073
    88  C   -0.090507
    89  C    0.045762
    90  C    0.114445
    91  C    0.062518
    92  C   -0.077873
    93  H    0.035106
    94  N   -0.423448
    95  C    0.162938
    96  C   -0.174718
    97  C   -0.007842
    98  C    0.152109
    99  C    0.099429
   100  C    0.015565
   101  O   -0.253267
   102  C    0.061183
   103  N   -0.350083
   104  C    0.037473
   105  C   -0.019760
   106  C   -0.034882
   107  C    0.088999
   108  C    0.073714
   109  C    0.034752
   110  C   -0.007683
   111  N   -0.324169
   112  C    0.078610
   113  C   -0.162724
   114  C    0.002287
   115  C    0.096465
   116  C    0.131303
   117  C    0.042855
   118  O   -0.187907
   119  C    0.000711
   120  C    0.211247
   121  O   -0.249968
   122  O   -0.306060
   123  C    0.151929
   124  H   -0.019859
   125  H   -0.015668
   126  H   -0.040342
   127  H   -0.000908
   128  H   -0.004380
   129  H    0.022234
   130  H    0.014367
   131  H    0.016060
   132  H    0.014028
   133  H    0.038108
   134  H    0.020434
   135  H    0.019499
   136  H    0.008649
   137  H    0.025956
   138  H    0.039797
   139  H    0.038135
   140  H    0.036316
   141  H    0.033980
   142  H    0.014417
   143  H    0.012305
   144  H    0.025043
   145  H    0.011511
   146  H    0.005550
   147  H    0.006098
   148  H    0.003749
   149  H    0.010833
   150  H    0.018140
   151  H    0.030334
   152  H    0.046688
   153  H    0.008748
   154  H    0.046451
   155  H    0.034476
   156  H    0.043221
   157  H    0.049240
   158  H    0.054582
 Sum of Mulliken charges =  -0.00000

 Dipole moment (field-independent basis, Debye):
    X=             -2.1151    Y=              2.4464    Z=              4.9731  Tot=              5.9321
 Quadrupole moment (field-independent basis, Debye-Ang):
   XX=           -437.8217   YY=           -469.0140   ZZ=           -520.4769
   XY=            -30.8382   XZ=             16.5566   YZ=             31.8743

 Normal termination of Gaussian 16 at Sun Sep 12 01:16:36 2021.
