 Gaussian 16, Revision A.03,
 Gaussian 16:  ES64L-G16RevA.03 25-Dec-2016

 -----------------------------------
 #p cam-b3lyp/Def2SVP td=(nstates=5)
 -----------------------------------

 --------------------------------
 TDDFT excited states in gaussian
 --------------------------------
 Symbolic Z-matrix:
 Charge =  0 Multiplicity = 1

                         Standard orientation:
 ---------------------------------------------------------------------
 Center     Atomic      Atomic             Coordinates (Angstroms)
 Number     Number       Type             X           Y           Z
 ---------------------------------------------------------------------
      1         12           0       -7.857571   -0.731575   -0.109461
      2          6           0       -8.076493    2.669374    0.984994
      3          6           0       -8.655706    0.379124   -3.235543
      4          6           0       -8.116373   -3.763451   -1.002416
      5          6           0       -8.200678   -1.673069    3.228432
      6          7           0       -8.286410    1.291340   -0.899751
      7          6           0       -8.278743    2.518498   -0.388679
      8          6           0       -8.430840    3.636265   -1.463312
      9          6           0       -9.159289    2.792255   -2.603052
     10          6           0       -8.642972    1.408929   -2.248441
     11          6           0      -10.679986    2.794158   -2.484822
     12          6           0       -7.047523    4.183827   -1.951515
     13          6           0       -7.106478    5.489389   -2.749881
     14          1           0       -6.031572    6.457069   -2.590130
     15          7           0       -7.836997   -1.542913   -1.910615
     16          6           0       -8.177118   -0.939192   -3.074713
     17          6           0       -7.995286   -1.958287   -4.130679
     18          6           0       -7.704252   -3.257721   -3.463697
     19          6           0       -7.902675   -2.907671   -2.080414
     20          6           0       -8.054182   -1.645963   -5.594488
     21          6           0       -7.320117   -4.604300   -3.990286
     22          8           0       -7.341036   -5.652224   -3.258171
     23          6           0       -6.999587   -4.680828   -5.427104
     24          7           0       -8.340337   -2.479982    0.923808
     25          6           0       -8.323802   -3.669605    0.312655
     26          6           0       -8.422005   -4.792998    1.301737
     27          6           0       -8.264240   -4.126893    2.744363
     28          6           0       -8.179774   -2.642542    2.310961
     29          6           0       -9.719089   -5.612505    1.257108
     30          6           0       -7.150924   -4.691882    3.661823
     31          6           0       -5.793028   -4.367443    3.080483
     32          7           0       -7.920032    0.285998    1.806704
     33          6           0       -8.092283   -0.301766    3.068266
     34          6           0       -8.176664    0.796381    4.048582
     35          6           0       -8.063520    1.954720    3.282231
     36          6           0       -7.944053    1.603190    1.907296
     37          6           0       -8.395620    0.650273    5.446847
     38          6           0       -8.040497    3.408308    3.302492
     39          8           0       -8.009740    4.262811    4.189267
     40          6           0       -8.170416    3.932419    1.804408
     41          6           0       -7.115213    4.984660    1.597898
     42          8           0       -5.903508    4.686295    1.608580
     43          8           0       -7.696239    6.122290    1.187108
     44          6           0       -6.701548    7.199033    0.935377
     45          1           0       -9.127161    0.578186   -4.199932
     46          1           0       -8.101322   -4.825911   -1.254191
     47          1           0       -8.222931   -1.892654    4.297423
     48          1           0       -9.059260    4.474385   -1.161538
     49          1           0       -8.822770    3.078436   -3.599334
     50          1           0      -11.007108    3.269560   -1.560212
     51          1           0      -10.974261    1.744529   -2.498009
     52          1           0      -11.136505    3.244438   -3.366647
     53          1           0       -6.646369    3.517396   -2.715063
     54          1           0       -6.362563    4.305438   -1.111654
     55          1           0       -8.076843    5.975948   -2.647114
     56          1           0       -7.036907    5.244959   -3.809887
     57          1           0       -8.447989   -0.646567   -5.775231
     58          1           0       -8.795722   -2.313510   -6.032901
     59          1           0       -7.091640   -1.793172   -6.084565
     60          1           0       -7.861572   -4.349055   -6.006291
     61          1           0       -6.661268   -5.700854   -5.605811
     62          1           0       -6.194148   -3.979509   -5.647033
     63          1           0       -7.621331   -5.516292    1.152769
     64          1           0       -9.172676   -4.220887    3.339831
     65          1           0       -9.558001   -6.678874    1.097067
     66          1           0      -10.356624   -5.192314    0.479754
     67          1           0      -10.354322   -5.511102    2.136661
     68          1           0       -7.223265   -5.777310    3.721483
     69          1           0       -7.191089   -4.300443    4.678393
     70          1           0       -5.641226   -5.166589    2.355808
     71          1           0       -5.029500   -4.395770    3.858579
     72          1           0       -5.810266   -3.426895    2.529521
     73          1           0       -7.706629    1.338039    5.936989
     74          1           0       -8.226082   -0.376899    5.768990
     75          1           0       -9.442982    0.943015    5.518902
     76          1           0       -9.177030    4.336009    1.699697
     77          1           0       -6.993840    8.054742    1.544115
     78          1           0       -6.661073    7.337041   -0.145234
     79          1           0       -5.691713    7.018525    1.305496
     80         12           0        8.020617   -0.775500    0.259621
     81          6           0        7.840964    2.739651   -0.440755
     82          6           0        7.219338   -1.316273   -3.011481
     83          6           0        7.728456   -3.859867    0.944253
     84          6           0        7.675431    0.020636    3.634925
     85          7           0        7.608250    0.613183   -1.411842
     86          6           0        7.629701    1.927509   -1.574433
     87          6           0        7.492388    2.395623   -3.048056
     88          6           0        6.742869    1.105273   -3.641413
     89          6           0        7.244205    0.055038   -2.652314
     90          6           0        5.229423    1.183574   -3.528693
     91          6           0        8.884597    2.618431   -3.736627
     92          6           0        8.830168    3.368329   -5.069464
     93          1           0        9.922493    4.279107   -5.400781
     94          7           0        8.028277   -2.362000   -0.932657
     95          6           0        7.696301   -2.398861   -2.240219
     96          6           0        7.846856   -3.802487   -2.654118
     97          6           0        8.135731   -4.619825   -1.444477
     98          6           0        7.950729   -3.627009   -0.405164
     99          6           0        7.793923   -4.237631   -4.089830
    100          6           0        8.503487   -6.060159   -1.253716
    101          8           0        8.475420   -6.614983   -0.098639
    102          6           0        8.807095   -6.826078   -2.471375
    103          7           0        7.530881   -1.791954    2.005852
    104          6           0        7.526412   -3.135950    2.045354
    105          6           0        7.416922   -3.639585    3.464771
    106          6           0        7.592998   -2.349397    4.393213
    107          6           0        7.688909   -1.262327    3.300284
    108          6           0        6.109814   -4.347657    3.820446
    109          6           0        8.704486   -2.408370    5.476627
    110          6           0       10.065430   -2.434041    4.818955
    111          7           0        7.982417    1.037626    1.434002
    112          6           0        7.801889    1.145820    2.830351
    113          6           0        7.734152    2.586480    3.150246
    114          6           0        7.857882    3.221090    1.905076
    115          6           0        7.972903    2.244487    0.879160
    116          6           0        7.529827    3.142514    4.444548
    117          6           0        7.906665    4.494902    1.224111
    118          8           0        7.943432    5.671082    1.583267
    119          6           0        7.770847    4.238073   -0.338568
    120          6           0        8.836939    5.038477   -1.035218
    121          8           0       10.039731    4.771585   -0.865911
    122          8           0        8.259797    5.839952   -1.948965
    123          6           0        9.277759    6.646097   -2.674019
    124          1           0        6.752290   -1.596832   -3.955962
    125          1           0        7.730253   -4.909200    1.248199
    126          1           0        7.667257    0.352488    4.675348
    127          1           0        6.880603    3.278579   -3.189066
    128          1           0        7.086242    0.876654   -4.646991
    129          1           0        4.911832    2.044391   -2.959245
    130          1           0        4.923501    0.270047   -3.035818
    131          1           0        4.775407    1.155961   -4.523393
    132          1           0        9.272648    1.651178   -4.080956
    133          1           0        9.564060    3.113935   -3.070706
    134          1           0        7.861040    3.856649   -5.228398
    135          1           0        8.899321    2.639567   -5.880724
    136          1           0        7.403312   -3.442616   -4.736969
    137          1           0        7.044504   -5.033846   -4.155212
    138          1           0        8.750785   -4.622581   -4.448847
    139          1           0        7.947829   -6.801133   -3.137337
    140          1           0        9.134001   -7.808377   -2.124828
    141          1           0        9.629443   -6.331218   -3.000016
    142          1           0        8.209279   -4.343607    3.687520
    143          1           0        6.681451   -2.135224    4.970315
    144          1           0        6.259914   -5.375078    4.202456
    145          1           0        5.476900   -4.356881    2.943020
    146          1           0        5.487613   -3.830202    4.548676
    147          1           0        8.621516   -3.332184    6.054417
    148          1           0        8.665750   -1.583714    6.180506
    149          1           0       10.199835   -3.491208    4.571098
    150          1           0       10.831768   -2.090331    5.510791
    151          1           0       10.058106   -1.873034    3.877223
    152          1           0        8.221276    3.969002    4.541036
    153          1           0        7.684631    2.400448    5.225022
    154          1           0        6.481353    3.441881    4.364912
    155          1           0        6.767684    4.546594   -0.635311
    156          1           0        8.994154    7.696844   -2.559283
    157          1           0        9.302560    6.240503   -3.702920
    158          1           0       10.286080    6.654617   -2.276932
 ---------------------------------------------------------------------

 SCF Done:  E(RCAM-B3LYP) =  -4069.81170444     A.U. after   19 cycles

 Excitation energies and oscillator strengths:

 Excited State   1:      Singlet-A      1.6706 eV  742.15 nm  f=0.0679  <S**2>=0.000
     309 -> 315       -0.10239
     310 -> 316        0.13899
     311 -> 313       -0.40569
     312 -> 314        0.55355
 This state for optimization and/or second-order correction.
 Total Energy, E(TD-HF/TD-DFT) =  -4069.75031067
 Copying the excited state density for this state as the 1-particle RhoCI density.

 Excited State   2:      Singlet-A      1.6843 eV  736.11 nm  f=0.6861  <S**2>=0.000
     309 -> 315        0.14245
     310 -> 316        0.10400
     311 -> 313        0.55281
     312 -> 314        0.40525

 Excited State   3:      Singlet-A      2.1856 eV  567.27 nm  f=0.0676  <S**2>=0.000
     309 -> 313       -0.12485
     310 -> 314        0.63041
     312 -> 316       -0.26771

 Excited State   4:      Singlet-A      2.1925 eV  565.50 nm  f=0.1275  <S**2>=0.000
     309 -> 313        0.62858
     310 -> 314        0.12393
     311 -> 315       -0.27294

 Excited State   5:      Singlet-A      2.7654 eV  448.34 nm  f=0.0000  <S**2>=0.000
     312 -> 313        0.70710

 The electronic state is 1-A.
 Alpha  occ. eigenvalues --  -46.87834 -46.87590 -19.26298 -19.26290 -19.19106
 Alpha  occ. eigenvalues --  -19.19030 -19.18864 -19.18653 -19.18194 -19.17977
 Alpha  occ. eigenvalues --  -14.42486 -14.42430 -14.41485 -14.41288 -14.39442
 Alpha  occ. eigenvalues --  -14.39283 -14.38622 -14.38527 -10.39091 -10.39034
 Alpha  occ. eigenvalues --  -10.35499 -10.35332 -10.34414 -10.34154 -10.31715
 Alpha  occ. eigenvalues --  -10.31674 -10.31438 -10.31240 -10.30961 -10.30946
 Alpha  occ. eigenvalues --  -10.30604 -10.30543 -10.30325 -10.30289 -10.30246
 Alpha  occ. eigenvalues --  -10.30071 -10.29954 -10.29819 -10.29668 -10.29367
 Alpha  occ. eigenvalues --  -10.29330 -10.29294 -10.28781 -10.28666 -10.28626
 Alpha  occ. eigenvalues --  -10.28568 -10.28401 -10.28336 -10.28150 -10.28085
 Alpha  occ. eigenvalues --  -10.27929 -10.27829 -10.27764 -10.27625 -10.27603
 Alpha  occ. eigenvalues --  -10.27536 -10.27534 -10.27482 -10.27443 -10.27437
 Alpha  occ. eigenvalues --  -10.27415 -10.27415 -10.27398 -10.27302 -10.27181
 Alpha  occ. eigenvalues --  -10.26981 -10.26739 -10.26651 -10.26476 -10.26365
 Alpha  occ. eigenvalues --  -10.26264 -10.26216 -10.26069 -10.26055 -10.25966
 Alpha  occ. eigenvalues --  -10.25870 -10.25861 -10.25754 -10.25465 -10.25318
 Alpha  occ. eigenvalues --  -10.24867 -10.24824 -10.24799 -10.24722 -10.24668
 Alpha  occ. eigenvalues --  -10.24619  -3.16576  -3.16340  -1.91458  -1.91222
 Alpha  occ. eigenvalues --   -1.91045  -1.90887  -1.90811  -1.90647  -1.16640
 Alpha  occ. eigenvalues --   -1.16591  -1.08650  -1.08584  -1.07266  -1.06906
 Alpha  occ. eigenvalues --   -1.06890  -1.06652  -1.04617  -1.04428  -1.03797
 Alpha  occ. eigenvalues --   -1.03593  -1.03270  -1.02967  -1.02447  -1.02040
 Alpha  occ. eigenvalues --   -0.92004  -0.91917  -0.89554  -0.89424  -0.89221
 Alpha  occ. eigenvalues --   -0.89095  -0.88321  -0.88149  -0.87903  -0.87714
 Alpha  occ. eigenvalues --   -0.87709  -0.87618  -0.87320  -0.87058  -0.85016
 Alpha  occ. eigenvalues --   -0.84942  -0.83968  -0.83806  -0.83016  -0.82871
 Alpha  occ. eigenvalues --   -0.82683  -0.82595  -0.81608  -0.81535  -0.80628
 Alpha  occ. eigenvalues --   -0.80380  -0.78839  -0.78568  -0.77253  -0.77082
 Alpha  occ. eigenvalues --   -0.76962  -0.76838  -0.75951  -0.75778  -0.74929
 Alpha  occ. eigenvalues --   -0.74733  -0.72809  -0.72627  -0.71705  -0.71513
 Alpha  occ. eigenvalues --   -0.69941  -0.69688  -0.68908  -0.68768  -0.67676
 Alpha  occ. eigenvalues --   -0.67535  -0.67258  -0.67147  -0.65318  -0.65213
 Alpha  occ. eigenvalues --   -0.64884  -0.64703  -0.64651  -0.64592  -0.64303
 Alpha  occ. eigenvalues --   -0.64134  -0.62316  -0.62218  -0.60484  -0.60274
 Alpha  occ. eigenvalues --   -0.59838  -0.59735  -0.59020  -0.58924  -0.58536
 Alpha  occ. eigenvalues --   -0.58358  -0.57608  -0.57487  -0.57342  -0.57168
 Alpha  occ. eigenvalues --   -0.56345  -0.56136  -0.55996  -0.55831  -0.55559
 Alpha  occ. eigenvalues --   -0.55391  -0.55366  -0.55179  -0.54547  -0.54424
 Alpha  occ. eigenvalues --   -0.53928  -0.53857  -0.53337  -0.53258  -0.53161
 Alpha  occ. eigenvalues --   -0.53082  -0.52943  -0.52842  -0.52800  -0.52612
 Alpha  occ. eigenvalues --   -0.52471  -0.52334  -0.51944  -0.51798  -0.51653
 Alpha  occ. eigenvalues --   -0.51603  -0.51225  -0.51134  -0.50626  -0.50418
 Alpha  occ. eigenvalues --   -0.50067  -0.49961  -0.49919  -0.49799  -0.49552
 Alpha  occ. eigenvalues --   -0.49428  -0.49248  -0.49139  -0.49127  -0.49040
 Alpha  occ. eigenvalues --   -0.48620  -0.48501  -0.48495  -0.48478  -0.48305
 Alpha  occ. eigenvalues --   -0.48278  -0.47730  -0.47534  -0.47333  -0.47054
 Alpha  occ. eigenvalues --   -0.46831  -0.46643  -0.46589  -0.46498  -0.46393
 Alpha  occ. eigenvalues --   -0.46202  -0.46191  -0.46014  -0.45845  -0.45753
 Alpha  occ. eigenvalues --   -0.45234  -0.45138  -0.44606  -0.44548  -0.44450
 Alpha  occ. eigenvalues --   -0.44415  -0.44180  -0.44122  -0.44064  -0.44052
 Alpha  occ. eigenvalues --   -0.44013  -0.43878  -0.43517  -0.43493  -0.43420
 Alpha  occ. eigenvalues --   -0.43322  -0.43059  -0.42871  -0.42833  -0.42723
 Alpha  occ. eigenvalues --   -0.42676  -0.42486  -0.42041  -0.41901  -0.41735
 Alpha  occ. eigenvalues --   -0.41601  -0.41567  -0.41401  -0.41174  -0.40924
 Alpha  occ. eigenvalues --   -0.40904  -0.40869  -0.40666  -0.40641  -0.40604
 Alpha  occ. eigenvalues --   -0.40425  -0.40270  -0.40180  -0.39475  -0.39357
 Alpha  occ. eigenvalues --   -0.38502  -0.38282  -0.37781  -0.37603  -0.37355
 Alpha  occ. eigenvalues --   -0.37297  -0.37198  -0.37138  -0.36731  -0.36714
 Alpha  occ. eigenvalues --   -0.36218  -0.36152  -0.34321  -0.34184  -0.33804
 Alpha  occ. eigenvalues --   -0.33786  -0.33220  -0.33106  -0.31393  -0.31212
 Alpha  occ. eigenvalues --   -0.31071  -0.30904  -0.30053  -0.29881  -0.29489
 Alpha  occ. eigenvalues --   -0.29356  -0.29259  -0.29137  -0.24116  -0.23965
 Alpha  occ. eigenvalues --   -0.21164  -0.21047
 Alpha virt. eigenvalues --   -0.08812  -0.08722  -0.01787  -0.01614  -0.00100
 Alpha virt. eigenvalues --    0.00036   0.02169   0.02281   0.03076   0.03289
 Alpha virt. eigenvalues --    0.04684   0.04792   0.05084   0.05223   0.06147

 Mulliken charges:
               1
     1  Mg   0.838536
     2  C   -0.002961
     3  C   -0.094246
     4  C   -0.045886
     5  C   -0.063960
     6  N   -0.256754
     7  C   -0.052445
     8  C   -0.013980
     9  C   -0.086974
    10  C    0.046261
    11  C    0.104812
    12  C    0.053511
    13  C   -0.071850
    14  H    0.036346
    15  N   -0.433103
    16  C    0.168327
    17  C   -0.177304
    18  C   -0.004132
    19  C    0.148649
    20  C    0.110209
    21  C    0.012149
    22  O   -0.249605
    23  C    0.062572
    24  N   -0.341134
    25  C    0.041205
    26  C   -0.028157
    27  C   -0.024024
    28  C    0.074904
    29  C    0.076145
    30  C    0.035114
    31  C   -0.004499
    32  N   -0.310512
    33  C    0.080494
    34  C   -0.169636
    35  C    0.008455
    36  C    0.083027
    37  C    0.127289
    38  C    0.046220
    39  O   -0.188097
    40  C   -0.005350
    41  C    0.212940
    42  O   -0.257043
    43  O   -0.304837
    44  C    0.157544
    45  H   -0.017652
    46  H   -0.016855
    47  H   -0.041401
    48  H    0.001083
    49  H   -0.004150
    50  H    0.025562
    51  H    0.016444
    52  H    0.016667
    53  H    0.010907
    54  H    0.044219
    55  H    0.018001
    56  H    0.017731
    57  H    0.005850
    58  H    0.026831
    59  H    0.039079
    60  H    0.037411
    61  H    0.035504
    62  H    0.031067
    63  H    0.016532
    64  H    0.009550
    65  H    0.023239
    66  H    0.012550
    67  H    0.004822
    68  H    0.006455
    69  H    0.004784
    70  H    0.008787
    71  H    0.018141
    72  H    0.028900
    73  H    0.047728
    74  H    0.009129
    75  H    0.046124
    76  H    0.035236
    77  H    0.043190
    78  H    0.046323
    79  H    0.053990
    80  Mg   0.837942
    81  C   -0.016813
    82  C   -0.087852
    83  C   -0.045417
    84  C   -0.064556
    85  N   -0.254527
    86  C   -0.049724
    87  C   -0.015093
    88  C   -0.090548
    89  C    0.045793
    90  C    0.114405
    91  C    0.062567
    92  C   -0.077717
    93  H    0.034679
    94  N   -0.423465
    95  C    0.162887
    96  C   -0.174712
    97  C   -0.007854
    98  C    0.152049
    99  C    0.099413
   100  C    0.015512
   101  O   -0.253241
   102  C    0.061238
   103  N   -0.349968
   104  C    0.037543
   105  C   -0.019874
   106  C   -0.034856
   107  C    0.088962
   108  C    0.073590
   109  C    0.034692
   110  C   -0.007640
   111  N   -0.324177
   112  C    0.078503
   113  C   -0.162835
   114  C    0.002412
   115  C    0.096238
   116  C    0.131431
   117  C    0.042628
   118  O   -0.187728
   119  C    0.000804
   120  C    0.211211
   121  O   -0.251120
   122  O   -0.305590
   123  C    0.152097
   124  H   -0.019958
   125  H   -0.015622
   126  H   -0.040223
   127  H   -0.000669
   128  H   -0.004671
   129  H    0.022855
   130  H    0.014699
   131  H    0.015703
   132  H    0.013857
   133  H    0.037684
   134  H    0.020644
   135  H    0.019390
   136  H    0.008511
   137  H    0.026040
   138  H    0.039569
   139  H    0.038207
   140  H    0.036269
   141  H    0.033760
   142  H    0.014246
   143  H    0.012788
   144  H    0.024933
   145  H    0.011830
   146  H    0.005929
   147  H    0.006200
   148  H    0.003768
   149  H    0.010832
   150  H    0.017841
   151  H    0.030068
   152  H    0.045897
   153  H    0.008517
   154  H    0.047812
   155  H    0.035353
   156  H    0.043839
   157  H    0.049296
   158  H    0.053517
 Sum of Mulliken charges =  -0.00000

 Dipole moment (field-independent basis, Debye):
    X=             -3.8652    Y=             -2.2613    Z=             -7.5051  Tot=              8.7396
 Quadrupole moment (field-independent basis, Debye-Ang):
   XX=           -517.7597   YY=           -545.1317   ZZ=           -453.8467
   XY=            -19.2200   XZ=              3.7629   YZ=            -42.3741

 Normal termination of Gaussian 16 at Sun Sep 12 05:14:44 2021.
