 Gaussian 16, Revision A.03,
 Gaussian 16:  ES64L-G16RevA.03 25-Dec-2016

 -----------------------------------
 #p cam-b3lyp/Def2SVP td=(nstates=5)
 -----------------------------------

 --------------------------------
 TDDFT excited states in gaussian
 --------------------------------
 Symbolic Z-matrix:
 Charge =  0 Multiplicity = 1

                         Standard orientation:
 ---------------------------------------------------------------------
 Center     Atomic      Atomic             Coordinates (Angstroms)
 Number     Number       Type             X           Y           Z
 ---------------------------------------------------------------------
      1         12           0       -3.831819    0.595531    0.709292
      2          6           0       -4.403648   -2.326328   -1.277656
      3          6           0       -4.129676   -1.399411    3.461482
      4          6           0       -3.782924    3.222740    2.484680
      5          6           0       -4.701546    2.486480   -2.085981
      6          7           0       -4.215931   -1.572993    0.934255
      7          6           0       -4.357149   -2.592276    0.092655
      8          6           0       -4.375370   -3.980034    0.800588
      9          6           0       -4.853003   -3.517191    2.249601
     10          6           0       -4.338720   -2.088536    2.230044
     11          6           0       -6.369416   -3.491173    2.411824
     12          6           0       -2.956933   -4.641412    0.849039
     13          6           0       -2.940620   -6.125738    1.225689
     14          1           0       -1.958441   -6.996746    0.597980
     15          7           0       -3.459664    0.833884    2.634789
     16          6           0       -3.622114   -0.090697    3.611541
     17          6           0       -3.210278    0.568642    4.869454
     18          6           0       -2.975840    2.009124    4.572564
     19          6           0       -3.427896    2.085854    3.206865
     20          6           0       -3.029872   -0.165635    6.162528
     21          6           0       -2.440679    3.139689    5.393270
     22          8           0       -2.536718    4.357952    5.017525
     23          6           0       -1.872654    2.786498    6.706908
     24          7           0       -4.399977    2.569928    0.339715
     25          6           0       -4.219450    3.523697    1.259888
     26          6           0       -4.432337    4.890141    0.678984
     27          6           0       -4.559815    4.684548   -0.899380
     28          6           0       -4.474441    3.138903   -0.943687
     29          6           0       -5.660278    5.652899    1.195098
     30          6           0       -3.595973    5.502466   -1.795169
     31          6           0       -2.175456    5.026236   -1.589170
     32          7           0       -4.275223    0.194339   -1.377208
     33          6           0       -4.634437    1.130224   -2.357902
     34          6           0       -4.941184    0.373367   -3.585559
     35          6           0       -4.753913   -0.960050   -3.226707
     36          6           0       -4.380897   -1.033263   -1.854194
     37          6           0       -5.391696    0.928106   -4.815899
     38          6           0       -4.806082   -2.341550   -3.676809
     39          8           0       -4.971412   -2.893110   -4.765818
     40          6           0       -4.699987   -3.288556   -2.400975
     41          6           0       -3.677870   -4.349435   -2.706133
     42          8           0       -2.473192   -4.055554   -2.846673
     43          8           0       -4.234016   -5.560580   -2.550021
     44          6           0       -3.264787   -6.658607   -2.809028
     45          1           0       -4.436070   -1.878866    4.393247
     46          1           0       -3.672371    4.162110    3.030390
     47          1           0       -4.897907    3.014278   -3.021034
     48          1           0       -5.086922   -4.693326    0.384255
     49          1           0       -4.363381   -4.085393    3.040259
     50          1           0       -6.874733   -3.671299    1.463072
     51          1           0       -6.605105   -2.494513    2.785472
     52          1           0       -6.687749   -4.185793    3.189605
     53          1           0       -2.397333   -4.230610    1.689367
     54          1           0       -2.434676   -4.504125   -0.098445
     55          1           0       -3.936794   -6.564328    1.161001
     56          1           0       -2.676510   -6.207668    2.280076
     57          1           0       -3.434944   -1.175416    6.109571
     58          1           0       -3.650570    0.337502    6.903673
     59          1           0       -1.990924   -0.166357    6.492555
     60          1           0       -2.636453    2.293152    7.308381
     61          1           0       -1.458862    3.708681    7.113362
     62          1           0       -1.076676    2.055416    6.562384
     63          1           0       -3.583459    5.540148    0.887128
     64          1           0       -5.551974    4.947173   -1.267243
     65          1           0       -5.421780    6.624020    1.629547
     66          1           0       -6.173294    5.017230    1.916229
     67          1           0       -6.442513    5.814897    0.453963
     68          1           0       -3.624224    6.556065   -1.519349
     69          1           0       -3.830842    5.431266   -2.857250
     70          1           0       -1.861357    5.574098   -0.701465
     71          1           0       -1.557858    5.288649   -2.448776
     72          1           0       -2.143075    3.964229   -1.345082
     73          1           0       -4.832644    0.420816   -5.602083
     74          1           0       -5.230366    2.005417   -4.847152
     75          1           0       -6.448778    0.665024   -4.780967
     76          1           0       -5.691795   -3.709891   -2.239990
     77          1           0       -3.699762   -7.295666   -3.579215
     78          1           0       -3.044486   -7.111900   -1.842386
     79          1           0       -2.326746   -6.371195   -3.285277
     80         12           0        3.950876    0.713167   -0.883556
     81          6           0        4.156857   -2.384429    0.916889
     82          6           0        3.652641    2.274931    2.134151
     83          6           0        3.316264    3.399443   -2.448346
     84          6           0        3.123903   -1.146487   -3.712601
     85          7           0        3.922987   -0.062559    1.187619
     86          6           0        4.071063   -1.251386    1.752525
     87          6           0        4.211181   -1.216121    3.298061
     88          6           0        3.471502    0.182171    3.574727
     89          6           0        3.723673    0.862228    2.230628
     90          6           0        1.970346    0.041646    3.764731
     91          6           0        5.709663   -1.174842    3.761590
     92          6           0        5.930012   -1.450153    5.250678
     93          1           0        7.128081   -2.181492    5.653461
     94          7           0        4.030723    2.601504   -0.278291
     95          6           0        3.913723    3.056087    0.986996
     96          6           0        4.021682    4.520651    0.899919
     97          6           0        4.046822    4.904486   -0.537699
     98          6           0        3.771961    3.623655   -1.157366
     99          6           0        4.169553    5.398943    2.108291
    100          6           0        4.267424    6.210881   -1.238327
    101          8           0        4.009716    6.358163   -2.485211
    102          6           0        4.705294    7.337736   -0.401700
    103          7           0        3.107659    1.094943   -2.745154
    104          6           0        2.994016    2.352280   -3.207894
    105          6           0        2.617194    2.363395   -4.670175
    106          6           0        2.738302    0.844743   -5.156595
    107          6           0        3.093364    0.175477   -3.810715
    108          6           0        1.219383    2.890967   -4.992937
    109          6           0        3.651214    0.569134   -6.382700
    110          6           0        5.094917    0.834588   -6.021255
    111          7           0        3.861248   -1.384142   -1.394753
    112          6           0        3.465098   -1.945179   -2.628603
    113          6           0        3.456713   -3.412466   -2.456999
    114          6           0        3.829258   -3.603894   -1.117953
    115          6           0        4.034352   -2.344132   -0.493117
    116          6           0        3.087991   -4.363974   -3.449355
    117          6           0        4.085323   -4.584898   -0.088010
    118          8           0        4.153139   -5.812941   -0.055605
    119          6           0        4.185925   -3.835368    1.310010
    120          6           0        5.409092   -4.343797    2.022674
    121          8           0        6.544412   -4.123068    1.565572
    122          8           0        5.051090   -4.814777    3.231132
    123          6           0        6.231970   -5.320308    3.980655
    124          1           0        3.325138    2.838822    3.008023
    125          1           0        3.188385    4.292171   -3.064919
    126          1           0        2.972237   -1.799497   -4.574722
    127          1           0        3.699804   -2.016711    3.818924
    128          1           0        3.955164    0.732836    4.377349
    129          1           0        1.631264   -0.963856    3.564415
    130          1           0        1.519435    0.738374    3.070259
    131          1           0        1.683170    0.383096    4.763364
    132          1           0        6.073341   -0.140734    3.705884
    133          1           0        6.307816   -1.846894    3.177480
    134          1           0        5.039809   -1.878950    5.726720
    135          1           0        6.074072   -0.495515    5.762476
    136          1           0        3.951239    4.850818    3.033111
    137          1           0        3.382021    6.158068    2.050126
    138          1           0        5.139734    5.898644    2.149628
    139          1           0        3.970086    7.514372    0.379791
    140          1           0        4.895440    8.159621   -1.094682
    141          1           0        5.638024    7.058539    0.100975
    142          1           0        3.306634    2.971782   -5.242584
    143          1           0        1.764203    0.436246   -5.463361
    144          1           0        1.226391    3.740467   -5.701719
    145          1           0        0.738592    3.173280   -4.065756
    146          1           0        0.528595    2.152236   -5.395791
    147          1           0        3.405046    1.252285   -7.199314
    148          1           0        3.561854   -0.440527   -6.769461
    149          1           0        5.186511    1.917221   -6.150080
    150          1           0        5.762700    0.299252   -6.693208
    151          1           0        5.283606    0.611214   -4.964780
    152          1           0        3.815760   -5.163003   -3.400215
    153          1           0        3.056725   -3.914000   -4.439468
    154          1           0        2.092397   -4.641588   -3.093016
    155          1           0        3.270875   -4.049968    1.863373
    156          1           0        6.014714   -6.356426    4.258052
    157          1           0        6.392469   -4.601041    4.805665
    158          1           0        7.160040   -5.437983    3.433581
 ---------------------------------------------------------------------

 SCF Done:  E(RCAM-B3LYP) =  -4069.81247532     A.U. after   19 cycles

 Excitation energies and oscillator strengths:

 Excited State   1:      Singlet-A      1.6544 eV  749.43 nm  f=0.1925  <S**2>=0.000
     309 -> 315        0.11700
     310 -> 316       -0.12053
     311 -> 313       -0.47715
     312 -> 314        0.49375
 This state for optimization and/or second-order correction.
 Total Energy, E(TD-HF/TD-DFT) =  -4069.75167800
 Copying the excited state density for this state as the 1-particle RhoCI density.

 Excited State   2:      Singlet-A      1.6872 eV  734.85 nm  f=0.4544  <S**2>=0.000
     309 -> 315       -0.12672
     310 -> 316       -0.12343
     311 -> 313        0.49224
     312 -> 314        0.47607

 Excited State   3:      Singlet-A      2.1842 eV  567.63 nm  f=0.0695  <S**2>=0.000
     309 -> 313       -0.30046
     310 -> 314        0.56840
     311 -> 315       -0.12541
     312 -> 316        0.24089

 Excited State   4:      Singlet-A      2.1897 eV  566.22 nm  f=0.1242  <S**2>=0.000
     309 -> 313        0.56661
     310 -> 314        0.29832
     311 -> 315        0.24447
     312 -> 316        0.13006

 Excited State   5:      Singlet-A      2.2343 eV  554.92 nm  f=0.0000  <S**2>=0.000
     312 -> 313        0.70701

 The electronic state is 1-A.
 Alpha  occ. eigenvalues --  -46.87914 -46.87417 -19.26323 -19.26304 -19.19102
 Alpha  occ. eigenvalues --  -19.19076 -19.19061 -19.18503 -19.18304 -19.17863
 Alpha  occ. eigenvalues --  -14.42557 -14.42272 -14.41559 -14.41102 -14.39538
 Alpha  occ. eigenvalues --  -14.39110 -14.38707 -14.38341 -10.39158 -10.39000
 Alpha  occ. eigenvalues --  -10.35701 -10.35183 -10.34517 -10.34044 -10.31752
 Alpha  occ. eigenvalues --  -10.31661 -10.31500 -10.31085 -10.31020 -10.30839
 Alpha  occ. eigenvalues --  -10.30689 -10.30642 -10.30330 -10.30131 -10.30091
 Alpha  occ. eigenvalues --  -10.30028 -10.29861 -10.29780 -10.29621 -10.29402
 Alpha  occ. eigenvalues --  -10.29169 -10.29129 -10.28783 -10.28649 -10.28629
 Alpha  occ. eigenvalues --  -10.28498 -10.28409 -10.28179 -10.28170 -10.28046
 Alpha  occ. eigenvalues --  -10.27940 -10.27841 -10.27749 -10.27744 -10.27684
 Alpha  occ. eigenvalues --  -10.27568 -10.27534 -10.27516 -10.27429 -10.27260
 Alpha  occ. eigenvalues --  -10.27257 -10.27206 -10.27197 -10.27191 -10.27109
 Alpha  occ. eigenvalues --  -10.26903 -10.26757 -10.26676 -10.26626 -10.26287
 Alpha  occ. eigenvalues --  -10.26229 -10.26186 -10.26133 -10.26015 -10.25991
 Alpha  occ. eigenvalues --  -10.25839 -10.25626 -10.25524 -10.25392 -10.25158
 Alpha  occ. eigenvalues --  -10.24976 -10.24912 -10.24626 -10.24608 -10.24477
 Alpha  occ. eigenvalues --  -10.24449  -3.16656  -3.16167  -1.91537  -1.91123
 Alpha  occ. eigenvalues --   -1.91049  -1.90966  -1.90638  -1.90474  -1.16680
 Alpha  occ. eigenvalues --   -1.16588  -1.08757  -1.08482  -1.07468  -1.06861
 Alpha  occ. eigenvalues --   -1.06760  -1.06718  -1.04690  -1.04278  -1.03874
 Alpha  occ. eigenvalues --   -1.03419  -1.03362  -1.02775  -1.02533  -1.01857
 Alpha  occ. eigenvalues --   -0.92086  -0.91771  -0.89604  -0.89235  -0.89230
 Alpha  occ. eigenvalues --   -0.89032  -0.88369  -0.88008  -0.87957  -0.87769
 Alpha  occ. eigenvalues --   -0.87503  -0.87468  -0.87428  -0.86872  -0.85046
 Alpha  occ. eigenvalues --   -0.84850  -0.84003  -0.83626  -0.83182  -0.82729
 Alpha  occ. eigenvalues --   -0.82705  -0.82493  -0.81658  -0.81431  -0.80702
 Alpha  occ. eigenvalues --   -0.80249  -0.78961  -0.78370  -0.77303  -0.76977
 Alpha  occ. eigenvalues --   -0.76957  -0.76725  -0.75994  -0.75677  -0.74979
 Alpha  occ. eigenvalues --   -0.74574  -0.72891  -0.72433  -0.71770  -0.71376
 Alpha  occ. eigenvalues --   -0.69948  -0.69493  -0.68960  -0.68664  -0.67775
 Alpha  occ. eigenvalues --   -0.67384  -0.67284  -0.67048  -0.65346  -0.65125
 Alpha  occ. eigenvalues --   -0.64949  -0.64697  -0.64548  -0.64471  -0.64350
 Alpha  occ. eigenvalues --   -0.63950  -0.62364  -0.62122  -0.60605  -0.60092
 Alpha  occ. eigenvalues --   -0.59884  -0.59635  -0.59093  -0.58760  -0.58615
 Alpha  occ. eigenvalues --   -0.58207  -0.57687  -0.57422  -0.57386  -0.56996
 Alpha  occ. eigenvalues --   -0.56447  -0.56032  -0.55969  -0.55754  -0.55674
 Alpha  occ. eigenvalues --   -0.55412  -0.55262  -0.55027  -0.54586  -0.54293
 Alpha  occ. eigenvalues --   -0.53946  -0.53800  -0.53460  -0.53330  -0.53034
 Alpha  occ. eigenvalues --   -0.52997  -0.52960  -0.52893  -0.52738  -0.52475
 Alpha  occ. eigenvalues --   -0.52474  -0.52139  -0.52053  -0.51706  -0.51525
 Alpha  occ. eigenvalues --   -0.51488  -0.51282  -0.50989  -0.50802  -0.50251
 Alpha  occ. eigenvalues --   -0.50117  -0.50081  -0.49807  -0.49628  -0.49617
 Alpha  occ. eigenvalues --   -0.49348  -0.49303  -0.49164  -0.49035  -0.48918
 Alpha  occ. eigenvalues --   -0.48688  -0.48642  -0.48544  -0.48385  -0.48157
 Alpha  occ. eigenvalues --   -0.48115  -0.47801  -0.47424  -0.47399  -0.46889
 Alpha  occ. eigenvalues --   -0.46884  -0.46611  -0.46502  -0.46470  -0.46390
 Alpha  occ. eigenvalues --   -0.46261  -0.46018  -0.45909  -0.45830  -0.45611
 Alpha  occ. eigenvalues --   -0.45290  -0.44981  -0.44706  -0.44622  -0.44375
 Alpha  occ. eigenvalues --   -0.44264  -0.44245  -0.44149  -0.44137  -0.43954
 Alpha  occ. eigenvalues --   -0.43852  -0.43745  -0.43583  -0.43457  -0.43399
 Alpha  occ. eigenvalues --   -0.43204  -0.43129  -0.42792  -0.42768  -0.42699
 Alpha  occ. eigenvalues --   -0.42684  -0.42304  -0.42058  -0.41813  -0.41761
 Alpha  occ. eigenvalues --   -0.41581  -0.41474  -0.41291  -0.41235  -0.41038
 Alpha  occ. eigenvalues --   -0.40898  -0.40812  -0.40637  -0.40559  -0.40538
 Alpha  occ. eigenvalues --   -0.40249  -0.40239  -0.40123  -0.39463  -0.39150
 Alpha  occ. eigenvalues --   -0.38532  -0.38121  -0.37774  -0.37540  -0.37405
 Alpha  occ. eigenvalues --   -0.37312  -0.37027  -0.36998  -0.36780  -0.36661
 Alpha  occ. eigenvalues --   -0.36265  -0.36001  -0.34400  -0.34018  -0.33862
 Alpha  occ. eigenvalues --   -0.33745  -0.33306  -0.32922  -0.31585  -0.31152
 Alpha  occ. eigenvalues --   -0.31064  -0.30744  -0.30157  -0.29773  -0.29614
 Alpha  occ. eigenvalues --   -0.29463  -0.29075  -0.28938  -0.24196  -0.23786
 Alpha  occ. eigenvalues --   -0.21251  -0.20863
 Alpha virt. eigenvalues --   -0.08915  -0.08536  -0.01878  -0.01436  -0.00234
 Alpha virt. eigenvalues --    0.00185   0.02061   0.02358   0.02574   0.03585
 Alpha virt. eigenvalues --    0.04655   0.04897   0.05019   0.05270   0.06175

 Mulliken charges:
               1
     1  Mg   0.838949
     2  C   -0.002666
     3  C   -0.094280
     4  C   -0.045977
     5  C   -0.064127
     6  N   -0.256921
     7  C   -0.051751
     8  C   -0.014119
     9  C   -0.086917
    10  C    0.046406
    11  C    0.104795
    12  C    0.053659
    13  C   -0.073735
    14  H    0.041427
    15  N   -0.433114
    16  C    0.168066
    17  C   -0.177571
    18  C   -0.005303
    19  C    0.148612
    20  C    0.110038
    21  C    0.010436
    22  O   -0.250147
    23  C    0.063080
    24  N   -0.341429
    25  C    0.041655
    26  C   -0.028013
    27  C   -0.024160
    28  C    0.075814
    29  C    0.076169
    30  C    0.034779
    31  C   -0.006366
    32  N   -0.310613
    33  C    0.080920
    34  C   -0.170481
    35  C    0.008198
    36  C    0.083386
    37  C    0.127408
    38  C    0.045690
    39  O   -0.188317
    40  C   -0.005188
    41  C    0.213108
    42  O   -0.258125
    43  O   -0.304631
    44  C    0.157653
    45  H   -0.017482
    46  H   -0.017362
    47  H   -0.041209
    48  H    0.001230
    49  H   -0.003644
    50  H    0.025545
    51  H    0.016139
    52  H    0.016994
    53  H    0.010579
    54  H    0.044447
    55  H    0.017248
    56  H    0.018070
    57  H    0.006611
    58  H    0.026999
    59  H    0.037348
    60  H    0.038621
    61  H    0.034517
    62  H    0.028243
    63  H    0.016244
    64  H    0.009558
    65  H    0.023013
    66  H    0.012393
    67  H    0.005062
    68  H    0.006717
    69  H    0.004553
    70  H    0.008420
    71  H    0.023655
    72  H    0.028513
    73  H    0.046694
    74  H    0.009411
    75  H    0.046589
    76  H    0.035596
    77  H    0.043119
    78  H    0.048019
    79  H    0.053226
    80  Mg   0.837369
    81  C   -0.017181
    82  C   -0.088040
    83  C   -0.045237
    84  C   -0.059060
    85  N   -0.254498
    86  C   -0.050211
    87  C   -0.014853
    88  C   -0.091062
    89  C    0.044972
    90  C    0.114390
    91  C    0.062796
    92  C   -0.077363
    93  H    0.034509
    94  N   -0.423466
    95  C    0.162022
    96  C   -0.174182
    97  C   -0.008333
    98  C    0.151903
    99  C    0.099361
   100  C    0.015088
   101  O   -0.254312
   102  C    0.061284
   103  N   -0.349915
   104  C    0.037300
   105  C   -0.020446
   106  C   -0.035705
   107  C    0.088581
   108  C    0.072583
   109  C    0.034542
   110  C   -0.007510
   111  N   -0.324767
   112  C    0.078179
   113  C   -0.158586
   114  C    0.001675
   115  C    0.096847
   116  C    0.130400
   117  C    0.042638
   118  O   -0.189603
   119  C    0.000792
   120  C    0.210981
   121  O   -0.250901
   122  O   -0.306268
   123  C    0.152171
   124  H   -0.019283
   125  H   -0.016603
   126  H   -0.037566
   127  H   -0.002628
   128  H   -0.005180
   129  H    0.021788
   130  H    0.018559
   131  H    0.010886
   132  H    0.014338
   133  H    0.037796
   134  H    0.019103
   135  H    0.019374
   136  H    0.008826
   137  H    0.027297
   138  H    0.038697
   139  H    0.038504
   140  H    0.035481
   141  H    0.033691
   142  H    0.013589
   143  H    0.017237
   144  H    0.022998
   145  H    0.011531
   146  H    0.008234
   147  H    0.005766
   148  H    0.004878
   149  H    0.010215
   150  H    0.017426
   151  H    0.029796
   152  H    0.043355
   153  H    0.008973
   154  H    0.055061
   155  H    0.033290
   156  H    0.042986
   157  H    0.049013
   158  H    0.053714
 Sum of Mulliken charges =  -0.00000

 Dipole moment (field-independent basis, Debye):
    X=             -2.8663    Y=              1.6869    Z=              6.5903  Tot=              7.3820
 Quadrupole moment (field-independent basis, Debye-Ang):
   XX=           -519.5610   YY=           -520.5848   ZZ=           -479.0981
   XY=             17.2165   XZ=              2.4120   YZ=            -20.8865

 Normal termination of Gaussian 16 at Thu Sep  9 02:55:36 2021.
