 Gaussian 16, Revision A.03,
 Gaussian 16:  ES64L-G16RevA.03 25-Dec-2016

 -----------------------------------
 #p cam-b3lyp/Def2SVP td=(nstates=5)
 -----------------------------------

 --------------------------------
 TDDFT excited states in gaussian
 --------------------------------
 Symbolic Z-matrix:
 Charge =  0 Multiplicity = 1

                         Standard orientation:
 ---------------------------------------------------------------------
 Center     Atomic      Atomic             Coordinates (Angstroms)
 Number     Number       Type             X           Y           Z
 ---------------------------------------------------------------------
      1         12           0        7.824107   -0.782678    0.390896
      2          6           0        8.228343    1.826468   -2.025955
      3          6           0        8.941462    1.424522    2.740970
      4          6           0        7.908733   -3.189562    2.453992
      5          6           0        7.838544   -3.041501   -2.263002
      6          7           0        8.470220    1.330134    0.252302
      7          6           0        8.521167    2.232853   -0.722210
      8          6           0        8.842005    3.670984   -0.216031
      9          6           0        9.585323    3.298991    1.144519
     10          6           0        8.935799    1.953532    1.416150
     11          6           0       11.088112    3.095001    0.981687
     12          6           0        7.547215    4.510462    0.049539
     13          6           0        7.769476    6.014928    0.229913
     14          1           0        6.765577    6.937115   -0.279114
     15          7           0        7.875434   -0.776105    2.365781
     16          6           0        8.349222    0.213620    3.160297
     17          6           0        8.167535   -0.257304    4.550226
     18          6           0        7.724996   -1.678292    4.495024
     19          6           0        7.845483   -1.949592    3.085323
     20          6           0        8.361348    0.620543    5.748379
     21          6           0        7.276315   -2.642335    5.547373
     22          8           0        7.158850   -3.894449    5.317181
     23          6           0        7.060154   -2.088637    6.896348
     24          7           0        8.087513   -2.840775    0.161793
     25          6           0        8.023038   -3.665897    1.212507
     26          6           0        7.957013   -5.099871    0.777421
     27          6           0        7.743993   -5.072388   -0.804863
     28          6           0        7.810289   -3.540962   -1.025340
     29          6           0        9.184793   -5.958047    1.112234
     30          6           0        6.523344   -5.845849   -1.363604
     31          6           0        5.243189   -5.172900   -0.921515
     32          7           0        7.822060   -0.653959   -1.775777
     33          6           0        7.851471   -1.722198   -2.683892
     34          6           0        7.948263   -1.138525   -4.034457
     35          6           0        7.985384    0.237208   -3.815765
     36          6           0        7.942632    0.495579   -2.415869
     37          6           0        8.048745   -1.867595   -5.252157
     38          6           0        8.076060    1.548156   -4.437897
     39          8           0        8.046179    1.961403   -5.597995
     40          6           0        8.359827    2.624605   -3.299231
     41          6           0        7.409867    3.771736   -3.511314
     42          8           0        6.181007    3.622281   -3.353420
     43          8           0        8.108500    4.910981   -3.632032
     44          6           0        7.224045    6.092622   -3.815386
     45          1           0        9.498675    1.952077    3.517592
     46          1           0        7.828663   -4.047181    3.125198
     47          1           0        7.762551   -3.681620   -3.143868
     48          1           0        9.510223    4.241436   -0.861394
     49          1           0        9.348718    4.002074    1.942902
     50          1           0       11.381088    3.112277   -0.067974
     51          1           0       11.298510    2.119082    1.419646
     52          1           0       11.644135    3.817795    1.579338
     53          1           0        7.153363    4.261648    1.034949
     54          1           0        6.812573    4.346616   -0.739626
     55          1           0        8.764778    6.313246   -0.100675
     56          1           0        7.761017    6.235873    1.297299
     57          1           0        8.845569    1.559456    5.482830
     58          1           0        9.078689    0.119126    6.397772
     59          1           0        7.429939    0.787868    6.289499
     60          1           0        7.986970   -1.639364    7.253720
     61          1           0        6.656598   -2.904399    7.495117
     62          1           0        6.331687   -1.279732    6.833440
     63          1           0        7.115127   -5.611229    1.242358
     64          1           0        8.594565   -5.495911   -1.339492
     65          1           0        8.952326   -6.841775    1.706952
     66          1           0        9.910473   -5.324113    1.620967
     67          1           0        9.757820   -6.292944    0.248000
     68          1           0        6.504804   -6.861171   -0.968984
     69          1           0        6.517494   -5.912738   -2.451603
     70          1           0        5.083749   -5.583680    0.074814
     71          1           0        4.423244   -5.439105   -1.589374
     72          1           0        5.376400   -4.096383   -0.812650
     73          1           0        7.381332   -1.374532   -5.958852
     74          1           0        7.774569   -2.912906   -5.111600
     75          1           0        9.107555   -1.740218   -5.476994
     76          1           0        9.400260    2.929191   -3.408078
     77          1           0        7.536365    6.587722   -4.734932
     78          1           0        7.276343    6.665490   -2.889378
     79          1           0        6.178030    5.881504   -4.040379
     80         12           0       -7.990426    0.665853    0.630129
     81          6           0       -8.072483   -2.108716   -1.644540
     82          6           0       -6.974146    2.594208   -1.993457
     83          6           0       -7.474587    3.022686    2.690867
     84          6           0       -7.893148   -1.649783    3.232845
     85          7           0       -7.609323    0.189638   -1.495952
     86          6           0       -7.733437   -0.885484   -2.259516
     87          6           0       -7.558467   -0.619119   -3.778729
     88          6           0       -6.671925    0.716806   -3.688082
     89          6           0       -7.134126    1.224784   -2.323898
     90          6           0       -5.178667    0.444362   -3.615447
     91          6           0       -8.926133   -0.353033   -4.500321
     92          6           0       -8.864963   -0.391683   -6.028890
     93          1           0      -10.011464   -0.926784   -6.758049
     94          7           0       -7.800476    2.617981    0.327338
     95          6           0       -7.397811    3.230267   -0.805908
     96          6           0       -7.406742    4.671213   -0.509653
     97          6           0       -7.688947    4.850207    0.940537
     98          6           0       -7.644036    3.473150    1.389744
     99          6           0       -7.241191    5.720960   -1.569861
    100          6           0       -7.942907    6.061520    1.785772
    101          8           0       -7.929108    6.004094    3.066145
    102          6           0       -8.115614    7.334879    1.071470
    103          7           0       -7.509456    0.690382    2.652610
    104          6           0       -7.393199    1.850959    3.321535
    105          6           0       -7.316726    1.616559    4.811372
    106          6           0       -7.650411    0.066510    5.020094
    107          6           0       -7.780104   -0.365563    3.542972
    108          6           0       -5.974986    1.940917    5.467816
    109          6           0       -8.808705   -0.278880    5.995677
    110          6           0      -10.125841    0.187684    5.418756
    111          7           0       -8.168255   -1.479822    0.810446
    112          6           0       -8.071730   -2.247446    1.991760
    113          6           0       -8.143358   -3.668559    1.594603
    114          6           0       -8.254313   -3.629389    0.196516
    115          6           0       -8.231686   -2.279823   -0.248071
    116          6           0       -8.055701   -4.783748    2.474815
    117          6           0       -8.374750   -4.423203   -1.005173
    118          8           0       -8.530036   -5.620176   -1.243649
    119          6           0       -8.135122   -3.478681   -2.260890
    120          6           0       -9.226816   -3.748237   -3.259916
    121          8           0      -10.409936   -3.473464   -2.992816
    122          8           0       -8.672120   -4.080774   -4.439784
    123          6           0       -9.714920   -4.346839   -5.466239
    124          1           0       -6.435655    3.236687   -2.690685
    125          1           0       -7.403546    3.801287    3.453902
    126          1           0       -7.968220   -2.429643    3.993673
    127          1           0       -7.017107   -1.388910   -4.315490
    128          1           0       -6.940969    1.423156   -4.469143
    129          1           0       -4.965764   -0.609775   -3.517344
    130          1           0       -4.822943    0.984526   -2.747836
    131          1           0       -4.671904    0.889694   -4.476376
    132          1           0       -9.212034    0.696004   -4.350197
    133          1           0       -9.679437   -1.032371   -4.151532
    134          1           0       -7.933641   -0.842362   -6.392871
    135          1           0       -8.829061    0.635152   -6.400820
    136          1           0       -6.885641    5.287692   -2.512873
    137          1           0       -6.424585    6.375685   -1.246826
    138          1           0       -8.141629    6.322523   -1.711232
    139          1           0       -7.227503    7.539547    0.478319
    140          1           0       -8.375981    8.067086    1.838247
    141          1           0       -8.947800    7.230407    0.366378
    142          1           0       -8.057251    2.208997    5.334573
    143          1           0       -6.792135   -0.482904    5.434017
    144          1           0       -6.057494    2.678490    6.288336
    145          1           0       -5.298004    2.297287    4.702804
    146          1           0       -5.438309    1.083319    5.869955
    147          1           0       -8.678443    0.252719    6.941498
    148          1           0       -8.877311   -1.336500    6.227478
    149          1           0      -10.156860    1.245097    5.698066
    150          1           0      -10.954095   -0.361931    5.861425
    151          1           0      -10.116232    0.136119    4.323814
    152          1           0       -8.818836   -5.485413    2.165321
    153          1           0       -8.188165   -4.482974    3.512003
    154          1           0       -7.033624   -5.113679    2.270429
    155          1           0       -7.147421   -3.710339   -2.661326
    156          1           0       -9.527846   -5.351093   -5.858884
    157          1           0       -9.650747   -3.506015   -6.182229
    158          1           0      -10.739925   -4.439966   -5.126933
 ---------------------------------------------------------------------

 SCF Done:  E(RCAM-B3LYP) =  -4069.81191125     A.U. after   19 cycles

 Excitation energies and oscillator strengths:

 Excited State   1:      Singlet-A      1.6750 eV  740.21 nm  f=0.3575  <S**2>=0.000
     310 -> 316        0.16810
     311 -> 313        0.16490
     312 -> 314        0.66592
     310 <- 316        0.10136
 This state for optimization and/or second-order correction.
 Total Energy, E(TD-HF/TD-DFT) =  -4069.75035644
 Copying the excited state density for this state as the 1-particle RhoCI density.

 Excited State   2:      Singlet-A      1.6799 eV  738.06 nm  f=0.3914  <S**2>=0.000
     309 -> 315        0.17045
     311 -> 313        0.66557
     312 -> 314       -0.16490
     309 <- 315        0.10210

 Excited State   3:      Singlet-A      2.1858 eV  567.22 nm  f=0.1017  <S**2>=0.000
     310 -> 314        0.64254
     312 -> 316       -0.27266

 Excited State   4:      Singlet-A      2.1927 eV  565.44 nm  f=0.0979  <S**2>=0.000
     309 -> 313        0.64071
     311 -> 315       -0.27833

 Excited State   5:      Singlet-A      2.7632 eV  448.70 nm  f=0.0000  <S**2>=0.000
     312 -> 313        0.70710

 The electronic state is 1-A.
 Alpha  occ. eigenvalues --  -46.87839 -46.87587 -19.26366 -19.26276 -19.19102
 Alpha  occ. eigenvalues --  -19.19089 -19.18849 -19.18658 -19.18227 -19.17981
 Alpha  occ. eigenvalues --  -14.42493 -14.42417 -14.41489 -14.41289 -14.39445
 Alpha  occ. eigenvalues --  -14.39279 -14.38632 -14.38527 -10.39158 -10.39018
 Alpha  occ. eigenvalues --  -10.35481 -10.35336 -10.34448 -10.34158 -10.31771
 Alpha  occ. eigenvalues --  -10.31685 -10.31452 -10.31223 -10.30953 -10.30941
 Alpha  occ. eigenvalues --  -10.30616 -10.30550 -10.30330 -10.30285 -10.30241
 Alpha  occ. eigenvalues --  -10.30075 -10.29960 -10.29831 -10.29674 -10.29365
 Alpha  occ. eigenvalues --  -10.29332 -10.29294 -10.28799 -10.28619 -10.28599
 Alpha  occ. eigenvalues --  -10.28558 -10.28410 -10.28330 -10.28163 -10.28026
 Alpha  occ. eigenvalues --  -10.27929 -10.27838 -10.27769 -10.27626 -10.27584
 Alpha  occ. eigenvalues --  -10.27526 -10.27516 -10.27475 -10.27469 -10.27450
 Alpha  occ. eigenvalues --  -10.27408 -10.27397 -10.27385 -10.27330 -10.27218
 Alpha  occ. eigenvalues --  -10.26975 -10.26763 -10.26600 -10.26439 -10.26364
 Alpha  occ. eigenvalues --  -10.26276 -10.26201 -10.26100 -10.26058 -10.25894
 Alpha  occ. eigenvalues --  -10.25872 -10.25866 -10.25789 -10.25455 -10.25364
 Alpha  occ. eigenvalues --  -10.24880 -10.24827 -10.24801 -10.24704 -10.24694
 Alpha  occ. eigenvalues --  -10.24623  -3.16582  -3.16337  -1.91464  -1.91219
 Alpha  occ. eigenvalues --   -1.91050  -1.90893  -1.90808  -1.90644  -1.16714
 Alpha  occ. eigenvalues --   -1.16570  -1.08688  -1.08589  -1.07249  -1.06911
 Alpha  occ. eigenvalues --   -1.06874  -1.06724  -1.04625  -1.04415  -1.03801
 Alpha  occ. eigenvalues --   -1.03590  -1.03276  -1.02969  -1.02453  -1.02040
 Alpha  occ. eigenvalues --   -0.92021  -0.91912  -0.89554  -0.89434  -0.89236
 Alpha  occ. eigenvalues --   -0.89049  -0.88319  -0.88165  -0.87917  -0.87724
 Alpha  occ. eigenvalues --   -0.87716  -0.87605  -0.87312  -0.87052  -0.85029
 Alpha  occ. eigenvalues --   -0.84911  -0.83969  -0.83825  -0.83000  -0.82873
 Alpha  occ. eigenvalues --   -0.82695  -0.82571  -0.81645  -0.81524  -0.80646
 Alpha  occ. eigenvalues --   -0.80370  -0.78838  -0.78564  -0.77260  -0.77066
 Alpha  occ. eigenvalues --   -0.76984  -0.76821  -0.75975  -0.75750  -0.74934
 Alpha  occ. eigenvalues --   -0.74744  -0.72817  -0.72627  -0.71714  -0.71504
 Alpha  occ. eigenvalues --   -0.69934  -0.69707  -0.68919  -0.68742  -0.67686
 Alpha  occ. eigenvalues --   -0.67532  -0.67267  -0.67119  -0.65336  -0.65185
 Alpha  occ. eigenvalues --   -0.64902  -0.64698  -0.64667  -0.64577  -0.64305
 Alpha  occ. eigenvalues --   -0.64144  -0.62360  -0.62208  -0.60479  -0.60274
 Alpha  occ. eigenvalues --   -0.59851  -0.59705  -0.59031  -0.58922  -0.58549
 Alpha  occ. eigenvalues --   -0.58355  -0.57644  -0.57481  -0.57351  -0.57173
 Alpha  occ. eigenvalues --   -0.56356  -0.56131  -0.56044  -0.55811  -0.55563
 Alpha  occ. eigenvalues --   -0.55383  -0.55381  -0.55188  -0.54574  -0.54427
 Alpha  occ. eigenvalues --   -0.53944  -0.53815  -0.53340  -0.53268  -0.53160
 Alpha  occ. eigenvalues --   -0.53065  -0.52968  -0.52826  -0.52796  -0.52592
 Alpha  occ. eigenvalues --   -0.52466  -0.52353  -0.51964  -0.51819  -0.51665
 Alpha  occ. eigenvalues --   -0.51574  -0.51243  -0.51131  -0.50605  -0.50409
 Alpha  occ. eigenvalues --   -0.50062  -0.49957  -0.49901  -0.49807  -0.49559
 Alpha  occ. eigenvalues --   -0.49411  -0.49263  -0.49145  -0.49123  -0.49015
 Alpha  occ. eigenvalues --   -0.48645  -0.48498  -0.48489  -0.48477  -0.48320
 Alpha  occ. eigenvalues --   -0.48273  -0.47738  -0.47519  -0.47338  -0.47049
 Alpha  occ. eigenvalues --   -0.46838  -0.46637  -0.46604  -0.46464  -0.46402
 Alpha  occ. eigenvalues --   -0.46208  -0.46203  -0.46022  -0.45878  -0.45750
 Alpha  occ. eigenvalues --   -0.45234  -0.45152  -0.44631  -0.44546  -0.44442
 Alpha  occ. eigenvalues --   -0.44391  -0.44185  -0.44133  -0.44067  -0.44044
 Alpha  occ. eigenvalues --   -0.44016  -0.43868  -0.43553  -0.43482  -0.43427
 Alpha  occ. eigenvalues --   -0.43308  -0.43072  -0.42859  -0.42830  -0.42765
 Alpha  occ. eigenvalues --   -0.42693  -0.42496  -0.42049  -0.41898  -0.41750
 Alpha  occ. eigenvalues --   -0.41596  -0.41580  -0.41377  -0.41183  -0.40911
 Alpha  occ. eigenvalues --   -0.40907  -0.40860  -0.40652  -0.40621  -0.40606
 Alpha  occ. eigenvalues --   -0.40429  -0.40285  -0.40139  -0.39466  -0.39376
 Alpha  occ. eigenvalues --   -0.38502  -0.38290  -0.37800  -0.37568  -0.37356
 Alpha  occ. eigenvalues --   -0.37313  -0.37200  -0.37115  -0.36778  -0.36703
 Alpha  occ. eigenvalues --   -0.36243  -0.36150  -0.34330  -0.34180  -0.33846
 Alpha  occ. eigenvalues --   -0.33790  -0.33232  -0.33103  -0.31378  -0.31217
 Alpha  occ. eigenvalues --   -0.31079  -0.30899  -0.30088  -0.29886  -0.29491
 Alpha  occ. eigenvalues --   -0.29368  -0.29258  -0.29141  -0.24124  -0.23962
 Alpha  occ. eigenvalues --   -0.21170  -0.21043
 Alpha virt. eigenvalues --   -0.08817  -0.08720  -0.01790  -0.01613  -0.00099
 Alpha virt. eigenvalues --    0.00042   0.02152   0.02275   0.03074   0.03292
 Alpha virt. eigenvalues --    0.04672   0.04815   0.05023   0.05238   0.06122

 Mulliken charges:
               1
     1  Mg   0.838694
     2  C   -0.003105
     3  C   -0.094113
     4  C   -0.045804
     5  C   -0.063909
     6  N   -0.256808
     7  C   -0.052508
     8  C   -0.014017
     9  C   -0.087011
    10  C    0.046332
    11  C    0.104785
    12  C    0.053435
    13  C   -0.071739
    14  H    0.035771
    15  N   -0.433196
    16  C    0.168456
    17  C   -0.177085
    18  C   -0.003911
    19  C    0.148731
    20  C    0.110145
    21  C    0.012331
    22  O   -0.249429
    23  C    0.062452
    24  N   -0.341179
    25  C    0.041315
    26  C   -0.028248
    27  C   -0.023997
    28  C    0.074838
    29  C    0.076124
    30  C    0.035099
    31  C   -0.004548
    32  N   -0.310409
    33  C    0.080292
    34  C   -0.169847
    35  C    0.008236
    36  C    0.082867
    37  C    0.127366
    38  C    0.045915
    39  O   -0.188787
    40  C   -0.005249
    41  C    0.212837
    42  O   -0.257509
    43  O   -0.304644
    44  C    0.157852
    45  H   -0.017503
    46  H   -0.016652
    47  H   -0.041434
    48  H    0.000897
    49  H   -0.003978
    50  H    0.025470
    51  H    0.016535
    52  H    0.016750
    53  H    0.011287
    54  H    0.043833
    55  H    0.017949
    56  H    0.018136
    57  H    0.005927
    58  H    0.026960
    59  H    0.039650
    60  H    0.037415
    61  H    0.035781
    62  H    0.031477
    63  H    0.016735
    64  H    0.009530
    65  H    0.023413
    66  H    0.012524
    67  H    0.004841
    68  H    0.006662
    69  H    0.004719
    70  H    0.008989
    71  H    0.018303
    72  H    0.028679
    73  H    0.047230
    74  H    0.009199
    75  H    0.046069
    76  H    0.035214
    77  H    0.042877
    78  H    0.046524
    79  H    0.053171
    80  Mg   0.837911
    81  C   -0.016795
    82  C   -0.087544
    83  C   -0.045611
    84  C   -0.064936
    85  N   -0.254613
    86  C   -0.049649
    87  C   -0.015138
    88  C   -0.090504
    89  C    0.045726
    90  C    0.114189
    91  C    0.062481
    92  C   -0.077887
    93  H    0.034597
    94  N   -0.423542
    95  C    0.162873
    96  C   -0.174355
    97  C   -0.007975
    98  C    0.152255
    99  C    0.099252
   100  C    0.015502
   101  O   -0.253513
   102  C    0.061238
   103  N   -0.350038
   104  C    0.037584
   105  C   -0.019801
   106  C   -0.034785
   107  C    0.088892
   108  C    0.073722
   109  C    0.034792
   110  C   -0.007623
   111  N   -0.324087
   112  C    0.078434
   113  C   -0.163221
   114  C    0.002255
   115  C    0.096164
   116  C    0.131497
   117  C    0.042316
   118  O   -0.188042
   119  C    0.000943
   120  C    0.211263
   121  O   -0.251149
   122  O   -0.305530
   123  C    0.152075
   124  H   -0.018984
   125  H   -0.015862
   126  H   -0.040651
   127  H   -0.000456
   128  H   -0.004203
   129  H    0.022533
   130  H    0.014832
   131  H    0.017331
   132  H    0.013822
   133  H    0.037467
   134  H    0.021104
   135  H    0.019722
   136  H    0.009182
   137  H    0.026314
   138  H    0.039632
   139  H    0.038345
   140  H    0.036089
   141  H    0.033898
   142  H    0.014198
   143  H    0.012329
   144  H    0.024717
   145  H    0.011782
   146  H    0.005504
   147  H    0.005971
   148  H    0.003588
   149  H    0.010806
   150  H    0.017783
   151  H    0.030260
   152  H    0.045846
   153  H    0.008345
   154  H    0.047004
   155  H    0.035246
   156  H    0.043809
   157  H    0.049642
   158  H    0.053431
 Sum of Mulliken charges =  -0.00000

 Dipole moment (field-independent basis, Debye):
    X=              4.5167    Y=              4.4943    Z=              1.7632  Tot=              6.6112
 Quadrupole moment (field-independent basis, Debye-Ang):
   XX=           -518.9359   YY=           -506.9193   ZZ=           -492.1311
   XY=            -15.1168   XZ=             45.2222   YZ=              5.6607

 Normal termination of Gaussian 16 at Sun Sep 12 09:20:13 2021.
