 Gaussian 16, Revision A.03,
 Gaussian 16:  ES64L-G16RevA.03 25-Dec-2016

 -----------------------------------
 #p cam-b3lyp/Def2SVP td=(nstates=5)
 -----------------------------------

 --------------------------------
 TDDFT excited states in gaussian
 --------------------------------
 Symbolic Z-matrix:
 Charge =  0 Multiplicity = 1

                         Standard orientation:
 ---------------------------------------------------------------------
 Center     Atomic      Atomic             Coordinates (Angstroms)
 Number     Number       Type             X           Y           Z
 ---------------------------------------------------------------------
      1         12           0        4.351630    0.773764    1.222681
      2          6           0        5.271364   -2.354108   -0.254723
      3          6           0        5.957221    2.301600   -1.371709
      4          6           0        3.947173    3.530026    2.737955
      5          6           0        3.834894   -0.954817    4.204401
      6          7           0        5.436808   -0.032066   -0.530508
      7          6           0        5.666000   -1.249460   -1.012787
      8          6           0        6.298169   -1.240968   -2.436748
      9          6           0        6.965272    0.206827   -2.407375
     10          6           0        6.044751    0.878095   -1.403401
     11          6           0        8.385639    0.212030   -1.851468
     12          6           0        5.219859   -1.352080   -3.566629
     13          6           0        5.764898   -1.677883   -4.960235
     14          1           0        4.976000   -2.527250   -5.839760
     15          7           0        4.434876    2.629586    0.550487
     16          6           0        5.124076    3.069526   -0.529672
     17          6           0        4.867249    4.523435   -0.612554
     18          6           0        4.127219    4.925524    0.615768
     19          6           0        4.163564    3.700238    1.372558
     20          6           0        5.265430    5.363697   -1.786931
     21          6           0        3.497743    6.213142    1.044641
     22          8           0        3.108750    6.413093    2.246006
     23          6           0        3.428058    7.280275    0.030040
     24          7           0        4.160273    1.269723    3.241355
     25          6           0        3.935870    2.531667    3.623617
     26          6           0        3.554498    2.603673    5.072516
     27          6           0        3.327068    1.095511    5.545252
     28          6           0        3.719239    0.374822    4.231829
     29          6           0        4.572993    3.281061    5.999782
     30          6           0        1.959287    0.759610    6.190825
     31          6           0        0.862106    0.871447    5.156037
     32          7           0        4.342654   -1.304998    1.846951
     33          6           0        4.125898   -1.795236    3.142852
     34          6           0        4.324849   -3.255313    3.091267
     35          6           0        4.661942   -3.512611    1.763859
     36          6           0        4.698532   -2.287550    1.038476
     37          6           0        4.245810   -4.146742    4.197405
     38          6           0        5.023810   -4.534616    0.795141
     39          8           0        5.065323   -5.765715    0.807985
     40          6           0        5.551776   -3.812005   -0.522020
     41          6           0        4.868922   -4.455271   -1.698127
     42          8           0        3.639502   -4.329408   -1.871484
     43          8           0        5.795239   -4.912185   -2.554694
     44          6           0        5.184252   -5.536239   -3.758607
     45          1           0        6.627685    2.885871   -2.004991
     46          1           0        3.694427    4.445556    3.276807
     47          1           0        3.608208   -1.570396    5.076828
     48          1           0        7.063433   -2.000263   -2.598816
     49          1           0        6.899073    0.705095   -3.374365
     50          1           0        8.658526   -0.762354   -1.446464
     51          1           0        8.387142    0.965695   -1.063763
     52          1           0        9.094264    0.562146   -2.602498
     53          1           0        4.797418   -0.365788   -3.758546
     54          1           0        4.454590   -2.081579   -3.299194
     55          1           0        6.795711   -2.030129   -4.912732
     56          1           0        5.821537   -0.750464   -5.530223
     57          1           0        5.936808    4.825717   -2.455044
     58          1           0        5.867779    6.185702   -1.400677
     59          1           0        4.401014    5.760128   -2.319810
     60          1           0        4.435688    7.519144   -0.310800
     61          1           0        2.867397    8.094417    0.487951
     62          1           0        2.890726    6.904577   -0.841209
     63          1           0        2.629568    3.163215    5.206093
     64          1           0        4.057300    0.786958    6.293737
     65          1           0        4.164601    4.124523    6.557000
     66          1           0        5.426609    3.587758    5.395987
     67          1           0        5.046138    2.616486    6.722202
     68          1           0        1.728081    1.472292    6.981757
     69          1           0        1.921645   -0.240083    6.623777
     70          1           0        0.633675    1.936645    5.157601
     71          1           0       -0.006613    0.285416    5.457877
     72          1           0        1.226570    0.617811    4.160386
     73          1           0        3.689477   -5.016783    3.848849
     74          1           0        3.754482   -3.677740    5.049600
     75          1           0        5.303374   -4.338119    4.378484
     76          1           0        6.631563   -3.955412   -0.546850
     77          1           0        5.581387   -6.548737   -3.831861
     78          1           0        5.373995   -4.856937   -4.589842
     79          1           0        4.113856   -5.738325   -3.706137
     80         12           0       -4.210941    0.102722   -1.434387
     81          6           0       -5.749232   -1.571262    1.342387
     82          6           0       -6.113832    2.824295   -0.655524
     83          6           0       -3.214144    1.447125   -4.130017
     84          6           0       -3.318361   -3.037512   -2.654184
     85          7           0       -5.701182    0.458675    0.160834
     86          6           0       -6.158794   -0.229546    1.195868
     87          6           0       -7.046066    0.589532    2.171282
     88          6           0       -7.536257    1.728929    1.151308
     89          6           0       -6.364706    1.700622    0.171834
     90          6           0       -8.800398    1.356084    0.394819
     91          6           0       -6.222715    1.198416    3.360140
     92          6           0       -7.066916    1.747395    4.512398
     93          1           0       -6.560051    1.607548    5.874750
     94          7           0       -4.219405    2.004828   -2.000530
     95          6           0       -5.045494    2.979504   -1.565963
     96          6           0       -4.658586    4.192828   -2.302376
     97          6           0       -3.646313    3.817160   -3.326533
     98          6           0       -3.669891    2.373438   -3.203304
     99          6           0       -5.178346    5.557121   -1.953140
    100          6           0       -2.806553    4.623141   -4.270670
    101          8           0       -2.168380    4.076525   -5.238548
    102          6           0       -2.827996    6.081472   -4.085492
    103          7           0       -3.571772   -0.683510   -3.249773
    104          6           0       -3.142754    0.120313   -4.238580
    105          6           0       -2.477503   -0.673842   -5.337291
    106          6           0       -2.332974   -2.160451   -4.765726
    107          6           0       -3.051787   -1.981519   -3.410491
    108          6           0       -3.219540   -0.712350   -6.673060
    109          6           0       -0.909092   -2.781109   -4.770912
    110          6           0       -0.022300   -2.046493   -3.791460
    111          7           0       -4.306208   -1.931202   -0.711816
    112          6           0       -3.900587   -3.098842   -1.394573
    113          6           0       -4.268405   -4.249995   -0.544870
    114          6           0       -4.888119   -3.668745    0.571639
    115          6           0       -4.923412   -2.256370    0.418582
    116          6           0       -4.064988   -5.621208   -0.868158
    117          6           0       -5.529979   -3.929519    1.839997
    118          8           0       -5.710327   -4.930098    2.532840
    119          6           0       -6.229358   -2.591507    2.336975
    120          6           0       -5.865732   -2.386415    3.782049
    121          8           0       -4.687807   -2.161740    4.111647
    122          8           0       -6.992767   -2.273349    4.508255
    123          6           0       -6.683920   -2.057555    5.946961
    124          1           0       -6.825301    3.650381   -0.638376
    125          1           0       -2.758766    1.865853   -5.030449
    126          1           0       -2.986411   -4.043753   -2.918698
    127          1           0       -7.899793    0.053258    2.567925
    128          1           0       -7.600148    2.696920    1.641466
    129          1           0       -9.095381    0.334290    0.582046
    130          1           0       -8.568703    1.497078   -0.652785
    131          1           0       -9.600391    2.065652    0.624706
    132          1           0       -5.739275    2.124561    3.023557
    133          1           0       -5.515299    0.486049    3.737916
    134          1           0       -8.110159    1.413897    4.454372
    135          1           0       -7.126849    2.833807    4.411749
    136          1           0       -6.031506    5.498809   -1.266026
    137          1           0       -5.597292    5.984222   -2.870715
    138          1           0       -4.397397    6.222150   -1.578267
    139          1           0       -3.849532    6.442358   -4.178707
    140          1           0       -2.098664    6.476917   -4.795117
    141          1           0       -2.505847    6.309103   -3.063228
    142          1           0       -1.490817   -0.283112   -5.553802
    143          1           0       -2.929914   -2.879720   -5.345514
    144          1           0       -2.611611   -0.343866   -7.520840
    145          1           0       -4.127658   -0.132338   -6.575905
    146          1           0       -3.600015   -1.690602   -6.961952
    147          1           0       -0.448464   -2.663908   -5.754913
    148          1           0       -0.898547   -3.839864   -4.534435
    149          1           0        0.314097   -1.178408   -4.366223
    150          1           0        0.817015   -2.670843   -3.491842
    151          1           0       -0.601950   -1.673087   -2.939272
    152          1           0       -3.691528   -6.100103    0.027204
    153          1           0       -3.372261   -5.735185   -1.699376
    154          1           0       -5.083581   -5.910675   -1.140067
    155          1           0       -7.304392   -2.712860    2.198585
    156          1           0       -7.201795   -2.842881    6.506190
    157          1           0       -6.974008   -1.011754    6.161190
    158          1           0       -5.660050   -2.209384    6.268028
 ---------------------------------------------------------------------

 SCF Done:  E(RCAM-B3LYP) =  -4069.81273771     A.U. after   19 cycles

 Excitation energies and oscillator strengths:

 Excited State   1:      Singlet-A      1.6464 eV  753.07 nm  f=0.0040  <S**2>=0.000
     309 -> 315       -0.11325
     310 -> 316        0.12179
     311 -> 313       -0.46653
     312 -> 314        0.50527
 This state for optimization and/or second-order correction.
 Total Energy, E(TD-HF/TD-DFT) =  -4069.75223446
 Copying the excited state density for this state as the 1-particle RhoCI density.

 Excited State   2:      Singlet-A      1.7020 eV  728.45 nm  f=0.7005  <S**2>=0.000
     309 -> 315        0.13316
     310 -> 316        0.12208
     311 -> 313        0.50271
     312 -> 314        0.46425

 Excited State   3:      Singlet-A      2.1810 eV  568.48 nm  f=0.0236  <S**2>=0.000
     309 -> 313        0.29132
     310 -> 314        0.57488
     311 -> 315       -0.12066
     312 -> 316       -0.24005

 Excited State   4:      Singlet-A      2.1945 eV  564.99 nm  f=0.1558  <S**2>=0.000
     309 -> 313        0.57082
     310 -> 314       -0.28769
     311 -> 315       -0.25027
     312 -> 316        0.12748

 Excited State   5:      Singlet-A      2.4713 eV  501.70 nm  f=0.0000  <S**2>=0.000
     312 -> 313        0.70705

 The electronic state is 1-A.
 Alpha  occ. eigenvalues --  -46.87616 -46.87445 -19.26318 -19.26242 -19.19090
 Alpha  occ. eigenvalues --  -19.19040 -19.18692 -19.18602 -19.18032 -19.17863
 Alpha  occ. eigenvalues --  -14.42292 -14.42279 -14.41264 -14.41130 -14.39227
 Alpha  occ. eigenvalues --  -14.39147 -14.38403 -14.38376 -10.39116 -10.38964
 Alpha  occ. eigenvalues --  -10.35328 -10.35286 -10.34258 -10.34042 -10.31742
 Alpha  occ. eigenvalues --  -10.31682 -10.31234 -10.31093 -10.30850 -10.30765
 Alpha  occ. eigenvalues --  -10.30385 -10.30326 -10.30177 -10.30131 -10.30012
 Alpha  occ. eigenvalues --  -10.29907 -10.29730 -10.29654 -10.29452 -10.29229
 Alpha  occ. eigenvalues --  -10.29187 -10.29072 -10.28642 -10.28568 -10.28552
 Alpha  occ. eigenvalues --  -10.28506 -10.28212 -10.28204 -10.27985 -10.27975
 Alpha  occ. eigenvalues --  -10.27792 -10.27615 -10.27549 -10.27461 -10.27412
 Alpha  occ. eigenvalues --  -10.27307 -10.27302 -10.27284 -10.27268 -10.27263
 Alpha  occ. eigenvalues --  -10.27249 -10.27247 -10.27199 -10.27123 -10.27069
 Alpha  occ. eigenvalues --  -10.26884 -10.26636 -10.26562 -10.26376 -10.26325
 Alpha  occ. eigenvalues --  -10.26110 -10.25875 -10.25859 -10.25812 -10.25670
 Alpha  occ. eigenvalues --  -10.25657 -10.25593 -10.25535 -10.25269 -10.25216
 Alpha  occ. eigenvalues --  -10.24662 -10.24659 -10.24615 -10.24481 -10.24260
 Alpha  occ. eigenvalues --  -10.24015  -3.16358  -3.16194  -1.91239  -1.91076
 Alpha  occ. eigenvalues --   -1.90826  -1.90668  -1.90665  -1.90502  -1.16666
 Alpha  occ. eigenvalues --   -1.16532  -1.08501  -1.08474  -1.07097  -1.06862
 Alpha  occ. eigenvalues --   -1.06822  -1.06681  -1.04416  -1.04295  -1.03580
 Alpha  occ. eigenvalues --   -1.03450  -1.03052  -1.02813  -1.02231  -1.01893
 Alpha  occ. eigenvalues --   -0.91826  -0.91788  -0.89302  -0.89213  -0.89060
 Alpha  occ. eigenvalues --   -0.88977  -0.88074  -0.87931  -0.87672  -0.87553
 Alpha  occ. eigenvalues --   -0.87506  -0.87473  -0.87113  -0.86955  -0.84854
 Alpha  occ. eigenvalues --   -0.84827  -0.83718  -0.83561  -0.82813  -0.82768
 Alpha  occ. eigenvalues --   -0.82524  -0.82468  -0.81493  -0.81418  -0.80463
 Alpha  occ. eigenvalues --   -0.80260  -0.78623  -0.78437  -0.77042  -0.76935
 Alpha  occ. eigenvalues --   -0.76807  -0.76677  -0.75798  -0.75656  -0.74717
 Alpha  occ. eigenvalues --   -0.74557  -0.72587  -0.72466  -0.71517  -0.71383
 Alpha  occ. eigenvalues --   -0.69641  -0.69373  -0.68737  -0.68644  -0.67490
 Alpha  occ. eigenvalues --   -0.67410  -0.67108  -0.67054  -0.65157  -0.65095
 Alpha  occ. eigenvalues --   -0.64712  -0.64556  -0.64472  -0.64456  -0.64061
 Alpha  occ. eigenvalues --   -0.63913  -0.62218  -0.62099  -0.60272  -0.60150
 Alpha  occ. eigenvalues --   -0.59661  -0.59615  -0.58823  -0.58779  -0.58349
 Alpha  occ. eigenvalues --   -0.58217  -0.57496  -0.57380  -0.57142  -0.57015
 Alpha  occ. eigenvalues --   -0.56159  -0.55999  -0.55923  -0.55735  -0.55382
 Alpha  occ. eigenvalues --   -0.55299  -0.55179  -0.55003  -0.54391  -0.54226
 Alpha  occ. eigenvalues --   -0.53777  -0.53750  -0.53142  -0.53092  -0.53040
 Alpha  occ. eigenvalues --   -0.52950  -0.52809  -0.52721  -0.52627  -0.52540
 Alpha  occ. eigenvalues --   -0.52155  -0.51965  -0.51710  -0.51616  -0.51505
 Alpha  occ. eigenvalues --   -0.51497  -0.51033  -0.50967  -0.50419  -0.50324
 Alpha  occ. eigenvalues --   -0.49831  -0.49808  -0.49753  -0.49565  -0.49392
 Alpha  occ. eigenvalues --   -0.49332  -0.49082  -0.49034  -0.48965  -0.48912
 Alpha  occ. eigenvalues --   -0.48479  -0.48386  -0.48324  -0.48286  -0.48203
 Alpha  occ. eigenvalues --   -0.48138  -0.47548  -0.47403  -0.47147  -0.46935
 Alpha  occ. eigenvalues --   -0.46614  -0.46481  -0.46439  -0.46374  -0.46188
 Alpha  occ. eigenvalues --   -0.46039  -0.45998  -0.45862  -0.45690  -0.45615
 Alpha  occ. eigenvalues --   -0.45010  -0.44950  -0.44448  -0.44353  -0.44350
 Alpha  occ. eigenvalues --   -0.44254  -0.43991  -0.43963  -0.43929  -0.43873
 Alpha  occ. eigenvalues --   -0.43789  -0.43772  -0.43386  -0.43340  -0.43227
 Alpha  occ. eigenvalues --   -0.43193  -0.42871  -0.42771  -0.42694  -0.42665
 Alpha  occ. eigenvalues --   -0.42424  -0.42262  -0.41799  -0.41642  -0.41549
 Alpha  occ. eigenvalues --   -0.41465  -0.41397  -0.41225  -0.40989  -0.40798
 Alpha  occ. eigenvalues --   -0.40728  -0.40689  -0.40601  -0.40493  -0.40360
 Alpha  occ. eigenvalues --   -0.40180  -0.40139  -0.40093  -0.39156  -0.39009
 Alpha  occ. eigenvalues --   -0.38271  -0.38088  -0.37647  -0.37494  -0.37131
 Alpha  occ. eigenvalues --   -0.37122  -0.37030  -0.36992  -0.36679  -0.36618
 Alpha  occ. eigenvalues --   -0.36057  -0.35983  -0.34114  -0.34039  -0.33782
 Alpha  occ. eigenvalues --   -0.33724  -0.33019  -0.32959  -0.31222  -0.31161
 Alpha  occ. eigenvalues --   -0.30875  -0.30769  -0.29895  -0.29767  -0.29278
 Alpha  occ. eigenvalues --   -0.29141  -0.29137  -0.28993  -0.23907  -0.23820
 Alpha  occ. eigenvalues --   -0.20945  -0.20899
 Alpha virt. eigenvalues --   -0.08600  -0.08585  -0.01574  -0.01473   0.00088
 Alpha virt. eigenvalues --    0.00131   0.02361   0.02416   0.02924   0.03866
 Alpha virt. eigenvalues --    0.04852   0.04917   0.05032   0.05299   0.06194

 Mulliken charges:
               1
     1  Mg   0.839353
     2  C   -0.003858
     3  C   -0.093693
     4  C   -0.045955
     5  C   -0.062605
     6  N   -0.256793
     7  C   -0.052513
     8  C   -0.014254
     9  C   -0.086998
    10  C    0.046242
    11  C    0.104879
    12  C    0.052270
    13  C   -0.071133
    14  H    0.033466
    15  N   -0.433032
    16  C    0.168628
    17  C   -0.176873
    18  C   -0.004279
    19  C    0.148624
    20  C    0.110133
    21  C    0.011776
    22  O   -0.250466
    23  C    0.062460
    24  N   -0.341281
    25  C    0.041399
    26  C   -0.027845
    27  C   -0.024156
    28  C    0.075179
    29  C    0.076404
    30  C    0.034865
    31  C   -0.005176
    32  N   -0.310728
    33  C    0.081096
    34  C   -0.167958
    35  C    0.008180
    36  C    0.083631
    37  C    0.127079
    38  C    0.046234
    39  O   -0.188701
    40  C   -0.005720
    41  C    0.213257
    42  O   -0.258311
    43  O   -0.304121
    44  C    0.157950
    45  H   -0.017944
    46  H   -0.017372
    47  H   -0.040333
    48  H    0.000488
    49  H   -0.003930
    50  H    0.025218
    51  H    0.016546
    52  H    0.016394
    53  H    0.012728
    54  H    0.044236
    55  H    0.018020
    56  H    0.018808
    57  H    0.005973
    58  H    0.026071
    59  H    0.040454
    60  H    0.037535
    61  H    0.034147
    62  H    0.031668
    63  H    0.016258
    64  H    0.009022
    65  H    0.022505
    66  H    0.012103
    67  H    0.004588
    68  H    0.005103
    69  H    0.005972
    70  H    0.006322
    71  H    0.024863
    72  H    0.028939
    73  H    0.048788
    74  H    0.010607
    75  H    0.045286
    76  H    0.035137
    77  H    0.043423
    78  H    0.046511
    79  H    0.051695
    80  Mg   0.838045
    81  C   -0.017416
    82  C   -0.087963
    83  C   -0.045870
    84  C   -0.062780
    85  N   -0.254590
    86  C   -0.049770
    87  C   -0.015144
    88  C   -0.090439
    89  C    0.045523
    90  C    0.114525
    91  C    0.062540
    92  C   -0.077452
    93  H    0.033715
    94  N   -0.423255
    95  C    0.162672
    96  C   -0.174932
    97  C   -0.008473
    98  C    0.151852
    99  C    0.099425
   100  C    0.014579
   101  O   -0.254727
   102  C    0.061446
   103  N   -0.350412
   104  C    0.037769
   105  C   -0.019144
   106  C   -0.034862
   107  C    0.089728
   108  C    0.074144
   109  C    0.034452
   110  C   -0.013475
   111  N   -0.324534
   112  C    0.079589
   113  C   -0.160792
   114  C    0.001908
   115  C    0.096965
   116  C    0.131201
   117  C    0.042732
   118  O   -0.187909
   119  C    0.000735
   120  C    0.211329
   121  O   -0.251482
   122  O   -0.305520
   123  C    0.152385
   124  H   -0.020355
   125  H   -0.016663
   126  H   -0.038315
   127  H   -0.001007
   128  H   -0.004628
   129  H    0.022189
   130  H    0.014369
   131  H    0.015755
   132  H    0.014397
   133  H    0.037222
   134  H    0.020649
   135  H    0.019702
   136  H    0.008621
   137  H    0.025215
   138  H    0.039497
   139  H    0.038523
   140  H    0.034147
   141  H    0.033619
   142  H    0.013585
   143  H    0.011401
   144  H    0.023621
   145  H    0.010978
   146  H    0.005300
   147  H    0.002804
   148  H    0.006121
   149  H    0.004905
   150  H    0.036387
   151  H    0.028375
   152  H    0.047510
   153  H    0.011082
   154  H    0.045867
   155  H    0.034632
   156  H    0.043734
   157  H    0.049303
   158  H    0.052659
 Sum of Mulliken charges =  -0.00000

 Dipole moment (field-independent basis, Debye):
    X=              0.2110    Y=              6.3726    Z=             -2.5240  Tot=              6.8575
 Quadrupole moment (field-independent basis, Debye-Ang):
   XX=           -461.1101   YY=           -534.4267   ZZ=           -481.6716
   XY=            -14.4413   XZ=            -22.5434   YZ=             18.2932

 Normal termination of Gaussian 16 at Thu Sep  9 16:49:48 2021.
