 Gaussian 16, Revision A.03,
 Gaussian 16:  ES64L-G16RevA.03 25-Dec-2016

 -----------------------------------
 #p cam-b3lyp/Def2SVP td=(nstates=5)
 -----------------------------------

 --------------------------------
 TDDFT excited states in gaussian
 --------------------------------
 Symbolic Z-matrix:
 Charge =  0 Multiplicity = 1

                         Standard orientation:
 ---------------------------------------------------------------------
 Center     Atomic      Atomic             Coordinates (Angstroms)
 Number     Number       Type             X           Y           Z
 ---------------------------------------------------------------------
      1         12           0        4.189305   -0.205783    0.230295
      2          6           0        4.070734    2.934375   -1.483637
      3          6           0        4.779253    1.549747    3.096153
      4          6           0        4.748402   -2.970385    1.679780
      5          6           0        4.721075   -1.709405   -2.868414
      6          7           0        4.376879    1.963821    0.628141
      7          6           0        4.251086    3.065631   -0.104909
      8          6           0        4.253271    4.374036    0.740931
      9          6           0        5.037358    3.843221    2.023678
     10          6           0        4.682411    2.369564    1.932730
     11          6           0        6.551664    3.991227    1.916572
     12          6           0        2.806516    4.846614    1.108761
     13          6           0        2.703363    6.276524    1.647344
     14          1           0        1.535358    7.072503    1.301613
     15          7           0        4.207716   -0.664203    2.151847
     16          6           0        4.449614    0.179865    3.183506
     17          6           0        4.350088   -0.638174    4.411345
     18          6           0        4.218405   -2.063270    3.999210
     19          6           0        4.415111   -1.957566    2.576005
     20          6           0        4.335767   -0.053784    5.790487
     21          6           0        3.967226   -3.322102    4.767574
     22          8           0        4.120293   -4.479313    4.246033
     23          6           0        3.618331   -3.164313    6.191097
     24          7           0        4.884744   -2.051893   -0.452256
     25          6           0        4.979764   -3.101073    0.371866
     26          6           0        5.224647   -4.371331   -0.387354
     27          6           0        5.034981   -4.007553   -1.930547
     28          6           0        4.779870   -2.487031   -1.784943
     29          6           0        6.600627   -5.019557   -0.181217
     30          6           0        4.013864   -4.853335   -2.732041
     31          6           0        2.613853   -4.578392   -2.230568
     32          7           0        4.193446    0.437152   -1.842785
     33          6           0        4.461666   -0.352844   -2.970011
     34          6           0        4.453814    0.545697   -4.139041
     35          6           0        4.196304    1.806881   -3.605237
     36          6           0        4.078452    1.706908   -2.189466
     37          6           0        4.724654    0.166524   -5.483403
     38          6           0        4.017741    3.219565   -3.898999
     39          8           0        3.919135    3.884967   -4.930992
     40          6           0        4.050323    4.024953   -2.525639
     41          6           0        2.882982    4.973962   -2.527471
     42          8           0        1.711088    4.546682   -2.489238
     43          8           0        3.327138    6.225402   -2.334685
     44          6           0        2.216089    7.213457   -2.296347
     45          1           0        5.200528    1.976066    4.008688
     46          1           0        4.840875   -3.962283    2.127022
     47          1           0        4.795482   -2.120658   -3.876773
     48          1           0        4.795845    5.205448    0.290606
     49          1           0        4.645413    4.271168    2.946155
     50          1           0        6.850494    4.319074    0.921012
     51          1           0        6.956584    3.001575    2.128989
     52          1           0        6.933312    4.645739    2.700623
     53          1           0        2.458962    4.294059    1.981659
     54          1           0        2.135242    4.732948    0.256823
     55          1           0        3.618220    6.839672    1.460770
     56          1           0        2.632041    6.227892    2.733966
     57          1           0        4.614888    0.999102    5.782224
     58          1           0        5.132722   -0.541675    6.351319
     59          1           0        3.381817   -0.212560    6.293580
     60          1           0        4.423808   -2.637081    6.702743
     61          1           0        3.386926   -4.164168    6.556599
     62          1           0        2.736571   -2.527750    6.270063
     63          1           0        4.502639   -5.138198   -0.109782
     64          1           0        5.963910   -4.109881   -2.492057
     65          1           0        6.550844   -6.048530    0.175772
     66          1           0        7.168214   -4.393880    0.507016
     67          1           0        7.244658   -5.014331   -1.060202
     68          1           0        4.204018   -5.916067   -2.585791
     69          1           0        4.038996   -4.656344   -3.803868
     70          1           0        2.529425   -5.240175   -1.369321
     71          1           0        1.878953   -4.835601   -2.994097
     72          1           0        2.515111   -3.555565   -1.866481
     73          1           0        3.979140    0.670317   -6.098521
     74          1           0        4.675202   -0.915041   -5.607396
     75          1           0        5.736041    0.554708   -5.602844
     76          1           0        5.004556    4.549806   -2.492604
     77          1           0        2.430952    7.967617   -3.053520
     78          1           0        2.132028    7.545225   -1.261326
     79          1           0        1.241803    6.856527   -2.632065
     80         12           0       -3.687789   -1.135589    0.009925
     81          6           0       -6.422503    1.184395    0.144519
     82          6           0       -1.595073    1.556748    0.090517
     83          6           0       -1.276788   -3.117894   -0.560124
     84          6           0       -5.940249   -3.506818   -1.193974
     85          7           0       -4.078026    1.039453    0.105674
     86          6           0       -5.156024    1.801258    0.214930
     87          6           0       -4.859390    3.299666    0.491218
     88          6           0       -3.374767    3.367061   -0.117254
     89          6           0       -2.968918    1.906127    0.066092
     90          6           0       -3.347040    3.687714   -1.602423
     91          6           0       -4.868144    3.638103    2.023337
     92          6           0       -4.893004    5.132541    2.351681
     93          1           0       -5.643494    5.575318    3.523503
     94          7           0       -1.736394   -0.895504    0.280130
     95          6           0       -1.055935    0.269619    0.307264
     96          6           0        0.354683   -0.093030    0.514134
     97          6           0        0.473520   -1.574718    0.442107
     98          6           0       -0.867837   -1.926600    0.021358
     99          6           0        1.417120    0.919192    0.830473
    100          6           0        1.610300   -2.517850    0.695922
    101          8           0        1.555929   -3.748596    0.342163
    102          6           0        2.824936   -1.936742    1.286229
    103          7           0       -3.570038   -2.969729   -0.961874
    104          6           0       -2.409771   -3.646469   -1.023019
    105          6           0       -2.625389   -5.054692   -1.523832
    106          6           0       -4.210949   -5.260838   -1.556994
    107          6           0       -4.659198   -3.844033   -1.136092
    108          6           0       -2.042895   -5.367095   -2.902051
    109          6           0       -4.778863   -6.478028   -0.776861
    110          6           0       -4.581205   -6.276951    0.708359
    111          7           0       -5.826439   -1.244294   -0.277114
    112          6           0       -6.560639   -2.321920   -0.819117
    113          6           0       -7.967665   -1.883117   -0.919904
    114          6           0       -7.950295   -0.562208   -0.447266
    115          6           0       -6.622549   -0.196343   -0.096930
    116          6           0       -9.044137   -2.654144   -1.442231
    117          6           0       -8.751500    0.609392   -0.175037
    118          8           0       -9.955422    0.862220   -0.194723
    119          6           0       -7.777464    1.834639    0.101422
    120          6           0       -8.256657    2.538347    1.341459
    121          8           0       -8.221082    1.967563    2.445790
    122          8           0       -8.472374    3.835503    1.056466
    123          6           0       -8.938471    4.577872    2.257908
    124          1           0       -0.858478    2.333294   -0.117536
    125          1           0       -0.499969   -3.877320   -0.675498
    126          1           0       -6.720051   -4.220809   -1.467464
    127          1           0       -5.506791    3.994545   -0.030120
    128          1           0       -2.734965    4.017547    0.473416
    129          1           0       -4.338437    3.700880   -2.030332
    130          1           0       -2.747819    2.911348   -2.059854
    131          1           0       -2.809874    4.624572   -1.775841
    132          1           0       -3.896325    3.366933    2.455492
    133          1           0       -5.683075    3.145936    2.517585
    134          1           0       -5.150686    5.742442    1.477285
    135          1           0       -3.879058    5.448161    2.609213
    136          1           0        1.063184    1.942410    0.653939
    137          1           0        2.219998    0.779435    0.098551
    138          1           0        1.829123    0.797616    1.834532
    139          1           0        3.201318   -1.150015    0.636727
    140          1           0        3.490835   -2.781027    1.474999
    141          1           0        2.558639   -1.460047    2.236223
    142          1           0       -2.191173   -5.777596   -0.844146
    143          1           0       -4.580324   -5.415952   -2.581359
    144          1           0       -1.336660   -6.218706   -2.894591
    145          1           0       -1.559387   -4.475395   -3.278376
    146          1           0       -2.777889   -5.576127   -3.677484
    147          1           0       -4.232599   -7.386426   -1.042496
    148          1           0       -5.829350   -6.664919   -0.973192
    149          1           0       -3.550911   -6.609062    0.867388
    150          1           0       -5.283822   -6.885414    1.274161
    151          1           0       -4.629166   -5.213862    0.971406
    152          1           0       -9.882481   -2.511576   -0.773379
    153          1           0       -8.776090   -3.705255   -1.526519
    154          1           0       -9.165622   -2.181765   -2.420674
    155          1           0       -7.809289    2.482719   -0.775244
    156          1           0       -9.885758    5.056147    1.990366
    157          1           0       -8.101080    5.242648    2.541804
    158          1           0       -9.232372    3.996151    3.123736
 ---------------------------------------------------------------------

 SCF Done:  E(RCAM-B3LYP) =  -4069.51817786     A.U. after   20 cycles

 Excitation energies and oscillator strengths:

 Excited State   1:      Singlet-A      1.5004 eV  826.35 nm  f=0.2587  <S**2>=0.000
     310 -> 313        0.12419
     310 -> 315       -0.14413
     311 -> 313        0.66274
     312 -> 313       -0.15289
 This state for optimization and/or second-order correction.
 Total Energy, E(TD-HF/TD-DFT) =  -4069.46304011
 Copying the excited state density for this state as the 1-particle RhoCI density.

 Excited State   2:      Singlet-A      1.6469 eV  752.83 nm  f=0.4688  <S**2>=0.000
     309 -> 316       -0.15688
     310 -> 313        0.15910
     312 -> 314        0.66183

 Excited State   3:      Singlet-A      1.7347 eV  714.71 nm  f=0.1246  <S**2>=0.000
     310 -> 313        0.63616
     311 -> 315        0.18702
     312 -> 314       -0.15820

 Excited State   4:      Singlet-A      1.9573 eV  633.46 nm  f=0.0021  <S**2>=0.000
     311 -> 313        0.16627
     312 -> 313        0.68183

 Excited State   5:      Singlet-A      2.1778 eV  569.30 nm  f=0.0914  <S**2>=0.000
     309 -> 314        0.63172
     310 -> 314       -0.12121
     312 -> 316        0.26072

 The electronic state is 1-A.
 Alpha  occ. eigenvalues --  -46.88370 -46.87396 -19.27054 -19.26200 -19.19887
 Alpha  occ. eigenvalues --  -19.19034 -19.19014 -19.19002 -19.18629 -19.17839
 Alpha  occ. eigenvalues --  -14.42749 -14.42211 -14.41246 -14.41115 -14.39149
 Alpha  occ. eigenvalues --  -14.39074 -14.38614 -14.38357 -10.39899 -10.38925
 Alpha  occ. eigenvalues --  -10.35692 -10.35212 -10.34147 -10.34017 -10.32398
 Alpha  occ. eigenvalues --  -10.31759 -10.31642 -10.31572 -10.31273 -10.30988
 Alpha  occ. eigenvalues --  -10.30799 -10.30751 -10.30472 -10.30256 -10.30107
 Alpha  occ. eigenvalues --  -10.30063 -10.29905 -10.29669 -10.29551 -10.29407
 Alpha  occ. eigenvalues --  -10.29312 -10.29277 -10.29186 -10.29154 -10.28893
 Alpha  occ. eigenvalues --  -10.28792 -10.28538 -10.28536 -10.28423 -10.28154
 Alpha  occ. eigenvalues --  -10.28080 -10.28014 -10.27899 -10.27882 -10.27759
 Alpha  occ. eigenvalues --  -10.27742 -10.27736 -10.27579 -10.27540 -10.27344
 Alpha  occ. eigenvalues --  -10.27290 -10.27234 -10.27215 -10.27171 -10.27085
 Alpha  occ. eigenvalues --  -10.26852 -10.26838 -10.26544 -10.26539 -10.26507
 Alpha  occ. eigenvalues --  -10.26473 -10.26382 -10.25988 -10.25774 -10.25700
 Alpha  occ. eigenvalues --  -10.25657 -10.25393 -10.25313 -10.25297 -10.25033
 Alpha  occ. eigenvalues --  -10.24874 -10.24637 -10.24580 -10.24449 -10.23745
 Alpha  occ. eigenvalues --  -10.22815  -3.17774  -3.16146  -1.92879  -1.92166
 Alpha  occ. eigenvalues --   -1.91960  -1.91028  -1.90617  -1.90453  -1.17416
 Alpha  occ. eigenvalues --   -1.16491  -1.09455  -1.08453  -1.07580  -1.07485
 Alpha  occ. eigenvalues --   -1.07007  -1.06786  -1.05899  -1.04863  -1.04210
 Alpha  occ. eigenvalues --   -1.03840  -1.03394  -1.02910  -1.02791  -1.01864
 Alpha  occ. eigenvalues --   -0.93551  -0.92168  -0.91743  -0.89763  -0.89287
 Alpha  occ. eigenvalues --   -0.88817  -0.88791  -0.88531  -0.88038  -0.87991
 Alpha  occ. eigenvalues --   -0.87736  -0.87566  -0.87423  -0.86886  -0.86223
 Alpha  occ. eigenvalues --   -0.84693  -0.84259  -0.83714  -0.83572  -0.83046
 Alpha  occ. eigenvalues --   -0.82539  -0.82319  -0.82249  -0.81409  -0.81224
 Alpha  occ. eigenvalues --   -0.80346  -0.79273  -0.78716  -0.77600  -0.77457
 Alpha  occ. eigenvalues --   -0.76989  -0.76679  -0.76303  -0.75608  -0.74829
 Alpha  occ. eigenvalues --   -0.74643  -0.73497  -0.72476  -0.72377  -0.71320
 Alpha  occ. eigenvalues --   -0.69599  -0.69512  -0.69302  -0.68809  -0.68284
 Alpha  occ. eigenvalues --   -0.67825  -0.67628  -0.67180  -0.65996  -0.65550
 Alpha  occ. eigenvalues --   -0.65332  -0.65044  -0.64603  -0.64487  -0.64158
 Alpha  occ. eigenvalues --   -0.63998  -0.62947  -0.62382  -0.62046  -0.60571
 Alpha  occ. eigenvalues --   -0.60089  -0.59829  -0.59495  -0.59186  -0.58943
 Alpha  occ. eigenvalues --   -0.58721  -0.58323  -0.58133  -0.57778  -0.57366
 Alpha  occ. eigenvalues --   -0.57187  -0.56881  -0.56602  -0.56040  -0.55892
 Alpha  occ. eigenvalues --   -0.55740  -0.55678  -0.55435  -0.55049  -0.54833
 Alpha  occ. eigenvalues --   -0.54463  -0.54353  -0.54054  -0.53677  -0.53565
 Alpha  occ. eigenvalues --   -0.53494  -0.53239  -0.52978  -0.52695  -0.52615
 Alpha  occ. eigenvalues --   -0.52606  -0.52362  -0.52211  -0.52025  -0.51919
 Alpha  occ. eigenvalues --   -0.51790  -0.51638  -0.51212  -0.51163  -0.50971
 Alpha  occ. eigenvalues --   -0.50493  -0.50267  -0.49937  -0.49846  -0.49829
 Alpha  occ. eigenvalues --   -0.49647  -0.49498  -0.49192  -0.49129  -0.49032
 Alpha  occ. eigenvalues --   -0.48934  -0.48735  -0.48488  -0.48384  -0.48246
 Alpha  occ. eigenvalues --   -0.48039  -0.47884  -0.47598  -0.47429  -0.47141
 Alpha  occ. eigenvalues --   -0.47080  -0.46865  -0.46625  -0.46519  -0.46474
 Alpha  occ. eigenvalues --   -0.46410  -0.46097  -0.45914  -0.45826  -0.45612
 Alpha  occ. eigenvalues --   -0.45366  -0.45111  -0.44938  -0.44683  -0.44568
 Alpha  occ. eigenvalues --   -0.44373  -0.44330  -0.44239  -0.44021  -0.43989
 Alpha  occ. eigenvalues --   -0.43881  -0.43821  -0.43719  -0.43406  -0.43374
 Alpha  occ. eigenvalues --   -0.43186  -0.43136  -0.42830  -0.42737  -0.42679
 Alpha  occ. eigenvalues --   -0.42513  -0.42201  -0.42070  -0.41887  -0.41719
 Alpha  occ. eigenvalues --   -0.41554  -0.41411  -0.41267  -0.41169  -0.41071
 Alpha  occ. eigenvalues --   -0.40843  -0.40737  -0.40484  -0.40375  -0.40265
 Alpha  occ. eigenvalues --   -0.40242  -0.40117  -0.39302  -0.39154  -0.38370
 Alpha  occ. eigenvalues --   -0.38179  -0.38152  -0.37679  -0.37462  -0.37370
 Alpha  occ. eigenvalues --   -0.37122  -0.37004  -0.36955  -0.36615  -0.36556
 Alpha  occ. eigenvalues --   -0.35997  -0.35617  -0.34799  -0.34225  -0.34001
 Alpha  occ. eigenvalues --   -0.33682  -0.32924  -0.32872  -0.31594  -0.31070
 Alpha  occ. eigenvalues --   -0.30835  -0.30733  -0.30182  -0.29746  -0.29454
 Alpha  occ. eigenvalues --   -0.29035  -0.28949  -0.27297  -0.23776  -0.23169
 Alpha  occ. eigenvalues --   -0.21415  -0.20846
 Alpha virt. eigenvalues --   -0.09601  -0.08561  -0.02207  -0.01464  -0.00483
 Alpha virt. eigenvalues --    0.00147   0.01414   0.02388   0.03417   0.04012
 Alpha virt. eigenvalues --    0.04201   0.04954   0.05107   0.05335   0.06065

 Mulliken charges:
               1
     1  Mg   0.521170
     2  C   -0.002719
     3  C   -0.093982
     4  C    0.318077
     5  C   -0.068405
     6  N   -0.245354
     7  C   -0.051455
     8  C   -0.014794
     9  C   -0.082724
    10  C    0.042841
    11  C    0.104618
    12  C    0.040553
    13  C   -0.068225
    14  H    0.034530
    15  N   -0.487143
    16  C    0.177138
    17  C   -0.188083
    18  C    0.005597
    19  C   -0.010089
    20  C    0.113392
    21  C    0.008465
    22  O   -0.247561
    23  C    0.062777
    24  N   -0.329133
    25  C   -0.072362
    26  C   -0.018808
    27  C   -0.029775
    28  C    0.108284
    29  C    0.088205
    30  C    0.039448
    31  C   -0.004710
    32  N   -0.304212
    33  C    0.095094
    34  C   -0.165248
    35  C    0.010831
    36  C    0.086797
    37  C    0.126549
    38  C    0.046822
    39  O   -0.183647
    40  C   -0.005939
    41  C    0.214324
    42  O   -0.262038
    43  O   -0.303200
    44  C    0.157008
    45  H   -0.018244
    46  H   -0.000407
    47  H   -0.039414
    48  H    0.001372
    49  H   -0.004851
    50  H    0.024588
    51  H    0.020153
    52  H    0.016864
    53  H    0.014921
    54  H    0.043552
    55  H    0.020505
    56  H    0.020090
    57  H    0.004108
    58  H    0.025204
    59  H    0.037269
    60  H    0.038470
    61  H    0.037946
    62  H    0.031368
    63  H    0.019731
    64  H    0.006259
    65  H    0.020927
    66  H    0.007704
    67  H   -0.000109
    68  H    0.002360
    69  H   -0.004979
    70  H    0.027348
    71  H    0.002869
    72  H    0.035852
    73  H    0.049834
    74  H    0.014112
    75  H    0.048789
    76  H    0.036863
    77  H    0.045552
    78  H    0.046968
    79  H    0.052031
    80  Mg   0.838372
    81  C   -0.017108
    82  C   -0.095577
    83  C   -0.049602
    84  C   -0.065261
    85  N   -0.254663
    86  C   -0.049291
    87  C   -0.015300
    88  C   -0.089217
    89  C    0.044024
    90  C    0.114372
    91  C    0.062955
    92  C   -0.076783
    93  H    0.032907
    94  N   -0.425148
    95  C    0.162614
    96  C   -0.191793
    97  C    0.038073
    98  C    0.150303
    99  C    0.135610
   100  C    0.073724
   101  O   -0.253723
   102  C    0.153771
   103  N   -0.349911
   104  C    0.035886
   105  C   -0.019643
   106  C   -0.034618
   107  C    0.089017
   108  C    0.072330
   109  C    0.034901
   110  C   -0.007558
   111  N   -0.323922
   112  C    0.078244
   113  C   -0.163662
   114  C    0.002117
   115  C    0.096002
   116  C    0.131565
   117  C    0.041938
   118  O   -0.188844
   119  C    0.001119
   120  C    0.211170
   121  O   -0.251613
   122  O   -0.305408
   123  C    0.152331
   124  H   -0.003781
   125  H   -0.013473
   126  H   -0.041223
   127  H   -0.001028
   128  H   -0.005316
   129  H    0.019687
   130  H    0.021224
   131  H    0.020075
   132  H    0.012689
   133  H    0.036895
   134  H    0.021011
   135  H    0.018242
   136  H    0.011582
   137  H    0.076785
   138  H    0.090332
   139  H   -0.050538
   140  H   -0.071247
   141  H    0.067516
   142  H    0.014053
   143  H    0.012000
   144  H    0.023923
   145  H    0.013432
   146  H    0.005220
   147  H    0.005472
   148  H    0.003348
   149  H    0.011041
   150  H    0.017399
   151  H    0.030364
   152  H    0.045345
   153  H    0.008001
   154  H    0.046741
   155  H    0.035265
   156  H    0.043521
   157  H    0.049169
   158  H    0.053062
 Sum of Mulliken charges =  -0.00000

 Dipole moment (field-independent basis, Debye):
    X=              5.5149    Y=              3.1613    Z=              2.4527  Tot=              6.8135
 Quadrupole moment (field-independent basis, Debye-Ang):
   XX=           -555.8170   YY=           -472.9071   ZZ=           -506.1473
   XY=             15.8575   XZ=             19.5035   YZ=             44.5126

 Normal termination of Gaussian 16 at Thu Sep  9 11:25:09 2021.
