 Gaussian 16, Revision A.03,
 Gaussian 16:  ES64L-G16RevA.03 25-Dec-2016

 -----------------------------------
 #p cam-b3lyp/Def2SVP td=(nstates=5)
 -----------------------------------

 --------------------------------
 TDDFT excited states in gaussian
 --------------------------------
 Symbolic Z-matrix:
 Charge =  0 Multiplicity = 1

                         Standard orientation:
 ---------------------------------------------------------------------
 Center     Atomic      Atomic             Coordinates (Angstroms)
 Number     Number       Type             X           Y           Z
 ---------------------------------------------------------------------
      1         12           0        4.339270   -0.649919    0.563272
      2          6           0        4.985967    2.064756   -1.678276
      3          6           0        5.440264    1.366508    3.086148
      4          6           0        4.207469   -3.167760    2.486739
      5          6           0        4.380161   -2.757414   -2.212057
      6          7           0        5.090080    1.432568    0.576675
      7          6           0        5.232038    2.383820   -0.341006
      8          6           0        5.594407    3.774226    0.261352
      9          6           0        6.250491    3.291528    1.631955
     10          6           0        5.525691    1.967144    1.795035
     11          6           0        7.748291    3.022314    1.528906
     12          6           0        4.328846    4.661192    0.513103
     13          6           0        4.612271    6.140557    0.789699
     14          1           0        3.679518    7.138102    0.287481
     15          7           0        4.292080   -0.754437    2.535504
     16          6           0        4.771554    0.165345    3.406934
     17          6           0        4.498695   -0.371625    4.757449
     18          6           0        3.993177   -1.763664    4.600054
     19          6           0        4.171087   -1.962747    3.184395
     20          6           0        4.673421    0.428330    6.011758
     21          6           0        3.447650   -2.760571    5.573045
     22          8           0        3.283124   -3.990750    5.266183
     23          6           0        3.190597   -2.271772    6.939808
     24          7           0        4.516784   -2.702866    0.229308
     25          6           0        4.361169   -3.580249    1.226788
     26          6           0        4.249655   -4.983088    0.707607
     27          6           0        4.117512   -4.858140   -0.878797
     28          6           0        4.266642   -3.322107   -1.007772
     29          6           0        5.417478   -5.918359    1.050342
     30          6           0        2.891315   -5.538068   -1.538008
     31          6           0        1.623707   -4.827601   -1.119077
     32          7           0        4.451568   -0.402392   -1.590136
     33          6           0        4.476095   -1.419255   -2.555569
     34          6           0        4.667591   -0.767786   -3.864380
     35          6           0        4.758348    0.590300   -3.565699
     36          6           0        4.657871    0.773161   -2.156885
     37          6           0        4.794434   -1.432935   -5.115748
     38          6           0        4.941514    1.927320   -4.106702
     39          8           0        4.989105    2.404665   -5.241325
     40          6           0        5.218289    2.924127   -2.896082
     41          6           0        4.335078    4.126998   -3.086737
     42          8           0        3.094197    4.030389   -2.995921
     43          8           0        5.091638    5.235001   -3.108818
     44          6           0        4.273962    6.467451   -3.265749
     45          1           0        5.982141    1.822226    3.917190
     46          1           0        4.053737   -4.055922    3.103159
     47          1           0        4.318290   -3.343591   -3.130764
     48          1           0        6.320114    4.345342   -0.317957
     49          1           0        6.007582    3.960572    2.457241
     50          1           0        8.093850    3.082651    0.496981
     51          1           0        7.890440    2.014549    1.919672
     52          1           0        8.307101    3.682627    2.192604
     53          1           0        3.874978    4.378501    1.462919
     54          1           0        3.627677    4.577696   -0.317991
     55          1           0        5.635771    6.406723    0.524159
     56          1           0        4.560867    6.302661    1.866398
     57          1           0        5.213899    1.355173    5.823634
     58          1           0        5.333051   -0.143065    6.664525
     59          1           0        3.725025    0.611779    6.516954
     60          1           0        4.118483   -1.889463    7.365740
     61          1           0        2.719729   -3.098125    7.471102
     62          1           0        2.505006   -1.425408    6.889001
     63          1           0        3.362484   -5.476722    1.102168
     64          1           0        4.972897   -5.293419   -1.396022
     65          1           0        5.114303   -6.820776    1.581787
     66          1           0        6.145813   -5.350212    1.628294
     67          1           0        6.016611   -6.233342    0.196385
     68          1           0        2.805381   -6.571360   -1.203539
     69          1           0        2.936714   -5.544696   -2.627111
     70          1           0        1.395541   -5.284070   -0.156576
     71          1           0        0.826563   -5.015598   -1.839097
     72          1           0        1.801754   -3.766651   -0.942525
     73          1           0        4.187086   -0.869204   -5.823776
     74          1           0        4.464754   -2.469460   -5.048439
     75          1           0        5.867974   -1.346208   -5.282624
     76          1           0        6.276025    3.182116   -2.938003
     77          1           0        4.654773    6.996188   -4.139622
     78          1           0        4.306777    6.985259   -2.306998
     79          1           0        3.231735    6.321296   -3.551654
     80         12           0       -4.557635    0.598485    0.329467
     81          6           0       -4.284993   -1.756859   -2.364425
     82          6           0       -5.163621   -2.052857    2.388051
     83          6           0       -5.247819    2.670574    2.631118
     84          6           0       -5.066484    3.073717   -2.070529
     85          7           0       -4.681978   -1.575949   -0.056019
     86          6           0       -4.499793   -2.360211   -1.107730
     87          6           0       -4.470760   -3.877495   -0.781295
     88          6           0       -5.313994   -3.845680    0.585018
     89          6           0       -5.011309   -2.415023    1.025795
     90          6           0       -6.813046   -3.972231    0.370155
     91          6           0       -3.013956   -4.410275   -0.544936
     92          6           0       -2.881680   -5.934721   -0.527318
     93          1           0       -1.671375   -6.534799   -1.081890
     94          7           0       -4.638638    0.352462    2.297078
     95          6           0       -4.872176   -0.797022    2.964478
     96          6           0       -4.850182   -0.444653    4.392597
     97          6           0       -4.748442    1.035481    4.509028
     98          6           0       -4.898596    1.420101    3.119922
     99          6           0       -4.842542   -1.474472    5.484773
    100          6           0       -4.561442    1.953654    5.678721
    101          8           0       -4.739868    3.218806    5.576900
    102          6           0       -4.254576    1.318176    6.968487
    103          7           0       -5.290599    2.543836    0.302068
    104          6           0       -5.449941    3.238684    1.442122
    105          6           0       -5.723362    4.696528    1.158705
    106          6           0       -5.473752    4.883432   -0.409844
    107          6           0       -5.172684    3.418245   -0.794522
    108          6           0       -7.125381    5.191572    1.513202
    109          6           0       -4.461757    5.982262   -0.835412
    110          6           0       -3.066351    5.594556   -0.401917
    111          7           0       -4.479910    0.713843   -1.826612
    112          6           0       -4.752792    1.842047   -2.630846
    113          6           0       -4.681403    1.400570   -4.038834
    114          6           0       -4.392333    0.030198   -3.954976
    115          6           0       -4.310693   -0.359419   -2.590783
    116          6           0       -4.919475    2.217529   -5.179894
    117          6           0       -4.148202   -1.177574   -4.710215
    118          8           0       -4.006155   -1.442273   -5.903317
    119          6           0       -4.192856   -2.414705   -3.713262
    120          6           0       -2.993216   -3.278565   -3.990991
    121          8           0       -1.844695   -2.854138   -3.773347
    122          8           0       -3.404843   -4.531133   -4.259348
    123          6           0       -2.250072   -5.428193   -4.530662
    124          1           0       -5.586149   -2.786007    3.075687
    125          1           0       -5.387771    3.449117    3.384615
    126          1           0       -5.116253    3.806172   -2.879054
    127          1           0       -4.966305   -4.508365   -1.509450
    128          1           0       -4.923129   -4.557890    1.307068
    129          1           0       -7.073711   -3.943864   -0.677405
    130          1           0       -7.256881   -3.135328    0.893272
    131          1           0       -7.190254   -4.871543    0.865427
    132          1           0       -2.712649   -4.183615    0.485887
    133          1           0       -2.335501   -3.996998   -1.265722
    134          1           0       -3.774487   -6.430578   -0.927282
    135          1           0       -2.833800   -6.266896    0.512582
    136          1           0       -5.090393   -2.471245    5.099516
    137          1           0       -5.669990   -1.230725    6.159879
    138          1           0       -3.910792   -1.477412    6.054416
    139          1           0       -5.052316    0.626768    7.229282
    140          1           0       -4.068124    2.140228    7.662271
    141          1           0       -3.343722    0.719648    6.855665
    142          1           0       -5.034923    5.331895    1.702264
    143          1           0       -6.396507    5.163928   -0.938688
    144          1           0       -7.121880    6.044766    2.217563
    145          1           0       -7.686650    4.362402    1.923077
    146          1           0       -7.738705    5.488487    0.664161
    147          1           0       -4.692346    6.924700   -0.332621
    148          1           0       -4.460479    6.178408   -1.902419
    149          1           0       -3.033838    5.917572    0.642925
    150          1           0       -2.320959    6.115492   -0.999475
    151          1           0       -2.938531    4.505915   -0.414514
    152          1           0       -4.148391    1.978609   -5.900207
    153          1           0       -4.909388    3.274321   -4.921338
    154          1           0       -5.918279    1.873289   -5.461263
    155          1           0       -5.129196   -2.945024   -3.890985
    156          1           0       -2.421004   -5.881055   -5.512186
    157          1           0       -2.193047   -6.112401   -3.663281
    158          1           0       -1.280418   -4.966760   -4.676614
 ---------------------------------------------------------------------

 SCF Done:  E(RCAM-B3LYP) =  -4069.81159896     A.U. after   19 cycles

 Excitation energies and oscillator strengths:

 Excited State   1:      Singlet-A      1.6465 eV  753.00 nm  f=0.0041  <S**2>=0.000
     309 -> 316        0.11957
     310 -> 315       -0.11260
     311 -> 313        0.50162
     312 -> 314       -0.47044
 This state for optimization and/or second-order correction.
 Total Energy, E(TD-HF/TD-DFT) =  -4069.75109017
 Copying the excited state density for this state as the 1-particle RhoCI density.

 Excited State   2:      Singlet-A      1.7026 eV  728.19 nm  f=0.6986  <S**2>=0.000
     309 -> 316        0.12131
     310 -> 315        0.12993
     311 -> 313        0.46813
     312 -> 314        0.49895

 Excited State   3:      Singlet-A      2.1806 eV  568.58 nm  f=0.0154  <S**2>=0.000
     309 -> 313        0.54048
     310 -> 314        0.35150
     311 -> 316       -0.22200
     312 -> 315       -0.14356

 Excited State   4:      Singlet-A      2.1937 eV  565.19 nm  f=0.1623  <S**2>=0.000
     309 -> 313       -0.34780
     310 -> 314        0.53599
     311 -> 316        0.15105
     312 -> 315       -0.23256

 Excited State   5:      Singlet-A      2.4565 eV  504.71 nm  f=0.0000  <S**2>=0.000
     312 -> 313        0.70706

 The electronic state is 1-A.
 Alpha  occ. eigenvalues --  -46.87557 -46.87493 -19.26329 -19.26084 -19.19106
 Alpha  occ. eigenvalues --  -19.18792 -19.18695 -19.18625 -19.17919 -19.17891
 Alpha  occ. eigenvalues --  -14.42339 -14.42219 -14.41222 -14.41195 -14.39195
 Alpha  occ. eigenvalues --  -14.39178 -14.38421 -14.38325 -10.39022 -10.38854
 Alpha  occ. eigenvalues --  -10.35337 -10.35307 -10.34138 -10.34072 -10.31826
 Alpha  occ. eigenvalues --  -10.31517 -10.31154 -10.31139 -10.30889 -10.30708
 Alpha  occ. eigenvalues --  -10.30309 -10.30266 -10.30231 -10.30182 -10.30003
 Alpha  occ. eigenvalues --  -10.29987 -10.29724 -10.29682 -10.29390 -10.29279
 Alpha  occ. eigenvalues --  -10.29236 -10.29031 -10.28602 -10.28599 -10.28552
 Alpha  occ. eigenvalues --  -10.28371 -10.28250 -10.28138 -10.28004 -10.27911
 Alpha  occ. eigenvalues --  -10.27833 -10.27552 -10.27506 -10.27495 -10.27366
 Alpha  occ. eigenvalues --  -10.27353 -10.27334 -10.27333 -10.27315 -10.27313
 Alpha  occ. eigenvalues --  -10.27310 -10.27278 -10.27228 -10.27174 -10.26930
 Alpha  occ. eigenvalues --  -10.26929 -10.26582 -10.26513 -10.26389 -10.26376
 Alpha  occ. eigenvalues --  -10.26047 -10.25980 -10.25936 -10.25904 -10.25768
 Alpha  occ. eigenvalues --  -10.25756 -10.25611 -10.25495 -10.25303 -10.25281
 Alpha  occ. eigenvalues --  -10.24700 -10.24579 -10.24573 -10.24535 -10.24469
 Alpha  occ. eigenvalues --  -10.24372  -3.16299  -3.16242  -1.91180  -1.91124
 Alpha  occ. eigenvalues --   -1.90767  -1.90714  -1.90609  -1.90550  -1.16613
 Alpha  occ. eigenvalues --   -1.16428  -1.08503  -1.08373  -1.07106  -1.06883
 Alpha  occ. eigenvalues --   -1.06882  -1.06417  -1.04353  -1.04340  -1.03535
 Alpha  occ. eigenvalues --   -1.03504  -1.02995  -1.02872  -1.02174  -1.01944
 Alpha  occ. eigenvalues --   -0.91837  -0.91737  -0.89325  -0.89296  -0.89018
 Alpha  occ. eigenvalues --   -0.88981  -0.88079  -0.88057  -0.87605  -0.87592
 Alpha  occ. eigenvalues --   -0.87526  -0.87448  -0.87093  -0.86992  -0.84871
 Alpha  occ. eigenvalues --   -0.84780  -0.83721  -0.83713  -0.82832  -0.82827
 Alpha  occ. eigenvalues --   -0.82538  -0.82456  -0.81501  -0.81369  -0.80387
 Alpha  occ. eigenvalues --   -0.80326  -0.78584  -0.78483  -0.77002  -0.76992
 Alpha  occ. eigenvalues --   -0.76782  -0.76728  -0.75721  -0.75710  -0.74699
 Alpha  occ. eigenvalues --   -0.74663  -0.72533  -0.72529  -0.71461  -0.71441
 Alpha  occ. eigenvalues --   -0.69678  -0.69573  -0.68698  -0.68670  -0.67463
 Alpha  occ. eigenvalues --   -0.67430  -0.67088  -0.67036  -0.65143  -0.65073
 Alpha  occ. eigenvalues --   -0.64630  -0.64627  -0.64530  -0.64411  -0.64051
 Alpha  occ. eigenvalues --   -0.64043  -0.62190  -0.62086  -0.60254  -0.60202
 Alpha  occ. eigenvalues --   -0.59654  -0.59588  -0.58842  -0.58763  -0.58284
 Alpha  occ. eigenvalues --   -0.58282  -0.57436  -0.57351  -0.57104  -0.57093
 Alpha  occ. eigenvalues --   -0.56087  -0.56059  -0.55813  -0.55780  -0.55348
 Alpha  occ. eigenvalues --   -0.55332  -0.55126  -0.55109  -0.54364  -0.54312
 Alpha  occ. eigenvalues --   -0.53786  -0.53691  -0.53114  -0.53096  -0.53024
 Alpha  occ. eigenvalues --   -0.53013  -0.52787  -0.52708  -0.52595  -0.52571
 Alpha  occ. eigenvalues --   -0.52210  -0.52199  -0.51679  -0.51614  -0.51544
 Alpha  occ. eigenvalues --   -0.51420  -0.51055  -0.50962  -0.50438  -0.50367
 Alpha  occ. eigenvalues --   -0.49881  -0.49805  -0.49751  -0.49710  -0.49376
 Alpha  occ. eigenvalues --   -0.49329  -0.49079  -0.49001  -0.48966  -0.48888
 Alpha  occ. eigenvalues --   -0.48438  -0.48371  -0.48301  -0.48245  -0.48235
 Alpha  occ. eigenvalues --   -0.48231  -0.47502  -0.47471  -0.47102  -0.46991
 Alpha  occ. eigenvalues --   -0.46572  -0.46551  -0.46431  -0.46358  -0.46133
 Alpha  occ. eigenvalues --   -0.46120  -0.45940  -0.45928  -0.45688  -0.45573
 Alpha  occ. eigenvalues --   -0.45062  -0.45003  -0.44392  -0.44373  -0.44333
 Alpha  occ. eigenvalues --   -0.44296  -0.44007  -0.43938  -0.43918  -0.43890
 Alpha  occ. eigenvalues --   -0.43831  -0.43804  -0.43460  -0.43271  -0.43255
 Alpha  occ. eigenvalues --   -0.43180  -0.42851  -0.42805  -0.42755  -0.42492
 Alpha  occ. eigenvalues --   -0.42430  -0.42386  -0.41799  -0.41771  -0.41521
 Alpha  occ. eigenvalues --   -0.41484  -0.41331  -0.41324  -0.40935  -0.40848
 Alpha  occ. eigenvalues --   -0.40707  -0.40651  -0.40626  -0.40570  -0.40361
 Alpha  occ. eigenvalues --   -0.40331  -0.40120  -0.40051  -0.39245  -0.39197
 Alpha  occ. eigenvalues --   -0.38268  -0.38196  -0.37558  -0.37532  -0.37116
 Alpha  occ. eigenvalues --   -0.37100  -0.37057  -0.37047  -0.36699  -0.36497
 Alpha  occ. eigenvalues --   -0.36081  -0.35976  -0.34092  -0.34047  -0.33780
 Alpha  occ. eigenvalues --   -0.33540  -0.33015  -0.32948  -0.31226  -0.31183
 Alpha  occ. eigenvalues --   -0.30823  -0.30814  -0.29797  -0.29775  -0.29236
 Alpha  occ. eigenvalues --   -0.29178  -0.29057  -0.29031  -0.23874  -0.23844
 Alpha  occ. eigenvalues --   -0.20952  -0.20891
 Alpha virt. eigenvalues --   -0.08632  -0.08545  -0.01530  -0.01529   0.00099
 Alpha virt. eigenvalues --    0.00126   0.02367   0.02443   0.02985   0.03875
 Alpha virt. eigenvalues --    0.04727   0.04941   0.05212   0.05322   0.05803

 Mulliken charges:
               1
     1  Mg   0.840115
     2  C   -0.003029
     3  C   -0.094208
     4  C   -0.046396
     5  C   -0.061172
     6  N   -0.256700
     7  C   -0.052262
     8  C   -0.014095
     9  C   -0.086912
    10  C    0.045981
    11  C    0.104956
    12  C    0.053455
    13  C   -0.071380
    14  H    0.035262
    15  N   -0.432797
    16  C    0.167903
    17  C   -0.177783
    18  C   -0.004971
    19  C    0.148318
    20  C    0.110349
    21  C    0.011084
    22  O   -0.251289
    23  C    0.062981
    24  N   -0.341248
    25  C    0.041164
    26  C   -0.027749
    27  C   -0.023774
    28  C    0.075066
    29  C    0.076503
    30  C    0.034633
    31  C   -0.007224
    32  N   -0.311349
    33  C    0.083006
    34  C   -0.165704
    35  C    0.008504
    36  C    0.084787
    37  C    0.127050
    38  C    0.047386
    39  O   -0.187891
    40  C   -0.005917
    41  C    0.212822
    42  O   -0.256153
    43  O   -0.304966
    44  C    0.158004
    45  H   -0.018302
    46  H   -0.018215
    47  H   -0.040762
    48  H    0.000658
    49  H   -0.004309
    50  H    0.025209
    51  H    0.016272
    52  H    0.016123
    53  H    0.011580
    54  H    0.044274
    55  H    0.017599
    56  H    0.018013
    57  H    0.005851
    58  H    0.025925
    59  H    0.038479
    60  H    0.037722
    61  H    0.033670
    62  H    0.030281
    63  H    0.015289
    64  H    0.008847
    65  H    0.021900
    66  H    0.012439
    67  H    0.004365
    68  H    0.003254
    69  H    0.004444
    70  H    0.005050
    71  H    0.023041
    72  H    0.033971
    73  H    0.050496
    74  H    0.010145
    75  H    0.044755
    76  H    0.034633
    77  H    0.042598
    78  H    0.045979
    79  H    0.053203
    80  Mg   0.838813
    81  C   -0.016843
    82  C   -0.087338
    83  C   -0.045738
    84  C   -0.063902
    85  N   -0.254529
    86  C   -0.049828
    87  C   -0.015833
    88  C   -0.090382
    89  C    0.045499
    90  C    0.114456
    91  C    0.061611
    92  C   -0.078692
    93  H    0.033353
    94  N   -0.423312
    95  C    0.162663
    96  C   -0.174970
    97  C   -0.008517
    98  C    0.151943
    99  C    0.099591
   100  C    0.014747
   101  O   -0.254004
   102  C    0.061653
   103  N   -0.350156
   104  C    0.037517
   105  C   -0.019557
   106  C   -0.034979
   107  C    0.089289
   108  C    0.073895
   109  C    0.034658
   110  C   -0.007461
   111  N   -0.324680
   112  C    0.079950
   113  C   -0.160667
   114  C    0.002532
   115  C    0.097562
   116  C    0.131126
   117  C    0.043614
   118  O   -0.187589
   119  C    0.000081
   120  C    0.211001
   121  O   -0.250233
   122  O   -0.305345
   123  C    0.151137
   124  H   -0.019995
   125  H   -0.016291
   126  H   -0.039754
   127  H   -0.001165
   128  H   -0.004055
   129  H    0.022156
   130  H    0.014373
   131  H    0.015971
   132  H    0.015544
   133  H    0.039286
   134  H    0.020485
   135  H    0.020673
   136  H    0.009151
   137  H    0.025428
   138  H    0.039289
   139  H    0.038520
   140  H    0.035099
   141  H    0.032735
   142  H    0.013874
   143  H    0.012053
   144  H    0.024409
   145  H    0.011377
   146  H    0.005430
   147  H    0.005015
   148  H    0.004268
   149  H    0.008887
   150  H    0.019952
   151  H    0.032150
   152  H    0.048144
   153  H    0.009257
   154  H    0.046104
   155  H    0.034663
   156  H    0.044072
   157  H    0.048725
   158  H    0.053192
 Sum of Mulliken charges =  -0.00000

 Dipole moment (field-independent basis, Debye):
    X=              0.1933    Y=             -1.0287    Z=              6.5551  Tot=              6.6381
 Quadrupole moment (field-independent basis, Debye-Ang):
   XX=           -483.4913   YY=           -463.3602   ZZ=           -539.0516
   XY=             17.6393   XZ=             12.1583   YZ=              7.7020

 Normal termination of Gaussian 16 at Thu Sep  9 18:26:52 2021.
