 Gaussian 16, Revision A.03,
 Gaussian 16:  ES64L-G16RevA.03 25-Dec-2016

 -----------------------------------
 #p cam-b3lyp/Def2SVP td=(nstates=5)
 -----------------------------------

 --------------------------------
 TDDFT excited states in gaussian
 --------------------------------
 Symbolic Z-matrix:
 Charge =  0 Multiplicity = 1

                         Standard orientation:
 ---------------------------------------------------------------------
 Center     Atomic      Atomic             Coordinates (Angstroms)
 Number     Number       Type             X           Y           Z
 ---------------------------------------------------------------------
      1         12           0        7.814114   -0.856469    0.308227
      2          6           0        8.291478    2.046340   -1.730898
      3          6           0        8.923083    0.998765    2.948560
      4          6           0        7.833835   -3.518972    2.030816
      5          6           0        7.840851   -2.739491   -2.624208
      6          7           0        8.490375    1.245732    0.463361
      7          6           0        8.568848    2.269938   -0.380448
      8          6           0        8.900656    3.622247    0.318507
      9          6           0        9.617174    3.060067    1.627153
     10          6           0        8.945579    1.700452    1.706722
     11          6           0       11.119526    2.856742    1.459519
     12          6           0        7.613067    4.438318    0.676098
     13          6           0        7.852396    5.901497    1.059742
     14          1           0        6.869087    6.898803    0.664986
     15          7           0        7.834023   -1.115217    2.266672
     16          6           0        8.308191   -0.248178    3.193328
     17          6           0        8.098120   -0.898161    4.504844
     18          6           0        7.637672   -2.292014    4.253338
     19          6           0        7.777009   -2.373897    2.821815
     20          6           0        8.284450   -0.191747    5.812518
     21          6           0        7.159495   -3.381321    5.160470
     22          8           0        7.029087   -4.589383    4.762783
     23          6           0        6.929226   -3.010021    6.568360
     24          7           0        8.053765   -2.869135   -0.191151
     25          6           0        7.961583   -3.826451    0.738383
     26          6           0        7.883455   -5.188061    0.114001
     27          6           0        7.696078   -4.945670   -1.453127
     28          6           0        7.786228   -3.399709   -1.465244
     29          6           0        9.094227   -6.102037    0.347860
     30          6           0        6.474324   -5.618563   -2.127628
     31          6           0        5.196338   -4.991364   -1.617263
     32          7           0        7.848330   -0.438734   -1.821414
     33          6           0        7.878020   -1.376061   -2.864108
     34          6           0        8.004085   -0.618330   -4.122685
     35          6           0        8.055994    0.714993   -3.720938
     36          6           0        7.994360    0.784187   -2.299775
     37          6           0        8.114276   -1.179212   -5.425645
     38          6           0        8.173993    2.095905   -4.160272
     39          8           0        8.168110    2.661197   -5.254759
     40          6           0        8.453845    3.005698   -2.883640
     41          6           0        7.522717    4.185302   -2.953236
     42          8           0        6.289617    4.034876   -2.834064
     43          8           0        8.238264    5.319624   -2.910244
     44          6           0        7.372626    6.528573   -2.945825
     45          1           0        9.474801    1.408972    3.796663
     46          1           0        7.731681   -4.457426    2.579731
     47          1           0        7.770415   -3.254641   -3.583954
     48          1           0        9.586603    4.263692   -0.235072
     49          1           0        9.377232    3.653437    2.509232
     50          1           0       11.429406    3.009945    0.425874
     51          1           0       11.309924    1.827858    1.765522
     52          1           0       11.675503    3.484392    2.156458
     53          1           0        7.200279    4.065839    1.613609
     54          1           0        6.888990    4.392897   -0.138135
     55          1           0        8.856721    6.226129    0.786145
     56          1           0        7.829854    5.977612    2.146894
     57          1           0        8.785279    0.766748    5.682125
     58          1           0        8.984617   -0.786534    6.398780
     59          1           0        7.346835   -0.084158    6.358078
     60          1           0        7.856114   -2.626894    6.995725
     61          1           0        6.505368   -3.892348    7.046578
     62          1           0        6.212669   -2.188922    6.604313
     63          1           0        7.027540   -5.744130    0.494294
     64          1           0        8.549365   -5.306750   -2.027755
     65          1           0        8.840581   -7.053785    0.815347
     66          1           0        9.820061   -5.553125    0.947153
     67          1           0        9.676462   -6.326912   -0.545365
     68          1           0        6.436002   -6.677182   -1.873062
     69          1           0        6.484937   -5.539048   -3.214741
     70          1           0        5.015585   -5.529381   -0.687371
     71          1           0        4.383682   -5.153149   -2.326224
     72          1           0        5.342090   -3.941289   -1.363126
     73          1           0        7.464829   -0.585792   -6.069105
     74          1           0        7.824026   -2.229609   -5.430428
     75          1           0        9.178136   -1.039094   -5.616495
     76          1           0        9.499838    3.306155   -2.936049
     77          1           0        7.706122    7.137520   -3.786181
     78          1           0        7.417759    6.971403   -1.950702
     79          1           0        6.327619    6.365525   -3.211748
     80         12           0       -7.981828    0.786584    0.517000
     81          6           0       -8.124444   -2.351506   -1.218248
     82          6           0       -6.993432    2.199001   -2.426258
     83          6           0       -7.412485    3.470449    2.110783
     84          6           0       -7.860375   -1.022826    3.493066
     85          7           0       -7.639999   -0.069292   -1.493692
     86          6           0       -7.785620   -1.263025   -2.048808
     87          6           0       -7.633710   -1.276849   -3.593570
     88          6           0       -6.734842    0.043623   -3.758634
     89          6           0       -7.170130    0.794300   -2.501782
     90          6           0       -5.242861   -0.227801   -3.660209
     91          6           0       -9.010941   -1.130068   -4.330948
     92          6           0       -8.975479   -1.444336   -5.828189
     93          1           0      -10.138294   -2.089383   -6.431724
     94          7           0       -7.780894    2.649916   -0.135837
     95          6           0       -7.392071    3.043379   -1.366813
     96          6           0       -7.384243    4.514131   -1.335306
     97          6           0       -7.640849    4.954742    0.062806
     98          6           0       -7.599811    3.680823    0.752395
     99          6           0       -7.227695    5.353647   -2.569864
    100          6           0       -7.870778    6.301326    0.679296
    101          8           0       -7.836185    6.475515    1.948660
    102          6           0       -8.044848    7.426883   -0.250388
    103          7           0       -7.467148    1.169989    2.494480
    104          6           0       -7.330266    2.430786    2.941230
    105          6           0       -7.230996    2.467978    4.447605
    106          6           0       -7.573908    0.984751    4.937512
    107          6           0       -7.731653    0.294927    3.564681
    108          6           0       -5.875919    2.890481    5.014746
    109          6           0       -8.718631    0.833744    5.976490
    110          6           0      -10.041291    1.203233    5.344481
    111          7           0       -8.174264   -1.289323    1.084118
    112          6           0       -8.064450   -1.832428    2.382984
    113          6           0       -8.154335   -3.300974    2.249860
    114          6           0       -8.288179   -3.513261    0.869456
    115          6           0       -8.261842   -2.266289    0.188379
    116          6           0       -8.061248   -4.240110    3.315445
    117          6           0       -8.435073   -4.509322   -0.167355
    118          8           0       -8.604121   -5.727883   -0.183617
    119          6           0       -8.208573   -3.809358   -1.576302
    120          6           0       -9.318884   -4.242498   -2.493969
    121          8           0      -10.495100   -3.910979   -2.263295
    122          8           0       -8.786606   -4.788409   -3.602583
    123          6           0       -9.848456   -5.223591   -4.548583
    124          1           0       -6.461335    2.699243   -3.235888
    125          1           0       -7.322378    4.373015    2.719661
    126          1           0       -7.929208   -1.651867    4.383150
    127          1           0       -7.107690   -2.136750   -3.990617
    128          1           0       -7.011002    0.600524   -4.650236
    129          1           0       -5.037031   -1.249269   -3.376699
    130          1           0       -4.868364    0.455955   -2.909694
    131          1           0       -4.746828    0.049391   -4.594797
    132          1           0       -9.285683   -0.068065   -4.368337
    133          1           0       -9.763913   -1.727018   -3.854157
    134          1           0       -8.054067   -1.963546   -6.118670
    135          1           0       -8.937318   -0.501839   -6.379780
    136          1           0       -6.891436    4.753562   -3.424399
    137          1           0       -6.400483    6.046793   -2.382425
    138          1           0       -8.125386    5.929811   -2.804063
    139          1           0       -7.165060    7.511422   -0.883858
    140          1           0       -8.286420    8.288167    0.375474
    141          1           0       -8.889456    7.206241   -0.912629
    142          1           0       -7.957842    3.153203    4.866261
    143          1           0       -6.713417    0.509477    5.430988
    144          1           0       -5.938724    3.764756    5.689857
    145          1           0       -5.208836    3.095572    4.188031
    146          1           0       -5.339707    2.113541    5.557005
    147          1           0       -8.568321    1.525675    6.808830
    148          1           0       -8.792078   -0.163924    6.396307
    149          1           0      -10.058976    2.293943    5.428849
    150          1           0      -10.866566    0.751625    5.891300
    151          1           0      -10.050285    0.955008    4.276797
    152          1           0       -8.835167   -4.977567    3.149002
    153          1           0       -8.173994   -3.755837    4.283198
    154          1           0       -7.045457   -4.612780    3.158794
    155          1           0       -7.229591   -4.120353   -1.942992
    156          1           0       -9.676184   -6.284190   -4.756319
    157          1           0       -9.789268   -4.526391   -5.405400
    158          1           0      -10.868419   -5.242666   -4.182863
 ---------------------------------------------------------------------

 SCF Done:  E(RCAM-B3LYP) =  -4069.81190018     A.U. after   19 cycles

 Excitation energies and oscillator strengths:

 Excited State   1:      Singlet-A      1.6735 eV  740.86 nm  f=0.2438  <S**2>=0.000
     310 -> 316        0.15141
     311 -> 313        0.33086
     312 -> 314        0.60106
 This state for optimization and/or second-order correction.
 Total Energy, E(TD-HF/TD-DFT) =  -4069.75039918
 Copying the excited state density for this state as the 1-particle RhoCI density.

 Excited State   2:      Singlet-A      1.6815 eV  737.34 nm  f=0.5061  <S**2>=0.000
     309 -> 315        0.15417
     311 -> 313        0.60059
     312 -> 314       -0.33071

 Excited State   3:      Singlet-A      2.1860 eV  567.17 nm  f=0.0948  <S**2>=0.000
     310 -> 314        0.64051
     312 -> 316       -0.27194

 Excited State   4:      Singlet-A      2.1927 eV  565.43 nm  f=0.1039  <S**2>=0.000
     309 -> 313        0.63870
     311 -> 315       -0.27747

 Excited State   5:      Singlet-A      2.7635 eV  448.65 nm  f=0.0000  <S**2>=0.000
     312 -> 313        0.70710

 The electronic state is 1-A.
 Alpha  occ. eigenvalues --  -46.87839 -46.87587 -19.26355 -19.26284 -19.19096
 Alpha  occ. eigenvalues --  -19.19092 -19.18846 -19.18652 -19.18225 -19.17983
 Alpha  occ. eigenvalues --  -14.42492 -14.42419 -14.41489 -14.41290 -14.39444
 Alpha  occ. eigenvalues --  -14.39279 -14.38631 -14.38528 -10.39149 -10.39025
 Alpha  occ. eigenvalues --  -10.35478 -10.35329 -10.34446 -10.34160 -10.31755
 Alpha  occ. eigenvalues --  -10.31695 -10.31450 -10.31227 -10.30950 -10.30942
 Alpha  occ. eigenvalues --  -10.30615 -10.30550 -10.30330 -10.30287 -10.30242
 Alpha  occ. eigenvalues --  -10.30074 -10.29961 -10.29832 -10.29674 -10.29363
 Alpha  occ. eigenvalues --  -10.29331 -10.29294 -10.28793 -10.28627 -10.28583
 Alpha  occ. eigenvalues --  -10.28569 -10.28408 -10.28330 -10.28158 -10.28035
 Alpha  occ. eigenvalues --  -10.27928 -10.27838 -10.27768 -10.27625 -10.27585
 Alpha  occ. eigenvalues --  -10.27531 -10.27514 -10.27477 -10.27472 -10.27448
 Alpha  occ. eigenvalues --  -10.27410 -10.27395 -10.27375 -10.27332 -10.27214
 Alpha  occ. eigenvalues --  -10.26979 -10.26752 -10.26608 -10.26434 -10.26352
 Alpha  occ. eigenvalues --  -10.26272 -10.26211 -10.26103 -10.26060 -10.25900
 Alpha  occ. eigenvalues --  -10.25888 -10.25867 -10.25791 -10.25457 -10.25364
 Alpha  occ. eigenvalues --  -10.24880 -10.24827 -10.24801 -10.24716 -10.24697
 Alpha  occ. eigenvalues --  -10.24623  -3.16582  -3.16337  -1.91463  -1.91220
 Alpha  occ. eigenvalues --   -1.91050  -1.90892  -1.90808  -1.90645  -1.16703
 Alpha  occ. eigenvalues --   -1.16578  -1.08685  -1.08591  -1.07246  -1.06905
 Alpha  occ. eigenvalues --   -1.06880  -1.06714  -1.04623  -1.04417  -1.03801
 Alpha  occ. eigenvalues --   -1.03591  -1.03276  -1.02970  -1.02453  -1.02040
 Alpha  occ. eigenvalues --   -0.92019  -0.91914  -0.89556  -0.89435  -0.89230
 Alpha  occ. eigenvalues --   -0.89057  -0.88321  -0.88166  -0.87919  -0.87725
 Alpha  occ. eigenvalues --   -0.87714  -0.87607  -0.87311  -0.87046  -0.85024
 Alpha  occ. eigenvalues --   -0.84916  -0.83972  -0.83826  -0.82999  -0.82867
 Alpha  occ. eigenvalues --   -0.82691  -0.82574  -0.81640  -0.81528  -0.80643
 Alpha  occ. eigenvalues --   -0.80372  -0.78837  -0.78562  -0.77259  -0.77068
 Alpha  occ. eigenvalues --   -0.76979  -0.76826  -0.75970  -0.75755  -0.74934
 Alpha  occ. eigenvalues --   -0.74746  -0.72817  -0.72628  -0.71713  -0.71507
 Alpha  occ. eigenvalues --   -0.69939  -0.69709  -0.68915  -0.68746  -0.67684
 Alpha  occ. eigenvalues --   -0.67532  -0.67261  -0.67122  -0.65331  -0.65190
 Alpha  occ. eigenvalues --   -0.64900  -0.64700  -0.64665  -0.64581  -0.64306
 Alpha  occ. eigenvalues --   -0.64146  -0.62354  -0.62213  -0.60478  -0.60271
 Alpha  occ. eigenvalues --   -0.59847  -0.59710  -0.59030  -0.58923  -0.58548
 Alpha  occ. eigenvalues --   -0.58357  -0.57640  -0.57485  -0.57350  -0.57174
 Alpha  occ. eigenvalues --   -0.56354  -0.56132  -0.56036  -0.55816  -0.55561
 Alpha  occ. eigenvalues --   -0.55382  -0.55381  -0.55191  -0.54572  -0.54431
 Alpha  occ. eigenvalues --   -0.53938  -0.53821  -0.53340  -0.53264  -0.53160
 Alpha  occ. eigenvalues --   -0.53067  -0.52964  -0.52829  -0.52792  -0.52589
 Alpha  occ. eigenvalues --   -0.52472  -0.52356  -0.51967  -0.51821  -0.51660
 Alpha  occ. eigenvalues --   -0.51577  -0.51242  -0.51134  -0.50604  -0.50402
 Alpha  occ. eigenvalues --   -0.50064  -0.49955  -0.49902  -0.49807  -0.49555
 Alpha  occ. eigenvalues --   -0.49411  -0.49261  -0.49140  -0.49124  -0.49021
 Alpha  occ. eigenvalues --   -0.48642  -0.48498  -0.48485  -0.48481  -0.48321
 Alpha  occ. eigenvalues --   -0.48269  -0.47735  -0.47520  -0.47336  -0.47047
 Alpha  occ. eigenvalues --   -0.46838  -0.46640  -0.46599  -0.46469  -0.46402
 Alpha  occ. eigenvalues --   -0.46208  -0.46203  -0.46024  -0.45875  -0.45754
 Alpha  occ. eigenvalues --   -0.45235  -0.45153  -0.44628  -0.44543  -0.44445
 Alpha  occ. eigenvalues --   -0.44395  -0.44184  -0.44129  -0.44064  -0.44048
 Alpha  occ. eigenvalues --   -0.44016  -0.43867  -0.43549  -0.43487  -0.43425
 Alpha  occ. eigenvalues --   -0.43311  -0.43070  -0.42864  -0.42833  -0.42757
 Alpha  occ. eigenvalues --   -0.42695  -0.42496  -0.42050  -0.41902  -0.41749
 Alpha  occ. eigenvalues --   -0.41599  -0.41575  -0.41382  -0.41181  -0.40911
 Alpha  occ. eigenvalues --   -0.40908  -0.40856  -0.40650  -0.40624  -0.40607
 Alpha  occ. eigenvalues --   -0.40433  -0.40277  -0.40145  -0.39472  -0.39379
 Alpha  occ. eigenvalues --   -0.38503  -0.38292  -0.37792  -0.37574  -0.37357
 Alpha  occ. eigenvalues --   -0.37308  -0.37203  -0.37119  -0.36772  -0.36709
 Alpha  occ. eigenvalues --   -0.36240  -0.36153  -0.34329  -0.34182  -0.33837
 Alpha  occ. eigenvalues --   -0.33796  -0.33231  -0.33104  -0.31375  -0.31211
 Alpha  occ. eigenvalues --   -0.31077  -0.30901  -0.30086  -0.29888  -0.29490
 Alpha  occ. eigenvalues --   -0.29368  -0.29255  -0.29141  -0.24123  -0.23963
 Alpha  occ. eigenvalues --   -0.21169  -0.21044
 Alpha virt. eigenvalues --   -0.08816  -0.08719  -0.01789  -0.01614  -0.00097
 Alpha virt. eigenvalues --    0.00045   0.02152   0.02274   0.03075   0.03292
 Alpha virt. eigenvalues --    0.04676   0.04811   0.05032   0.05232   0.06132

 Mulliken charges:
               1
     1  Mg   0.838675
     2  C   -0.003059
     3  C   -0.094106
     4  C   -0.045808
     5  C   -0.063961
     6  N   -0.256806
     7  C   -0.052532
     8  C   -0.013994
     9  C   -0.087042
    10  C    0.046354
    11  C    0.104789
    12  C    0.053471
    13  C   -0.071833
    14  H    0.036011
    15  N   -0.433186
    16  C    0.168482
    17  C   -0.177060
    18  C   -0.003921
    19  C    0.148767
    20  C    0.110142
    21  C    0.012357
    22  O   -0.249376
    23  C    0.062446
    24  N   -0.341134
    25  C    0.041285
    26  C   -0.028253
    27  C   -0.023968
    28  C    0.074803
    29  C    0.076117
    30  C    0.035125
    31  C   -0.004529
    32  N   -0.310413
    33  C    0.080295
    34  C   -0.169938
    35  C    0.008223
    36  C    0.082843
    37  C    0.127382
    38  C    0.045891
    39  O   -0.188799
    40  C   -0.005242
    41  C    0.212842
    42  O   -0.257456
    43  O   -0.304669
    44  C    0.157818
    45  H   -0.017485
    46  H   -0.016629
    47  H   -0.041541
    48  H    0.000913
    49  H   -0.003948
    50  H    0.025468
    51  H    0.016510
    52  H    0.016766
    53  H    0.011273
    54  H    0.043890
    55  H    0.017917
    56  H    0.018123
    57  H    0.005940
    58  H    0.026976
    59  H    0.039645
    60  H    0.037400
    61  H    0.035852
    62  H    0.031461
    63  H    0.016759
    64  H    0.009503
    65  H    0.023443
    66  H    0.012548
    67  H    0.004812
    68  H    0.006654
    69  H    0.004591
    70  H    0.009102
    71  H    0.018041
    72  H    0.028729
    73  H    0.047153
    74  H    0.009086
    75  H    0.046072
    76  H    0.035213
    77  H    0.042874
    78  H    0.046577
    79  H    0.053280
    80  Mg   0.837972
    81  C   -0.016778
    82  C   -0.087515
    83  C   -0.045517
    84  C   -0.064959
    85  N   -0.254591
    86  C   -0.049728
    87  C   -0.015137
    88  C   -0.090480
    89  C    0.045663
    90  C    0.114190
    91  C    0.062494
    92  C   -0.077866
    93  H    0.034606
    94  N   -0.423557
    95  C    0.162865
    96  C   -0.174242
    97  C   -0.007899
    98  C    0.152227
    99  C    0.099198
   100  C    0.015568
   101  O   -0.253464
   102  C    0.061209
   103  N   -0.350014
   104  C    0.037589
   105  C   -0.019817
   106  C   -0.034750
   107  C    0.088882
   108  C    0.073723
   109  C    0.034792
   110  C   -0.007616
   111  N   -0.324100
   112  C    0.078406
   113  C   -0.163249
   114  C    0.002244
   115  C    0.096139
   116  C    0.131502
   117  C    0.042307
   118  O   -0.188083
   119  C    0.000936
   120  C    0.211228
   121  O   -0.251113
   122  O   -0.305568
   123  C    0.152085
   124  H   -0.018913
   125  H   -0.015805
   126  H   -0.040710
   127  H   -0.000589
   128  H   -0.004189
   129  H    0.022400
   130  H    0.014955
   131  H    0.017122
   132  H    0.013869
   133  H    0.037494
   134  H    0.020962
   135  H    0.019740
   136  H    0.009207
   137  H    0.026576
   138  H    0.039660
   139  H    0.038503
   140  H    0.036134
   141  H    0.033868
   142  H    0.014214
   143  H    0.012230
   144  H    0.024748
   145  H    0.011909
   146  H    0.005384
   147  H    0.005942
   148  H    0.003536
   149  H    0.010826
   150  H    0.017766
   151  H    0.030280
   152  H    0.045836
   153  H    0.008299
   154  H    0.046985
   155  H    0.035155
   156  H    0.043776
   157  H    0.049594
   158  H    0.053457
 Sum of Mulliken charges =  -0.00000

 Dipole moment (field-independent basis, Debye):
    X=              4.4617    Y=              3.5078    Z=              1.3517  Tot=              5.8343
 Quadrupole moment (field-independent basis, Debye-Ang):
   XX=           -519.6177   YY=           -522.3624   ZZ=           -476.3723
   XY=            -17.4588   XZ=             53.8831   YZ=             19.9514

 Normal termination of Gaussian 16 at Sat Sep 11 19:29:58 2021.
