 Gaussian 16, Revision A.03,
 Gaussian 16:  ES64L-G16RevA.03 25-Dec-2016

 -----------------------------------
 #p cam-b3lyp/Def2SVP td=(nstates=5)
 -----------------------------------

 --------------------------------
 TDDFT excited states in gaussian
 --------------------------------
 Symbolic Z-matrix:
 Charge =  0 Multiplicity = 1

                         Standard orientation:
 ---------------------------------------------------------------------
 Center     Atomic      Atomic             Coordinates (Angstroms)
 Number     Number       Type             X           Y           Z
 ---------------------------------------------------------------------
      1         12           0       -6.450766   -0.911492    0.216387
      2          6           0       -6.728905    2.653701    0.372103
      3          6           0       -7.398483   -0.693690   -3.054310
      4          6           0       -6.653144   -4.076004    0.177267
      5          6           0       -6.640020   -0.930620    3.696255
      6          7           0       -6.968717    0.817531   -1.065351
      7          6           0       -6.978146    2.136668   -0.901161
      8          6           0       -7.203583    2.922721   -2.227311
      9          6           0       -7.949105    1.790962   -3.067143
     10          6           0       -7.379098    0.562949   -2.379392
     11          6           0       -9.463666    1.796409   -2.886654
     12          6           0       -5.856428    3.344922   -2.904546
     13          6           0       -5.983992    4.387595   -4.018958
     14          1           0       -4.932945    5.382364   -4.170889
     15          7           0       -6.473978   -2.175133   -1.302008
     16          6           0       -6.875378   -1.911683   -2.568799
     17          6           0       -6.703328   -3.172862   -3.321465
     18          6           0       -6.349075   -4.240545   -2.345426
     19          6           0       -6.505580   -3.536470   -1.098364
     20          6           0       -6.826479   -3.265205   -4.811451
     21          6           0       -5.945343   -5.671646   -2.509991
     22          8           0       -5.907678   -6.485363   -1.524588
     23          6           0       -5.676980   -6.124331   -3.886981
     24          7           0       -6.842357   -2.327820    1.699057
     25          6           0       -6.813630   -3.637162    1.427430
     26          6           0       -6.841258   -4.456168    2.683776
     27          6           0       -6.649104   -3.425176    3.887888
     28          6           0       -6.624971   -2.109870    3.070785
     29          6           0       -8.114281   -5.281467    2.916808
     30          6           0       -5.485822   -3.703117    4.872745
     31          6           0       -4.160959   -3.521264    4.166512
     32          7           0       -6.471170    0.580846    1.792318
     33          6           0       -6.578359    0.349422    3.171313
     34          6           0       -6.658255    1.668284    3.825749
     35          6           0       -6.608357    2.580892    2.773845
     36          6           0       -6.530360    1.876171    1.538703
     37          6           0       -6.820024    1.898056    5.220550
     38          6           0       -6.627616    3.986953    2.404416
     39          8           0       -6.588816    5.048186    3.028733
     40          6           0       -6.829266    4.088129    0.828050
     41          6           0       -5.814184    5.065880    0.301818
     42          8           0       -4.594636    4.803688    0.338200
     43          8           0       -6.443668    6.040976   -0.371591
     44          6           0       -5.491456    7.029100   -0.945225
     45          1           0       -7.911576   -0.768966   -4.015044
     46          1           0       -6.616141   -5.166614    0.217752
     47          1           0       -6.615525   -0.856201    4.784977
     48          1           0       -7.844732    3.799305   -2.132695
     49          1           0       -7.658928    1.805968   -4.117521
     50          1           0       -9.769691    2.495995   -2.108933
     51          1           0       -9.727037    0.776362   -2.606237
     52          1           0       -9.966169    1.985517   -3.835604
     53          1           0       -5.464741    2.505833   -3.479499
     54          1           0       -5.144250    3.699678   -2.158706
     55          1           0       -6.963777    4.865912   -4.007006
     56          1           0       -5.947153    3.869480   -4.977290
     57          1           0       -7.256212   -2.358190   -5.234768
     58          1           0       -7.563910   -4.039358   -5.022616
     59          1           0       -5.879124   -3.520527   -5.286491
     60          1           0       -6.569589   -5.975792   -4.495039
     61          1           0       -5.315586   -7.148529   -3.801757
     62          1           0       -4.901495   -5.492818   -4.321450
     63          1           0       -6.025702   -5.178034    2.698018
     64          1           0       -7.531311   -3.372971    4.526370
     65          1           0       -7.927841   -6.348575    3.040198
     66          1           0       -8.792770   -5.096698    2.084460
     67          1           0       -8.718691   -4.959901    3.764570
     68          1           0       -5.523713   -4.734040    5.223044
     69          1           0       -5.499275   -3.054485    5.748729
     70          1           0       -4.012948   -4.482382    3.675415
     71          1           0       -3.368190   -3.326035    4.889433
     72          1           0       -4.226743   -2.763159    3.385849
     73          1           0       -6.133733    2.704571    5.478441
     74          1           0       -6.608160    0.998023    5.797315
     75          1           0       -7.872137    2.180026    5.258061
     76          1           0       -7.850611    4.430278    0.664003
     77          1           0       -5.785831    8.011056   -0.574632
     78          1           0       -5.495772    6.873323   -2.024169
     79          1           0       -4.463509    6.972995   -0.585340
     80         12           0        6.778182   -0.615644   -0.063919
     81          6           0        6.015637    2.884154    0.157487
     82          6           0        5.403781   -0.565050   -3.185304
     83          6           0        7.024847   -3.778545   -0.115693
     84          6           0        7.028337   -0.639156    3.412076
     85          7           0        5.861922    1.010241   -1.251016
     86          6           0        5.683031    2.312496   -1.088322
     87          6           0        5.190753    3.057681   -2.357936
     88          6           0        4.506049    1.817554   -3.114334
     89          6           0        5.327061    0.679740   -2.510994
     90          6           0        3.049685    1.609890   -2.733243
     91          6           0        6.374156    3.658597   -3.194879
     92          6           0        5.955245    4.658346   -4.275045
     93          1           0        6.832899    5.792109   -4.552123
     94          7           0        6.744404   -1.881599   -1.591920
     95          6           0        6.160932   -1.691005   -2.793806
     96          6           0        6.400937   -2.925075   -3.557767
     97          6           0        7.030966   -3.922975   -2.651147
     98          6           0        6.936764   -3.224933   -1.384677
     99          6           0        6.112831   -3.041959   -5.026362
    100          6           0        7.609441   -5.285962   -2.883170
    101          8           0        7.887382   -6.073866   -1.911170
    102          6           0        7.753758   -5.707058   -4.284356
    103          7           0        6.786628   -2.053989    1.437220
    104          6           0        6.960750   -3.355267    1.146863
    105          6           0        7.206895   -4.165018    2.397498
    106          6           0        7.403005   -3.095463    3.570179
    107          6           0        7.136070   -1.797787    2.776351
    108          6           0        6.099971   -5.145878    2.783522
    109          6           0        8.709859   -3.196539    4.403597
    110          6           0        9.900707   -2.846523    3.540614
    111          7           0        6.749953    0.866809    1.507573
    112          6           0        6.844853    0.638041    2.897797
    113          6           0        6.661441    1.942171    3.567140
    114          6           0        6.447938    2.842597    2.512559
    115          6           0        6.474873    2.145298    1.274595
    116          6           0        6.655704    2.161909    4.973491
    117          6           0        6.195323    4.222669    2.165736
    118          8           0        6.154900    5.281924    2.790308
    119          6           0        5.778330    4.290475    0.633448
    120          6           0        6.570225    5.392658   -0.015099
    121          8           0        7.806248    5.304964   -0.120805
    122          8           0        5.722503    6.262082   -0.594604
    123          6           0        6.461181    7.367691   -1.260795
    124          1           0        4.793892   -0.710302   -4.077394
    125          1           0        7.221443   -4.852649   -0.082472
    126          1           0        7.189851   -0.546520    4.488182
    127          1           0        4.456156    3.832424   -2.173776
    128          1           0        4.663974    1.873875   -4.188223
    129          1           0        2.747965    2.259993   -1.925485
    130          1           0        2.968723    0.572896   -2.434688
    131          1           0        2.410163    1.720869   -3.613591
    132          1           0        6.803549    2.869529   -3.825555
    133          1           0        7.106381    4.106982   -2.551903
    134          1           0        4.920110    4.996564   -4.144509
    135          1           0        5.949860    4.145035   -5.239673
    136          1           0        5.501219   -2.204526   -5.384197
    137          1           0        5.472914   -3.921240   -5.157685
    138          1           0        7.017646   -3.170901   -5.624146
    139          1           0        6.780968   -5.685882   -4.769835
    140          1           0        8.266164   -6.670417   -4.248690
    141          1           0        8.381933   -4.976571   -4.806277
    142          1           0        8.110743   -4.754584    2.304826
    143          1           0        6.608183   -3.170101    4.326835
    144          1           0        6.453649   -6.190490    2.871723
    145          1           0        5.308273   -5.073136    2.049714
    146          1           0        5.578341   -4.912219    3.710078
    147          1           0        8.863918   -4.223697    4.743273
    148          1           0        8.710782   -2.562633    5.284027
    149          1           0       10.114849   -3.786193    3.022691
    150          1           0       10.741779   -2.534789    4.156609
    151          1           0        9.630979   -2.104845    2.779805
    152          1           0        7.241824    3.053655    5.151667
    153          1           0        7.058774    1.306257    5.511223
    154          1           0        5.583618    2.287785    5.146850
    155          1           0        4.704939    4.479854    0.594123
    156          1           0        6.075911    8.304497   -0.846488
    157          1           0        6.327500    7.204529   -2.346725
    158          1           0        7.519768    7.462283   -1.048926
 ---------------------------------------------------------------------

 SCF Done:  E(RCAM-B3LYP) =  -4069.81158882     A.U. after   19 cycles

 Excitation energies and oscillator strengths:

 Excited State   1:      Singlet-A      1.6653 eV  744.54 nm  f=0.0061  <S**2>=0.000
     309 -> 315       -0.11076
     310 -> 316        0.13065
     311 -> 313       -0.44226
     312 -> 314        0.52523
 This state for optimization and/or second-order correction.
 Total Energy, E(TD-HF/TD-DFT) =  -4069.75039199
 Copying the excited state density for this state as the 1-particle RhoCI density.

 Excited State   2:      Singlet-A      1.6893 eV  733.93 nm  f=0.7368  <S**2>=0.000
     309 -> 315        0.13624
     310 -> 316        0.11395
     311 -> 313        0.52402
     312 -> 314        0.44133

 Excited State   3:      Singlet-A      2.1846 eV  567.55 nm  f=0.0421  <S**2>=0.000
     309 -> 313       -0.19884
     310 -> 314        0.61160
     312 -> 316       -0.25863

 Excited State   4:      Singlet-A      2.1933 eV  565.28 nm  f=0.1474  <S**2>=0.000
     309 -> 313        0.60915
     310 -> 314        0.19711
     311 -> 315       -0.26548

 Excited State   5:      Singlet-A      2.6401 eV  469.61 nm  f=0.0000  <S**2>=0.000
     312 -> 313        0.70708

 The electronic state is 1-A.
 Alpha  occ. eigenvalues --  -46.87874 -46.87544 -19.26347 -19.26211 -19.19084
 Alpha  occ. eigenvalues --  -19.19029 -19.18893 -19.18624 -19.18225 -19.17909
 Alpha  occ. eigenvalues --  -14.42530 -14.42380 -14.41523 -14.41245 -14.39481
 Alpha  occ. eigenvalues --  -14.39239 -14.38660 -14.38480 -10.39144 -10.38955
 Alpha  occ. eigenvalues --  -10.35528 -10.35303 -10.34446 -10.34084 -10.31739
 Alpha  occ. eigenvalues --  -10.31632 -10.31481 -10.31184 -10.30994 -10.30908
 Alpha  occ. eigenvalues --  -10.30643 -10.30578 -10.30281 -10.30280 -10.30240
 Alpha  occ. eigenvalues --  -10.30038 -10.29986 -10.29777 -10.29703 -10.29331
 Alpha  occ. eigenvalues --  -10.29329 -10.29288 -10.28846 -10.28672 -10.28593
 Alpha  occ. eigenvalues --  -10.28569 -10.28441 -10.28286 -10.28207 -10.28012
 Alpha  occ. eigenvalues --  -10.27883 -10.27863 -10.27806 -10.27661 -10.27581
 Alpha  occ. eigenvalues --  -10.27561 -10.27557 -10.27508 -10.27479 -10.27422
 Alpha  occ. eigenvalues --  -10.27397 -10.27363 -10.27357 -10.27277 -10.27222
 Alpha  occ. eigenvalues --  -10.26897 -10.26829 -10.26591 -10.26504 -10.26350
 Alpha  occ. eigenvalues --  -10.26313 -10.26238 -10.26090 -10.26054 -10.25885
 Alpha  occ. eigenvalues --  -10.25860 -10.25823 -10.25716 -10.25487 -10.25300
 Alpha  occ. eigenvalues --  -10.24901 -10.24859 -10.24750 -10.24744 -10.24651
 Alpha  occ. eigenvalues --  -10.24576  -3.16617  -3.16294  -1.91499  -1.91177
 Alpha  occ. eigenvalues --   -1.91085  -1.90927  -1.90765  -1.90602  -1.16696
 Alpha  occ. eigenvalues --   -1.16507  -1.08681  -1.08512  -1.07295  -1.06877
 Alpha  occ. eigenvalues --   -1.06812  -1.06706  -1.04660  -1.04376  -1.03835
 Alpha  occ. eigenvalues --   -1.03548  -1.03307  -1.02924  -1.02485  -1.01995
 Alpha  occ. eigenvalues --   -0.92043  -0.91860  -0.89586  -0.89387  -0.89280
 Alpha  occ. eigenvalues --   -0.89027  -0.88352  -0.88117  -0.87933  -0.87754
 Alpha  occ. eigenvalues --   -0.87670  -0.87571  -0.87357  -0.87026  -0.85072
 Alpha  occ. eigenvalues --   -0.84885  -0.83998  -0.83774  -0.83048  -0.82845
 Alpha  occ. eigenvalues --   -0.82732  -0.82541  -0.81655  -0.81473  -0.80671
 Alpha  occ. eigenvalues --   -0.80326  -0.78875  -0.78530  -0.77295  -0.77034
 Alpha  occ. eigenvalues --   -0.77013  -0.76783  -0.75999  -0.75714  -0.74962
 Alpha  occ. eigenvalues --   -0.74695  -0.72845  -0.72583  -0.71744  -0.71461
 Alpha  occ. eigenvalues --   -0.69969  -0.69661  -0.68959  -0.68714  -0.67715
 Alpha  occ. eigenvalues --   -0.67489  -0.67319  -0.67100  -0.65373  -0.65152
 Alpha  occ. eigenvalues --   -0.64925  -0.64696  -0.64654  -0.64537  -0.64336
 Alpha  occ. eigenvalues --   -0.64097  -0.62363  -0.62154  -0.60519  -0.60239
 Alpha  occ. eigenvalues --   -0.59889  -0.59675  -0.59059  -0.58876  -0.58574
 Alpha  occ. eigenvalues --   -0.58308  -0.57649  -0.57418  -0.57377  -0.57126
 Alpha  occ. eigenvalues --   -0.56382  -0.56091  -0.56051  -0.55766  -0.55597
 Alpha  occ. eigenvalues --   -0.55401  -0.55343  -0.55135  -0.54586  -0.54374
 Alpha  occ. eigenvalues --   -0.53987  -0.53793  -0.53373  -0.53305  -0.53120
 Alpha  occ. eigenvalues --   -0.53029  -0.52987  -0.52844  -0.52787  -0.52574
 Alpha  occ. eigenvalues --   -0.52498  -0.52307  -0.51969  -0.51755  -0.51707
 Alpha  occ. eigenvalues --   -0.51550  -0.51264  -0.51081  -0.50663  -0.50393
 Alpha  occ. eigenvalues --   -0.50100  -0.50000  -0.49871  -0.49767  -0.49598
 Alpha  occ. eigenvalues --   -0.49381  -0.49287  -0.49176  -0.49083  -0.48975
 Alpha  occ. eigenvalues --   -0.48662  -0.48533  -0.48513  -0.48436  -0.48270
 Alpha  occ. eigenvalues --   -0.48236  -0.47773  -0.47486  -0.47371  -0.47016
 Alpha  occ. eigenvalues --   -0.46870  -0.46646  -0.46598  -0.46442  -0.46430
 Alpha  occ. eigenvalues --   -0.46227  -0.46162  -0.45969  -0.45885  -0.45695
 Alpha  occ. eigenvalues --   -0.45266  -0.45102  -0.44644  -0.44590  -0.44393
 Alpha  occ. eigenvalues --   -0.44364  -0.44216  -0.44173  -0.44091  -0.44006
 Alpha  occ. eigenvalues --   -0.43976  -0.43830  -0.43560  -0.43466  -0.43433
 Alpha  occ. eigenvalues --   -0.43269  -0.43097  -0.42809  -0.42775  -0.42763
 Alpha  occ. eigenvalues --   -0.42717  -0.42454  -0.42080  -0.41859  -0.41774
 Alpha  occ. eigenvalues --   -0.41623  -0.41543  -0.41349  -0.41216  -0.40954
 Alpha  occ. eigenvalues --   -0.40910  -0.40870  -0.40638  -0.40627  -0.40593
 Alpha  occ. eigenvalues --   -0.40386  -0.40344  -0.40124  -0.39503  -0.39332
 Alpha  occ. eigenvalues --   -0.38540  -0.38247  -0.37850  -0.37549  -0.37390
 Alpha  occ. eigenvalues --   -0.37352  -0.37158  -0.37085  -0.36777  -0.36646
 Alpha  occ. eigenvalues --   -0.36262  -0.36103  -0.34360  -0.34136  -0.33837
 Alpha  occ. eigenvalues --   -0.33733  -0.33259  -0.33060  -0.31423  -0.31182
 Alpha  occ. eigenvalues --   -0.31110  -0.30856  -0.30084  -0.29811  -0.29525
 Alpha  occ. eigenvalues --   -0.29390  -0.29218  -0.29088  -0.24155  -0.23917
 Alpha  occ. eigenvalues --   -0.21202  -0.21002
 Alpha virt. eigenvalues --   -0.08848  -0.08677  -0.01825  -0.01571  -0.00137
 Alpha virt. eigenvalues --    0.00078   0.02137   0.02336   0.03028   0.03331
 Alpha virt. eigenvalues --    0.04631   0.04845   0.05033   0.05300   0.06070

 Mulliken charges:
               1
     1  Mg   0.838368
     2  C   -0.003113
     3  C   -0.094545
     4  C   -0.045777
     5  C   -0.063821
     6  N   -0.256736
     7  C   -0.052583
     8  C   -0.013917
     9  C   -0.086927
    10  C    0.046109
    11  C    0.104797
    12  C    0.053638
    13  C   -0.071557
    14  H    0.035467
    15  N   -0.433112
    16  C    0.168204
    17  C   -0.177485
    18  C   -0.004094
    19  C    0.148579
    20  C    0.110242
    21  C    0.012182
    22  O   -0.249397
    23  C    0.062605
    24  N   -0.341141
    25  C    0.041196
    26  C   -0.028204
    27  C   -0.024041
    28  C    0.074904
    29  C    0.076111
    30  C    0.035066
    31  C   -0.004507
    32  N   -0.310550
    33  C    0.080509
    34  C   -0.169378
    35  C    0.008581
    36  C    0.082995
    37  C    0.127220
    38  C    0.046386
    39  O   -0.187753
    40  C   -0.005419
    41  C    0.213062
    42  O   -0.257226
    43  O   -0.304776
    44  C    0.157537
    45  H   -0.017701
    46  H   -0.016711
    47  H   -0.041186
    48  H    0.001172
    49  H   -0.004406
    50  H    0.025643
    51  H    0.016589
    52  H    0.016650
    53  H    0.010457
    54  H    0.043948
    55  H    0.018344
    56  H    0.017553
    57  H    0.005690
    58  H    0.026970
    59  H    0.038775
    60  H    0.037406
    61  H    0.035788
    62  H    0.030815
    63  H    0.016627
    64  H    0.009647
    65  H    0.023339
    66  H    0.012552
    67  H    0.004889
    68  H    0.006512
    69  H    0.004918
    70  H    0.008816
    71  H    0.018217
    72  H    0.028834
    73  H    0.048121
    74  H    0.009266
    75  H    0.046181
    76  H    0.035291
    77  H    0.043421
    78  H    0.045970
    79  H    0.053909
    80  Mg   0.837977
    81  C   -0.016662
    82  C   -0.087838
    83  C   -0.045575
    84  C   -0.064878
    85  N   -0.254568
    86  C   -0.049343
    87  C   -0.015185
    88  C   -0.090668
    89  C    0.045922
    90  C    0.114329
    91  C    0.062579
    92  C   -0.077628
    93  H    0.034450
    94  N   -0.423450
    95  C    0.162849
    96  C   -0.174903
    97  C   -0.007994
    98  C    0.152044
    99  C    0.099547
   100  C    0.015419
   101  O   -0.253367
   102  C    0.061281
   103  N   -0.350028
   104  C    0.037520
   105  C   -0.019812
   106  C   -0.034809
   107  C    0.089044
   108  C    0.073691
   109  C    0.034742
   110  C   -0.007614
   111  N   -0.324241
   112  C    0.078704
   113  C   -0.162944
   114  C    0.002742
   115  C    0.096147
   116  C    0.131374
   117  C    0.042911
   118  O   -0.187232
   119  C    0.000668
   120  C    0.211101
   121  O   -0.251432
   122  O   -0.305138
   123  C    0.152190
   124  H   -0.020262
   125  H   -0.015801
   126  H   -0.040512
   127  H    0.000215
   128  H   -0.005085
   129  H    0.024657
   130  H    0.014334
   131  H    0.015438
   132  H    0.013602
   133  H    0.037632
   134  H    0.020982
   135  H    0.019069
   136  H    0.008290
   137  H    0.025612
   138  H    0.039383
   139  H    0.037979
   140  H    0.036124
   141  H    0.033710
   142  H    0.014167
   143  H    0.012424
   144  H    0.024876
   145  H    0.011898
   146  H    0.005546
   147  H    0.006054
   148  H    0.003611
   149  H    0.010809
   150  H    0.017753
   151  H    0.030198
   152  H    0.045944
   153  H    0.008188
   154  H    0.047913
   155  H    0.036848
   156  H    0.044086
   157  H    0.049123
   158  H    0.053271
 Sum of Mulliken charges =  -0.00000

 Dipole moment (field-independent basis, Debye):
    X=             -4.4549    Y=             -2.8072    Z=             -7.1236  Tot=              8.8585
 Quadrupole moment (field-independent basis, Debye-Ang):
   XX=           -518.7816   YY=           -554.6309   ZZ=           -447.1740
   XY=             -6.7898   XZ=             12.2942   YZ=            -45.3300

 Normal termination of Gaussian 16 at Sat Sep 11 14:55:13 2021.
