 Gaussian 16, Revision A.03,
 Gaussian 16:  ES64L-G16RevA.03 25-Dec-2016

 -----------------------------------
 #p cam-b3lyp/Def2SVP td=(nstates=5)
 -----------------------------------

 --------------------------------
 TDDFT excited states in gaussian
 --------------------------------
 Symbolic Z-matrix:
 Charge =  0 Multiplicity = 1

                         Standard orientation:
 ---------------------------------------------------------------------
 Center     Atomic      Atomic             Coordinates (Angstroms)
 Number     Number       Type             X           Y           Z
 ---------------------------------------------------------------------
      1         12           0      -15.549333    0.647276   -0.345210
      2          6           0      -15.825103   -2.432812    1.457350
      3          6           0      -16.467551    2.239576    2.529598
      4          6           0      -15.754680    3.329303   -2.024848
      5          6           0      -15.769699   -1.220828   -3.279027
      6          7           0      -16.053989   -0.109786    1.672914
      7          6           0      -16.063498   -1.307531    2.249533
      8          6           0      -16.276248   -1.249048    3.791834
      9          6           0      -17.015424    0.160149    3.890724
     10          6           0      -16.452878    0.817608    2.642840
     11          6           0      -18.531531    0.063799    3.754206
     12          6           0      -14.922650   -1.242439    4.578892
     13          6           0      -15.039153   -1.514746    6.081433
     14          1           0      -13.985745   -2.272796    6.739491
     15          7           0      -15.560302    2.532028    0.246768
     16          6           0      -15.950087    2.998346    1.457512
     17          6           0      -15.772643    4.465486    1.405615
     18          6           0      -15.428250    4.832871    0.004003
     19          6           0      -15.595154    3.566164   -0.661560
     20          6           0      -15.882570    5.350672    2.608990
     21          6           0      -15.024569    6.123373   -0.636135
     22          8           0      -14.996568    6.273460   -1.905491
     23          6           0      -14.744387    7.248702    0.273906
     24          7           0      -15.955647    1.036253   -2.355493
     25          6           0      -15.925871    2.283882   -2.836657
     26          6           0      -15.965588    2.291911   -4.336089
     27          6           0      -15.783118    0.772288   -4.791284
     28          6           0      -15.750301    0.109166   -3.392191
     29          6           0      -17.241510    2.864456   -4.968724
     30          6           0      -14.628978    0.467852   -5.779058
     31          6           0      -13.297665    0.692290   -5.097638
     32          7           0      -15.582251   -1.460708   -0.861314
     33          6           0      -15.702003   -2.012710   -2.144914
     34          6           0      -15.786358   -3.475495   -1.979948
     35          6           0      -15.726102   -3.673033   -0.601836
     36          6           0      -15.637810   -2.411928    0.053992
     37          6           0      -15.960344   -4.423516   -3.026571
     38          6           0      -15.740580   -4.654761    0.470478
     39          8           0      -15.706245   -5.885142    0.520248
     40          6           0      -15.928027   -3.885143    1.851920
     41          6           0      -14.907255   -4.425998    2.815668
     42          8           0      -13.688357   -4.230138    2.633205
     43          8           0      -15.529670   -4.878393    3.914977
     44          6           0      -14.571330   -5.402042    4.924694
     45          1           0      -16.972117    2.825281    3.300509
     46          1           0      -15.719187    4.223976   -2.649939
     47          1           0      -15.754857   -1.873206   -4.154034
     48          1           0      -16.917294   -2.034604    4.192317
     49          1           0      -16.715855    0.715343    4.779398
     50          1           0      -18.843758   -0.944316    3.481923
     51          1           0      -18.798470    0.770383    2.968092
     52          1           0      -19.025333    0.420843    4.658339
     53          1           0      -14.526723   -0.227230    4.604481
     54          1           0      -14.216794   -1.947456    4.138388
     55          1           0      -16.018502   -1.919408    6.338401
     56          1           0      -14.994295   -0.560276    6.606004
     57          1           0      -16.307549    4.819248    3.459594
     58          1           0      -16.618898    6.118712    2.373100
     59          1           0      -14.931277    5.818856    2.862323
     60          1           0      -15.631368    7.456740    0.872682
     61          1           0      -14.384845    8.062032   -0.355438
     62          1           0      -13.964386    6.950131    0.974908
     63          1           0      -15.150950    2.887759   -4.745672
     64          1           0      -16.670941    0.386051   -5.292549
     65          1           0      -17.057302    3.693876   -5.651978
     66          1           0      -17.912338    3.162684   -4.163528
     67          1           0      -17.853134    2.137339   -5.502235
     68          1           0      -14.671081    1.144833   -6.631625
     69          1           0      -14.649577   -0.551816   -6.163902
     70          1           0      -13.146282    1.765616   -5.206665
     71          1           0      -12.511184    0.133464   -5.605942
     72          1           0      -13.355673    0.478160   -4.030273
     73          1           0      -15.275539   -5.243866   -2.812013
     74          1           0      -15.754590   -3.980217   -4.000611
     75          1           0      -17.012453   -4.676690   -2.896860
     76          1           0      -16.947504   -4.079847    2.183399
     77          1           0      -14.867973   -6.427032    5.147480
     78          1           0      -14.566167   -4.686652    5.747249
     79          1           0      -13.546701   -5.553888    4.583495
     80         12           0       16.182648    0.288891    0.331046
     81          6           0       13.986752   -1.732893   -1.661310
     82          6           0       14.510636    3.013405   -0.858907
     83          6           0       18.376902    2.115952    1.714700
     84          6           0       18.353713   -2.434602    0.452639
     85          7           0       14.485116    0.486279   -1.073117
     86          6           0       13.692045   -0.354780   -1.719645
     87          6           0       12.469644    0.312210   -2.405521
     88          6           0       13.063211    1.795836   -2.564852
     89          6           0       14.059238    1.786255   -1.407050
     90          6           0       13.835566    1.999401   -3.857668
     91          6           0       11.192332    0.299353   -1.494295
     92          6           0        9.887375    0.652810   -2.211162
     93          1           0        8.660938   -0.023604   -1.797910
     94          7           0       16.133116    2.213308    0.813471
     95          6           0       15.379450    3.176216    0.242444
     96          6           0       15.723380    4.423964    0.941729
     97          6           0       16.861322    4.148493    1.860390
     98          6           0       17.188613    2.790461    1.474772
     99          6           0       14.945423    5.695816    0.766796
    100          6           0       17.550257    4.975483    2.903303
    101          8           0       18.669332    4.617533    3.415524
    102          6           0       16.923295    6.262147    3.239311
    103          7           0       18.180819   -0.025912    0.811208
    104          6           0       18.892925    0.913955    1.457343
    105          6           0       20.213979    0.362742    1.938343
    106          6           0       20.136767   -1.215335    1.690771
    107          6           0       18.759252   -1.295535    0.996923
    108          6           0       21.458797    0.924952    1.252246
    109          6           0       20.402293   -2.133620    2.915081
    110          6           0       19.288180   -1.981556    3.925538
    111          7           0       16.119227   -1.779680   -0.289475
    112          6           0       17.147815   -2.739261   -0.165712
    113          6           0       16.677999   -3.969825   -0.834597
    114          6           0       15.407927   -3.630817   -1.325000
    115          6           0       15.115789   -2.277810   -1.003235
    116          6           0       17.418109   -5.178311   -0.968442
    117          6           0       14.252375   -4.106632   -2.050938
    118          8           0       13.894203   -5.196301   -2.495991
    119          6           0       13.333451   -2.860685   -2.410909
    120          6           0       11.915040   -3.210888   -2.053152
    121          8           0       11.589750   -3.396621   -0.867281
    122          8           0       11.135607   -3.055705   -3.138867
    123          6           0        9.717293   -3.380649   -2.831274
    124          1           0       14.204923    3.941435   -1.342831
    125          1           0       19.125165    2.668303    2.287857
    126          1           0       18.931604   -3.357859    0.532124
    127          1           0       12.216913   -0.093557   -3.377760
    128          1           0       12.295774    2.547965   -2.401405
    129          1           0       13.958695    1.075588   -4.403145
    130          1           0       14.798482    2.397486   -3.565502
    131          1           0       13.359415    2.776105   -4.462932
    132          1           0       11.249733    1.135440   -0.785481
    133          1           0       11.087596   -0.646019   -0.998375
    134          1           0        9.994794    0.621114   -3.302223
    135          1           0        9.644841    1.696301   -1.995931
    136          1           0       14.269294    5.638458   -0.095156
    137          1           0       15.664961    6.476116    0.496148
    138          1           0       14.421985    5.997893    1.676429
    139          1           0       16.850928    6.873590    2.343005
    140          1           0       17.510774    6.666459    4.065911
    141          1           0       15.897571    6.074228    3.575745
    142          1           0       20.346963    0.546198    2.997476
    143          1           0       20.880525   -1.548778    0.952203
    144          1           0       22.179944    1.377307    1.958932
    145          1           0       21.143471    1.650542    0.514253
    146          1           0       22.016647    0.210106    0.649743
    147          1           0       21.323230   -1.833432    3.420966
    148          1           0       20.504864   -3.181780    2.654659
    149          1           0       19.582643   -1.088602    4.485023
    150          1           0       19.236928   -2.854243    4.573479
    151          1           0       18.335292   -1.761078    3.430525
    152          1           0       16.733431   -5.988084   -0.754006
    153          1           0       18.276505   -5.194925   -0.300124
    154          1           0       17.716308   -5.109163   -2.017994
    155          1           0       13.450207   -2.664800   -3.477487
    156          1           0        9.403255   -4.148175   -3.545400
    157          1           0        9.176999   -2.415727   -2.858818
    158          1           0        9.508810   -3.871543   -1.887871
 ---------------------------------------------------------------------

 SCF Done:  E(RCAM-B3LYP) =  -4069.81177045     A.U. after   19 cycles

 Excitation energies and oscillator strengths:

 Excited State   1:      Singlet-A      1.6753 eV  740.07 nm  f=0.2073  <S**2>=0.000
     310 -> 316        0.16821
     311 -> 314       -0.16822
     312 -> 313        0.66511
     310 <- 316        0.10140
 This state for optimization and/or second-order correction.
 Total Energy, E(TD-HF/TD-DFT) =  -4069.75020382
 Copying the excited state density for this state as the 1-particle RhoCI density.

 Excited State   2:      Singlet-A      1.6801 eV  737.95 nm  f=0.5700  <S**2>=0.000
     309 -> 315        0.17022
     311 -> 314        0.66474
     312 -> 313        0.16817
     309 <- 315        0.10191

 Excited State   3:      Singlet-A      2.1861 eV  567.16 nm  f=0.1012  <S**2>=0.000
     310 -> 313        0.64237
     312 -> 316       -0.27303

 Excited State   4:      Singlet-A      2.1925 eV  565.50 nm  f=0.1000  <S**2>=0.000
     309 -> 314        0.64060
     311 -> 315       -0.27820

 Excited State   5:      Singlet-A      3.0663 eV  404.34 nm  f=0.0000  <S**2>=0.000
     311 -> 313        0.70710

 The electronic state is 1-A.
 Alpha  occ. eigenvalues --  -46.87793 -46.87659 -19.26333 -19.26270 -19.19147
 Alpha  occ. eigenvalues --  -19.19007 -19.18815 -19.18715 -19.18162 -19.18046
 Alpha  occ. eigenvalues --  -14.42495 -14.42445 -14.41446 -14.41358 -14.39399
 Alpha  occ. eigenvalues --  -14.39350 -14.38598 -14.38582 -10.39078 -10.39068
 Alpha  occ. eigenvalues --  -10.35449 -10.35392 -10.34382 -10.34223 -10.31734
 Alpha  occ. eigenvalues --  -10.31662 -10.31399 -10.31306 -10.31020 -10.30904
 Alpha  occ. eigenvalues --  -10.30565 -10.30504 -10.30396 -10.30358 -10.30205
 Alpha  occ. eigenvalues --  -10.30141 -10.29917 -10.29894 -10.29627 -10.29436
 Alpha  occ. eigenvalues --  -10.29399 -10.29251 -10.28741 -10.28712 -10.28638
 Alpha  occ. eigenvalues --  -10.28526 -10.28403 -10.28360 -10.28135 -10.28109
 Alpha  occ. eigenvalues --  -10.27999 -10.27788 -10.27723 -10.27667 -10.27581
 Alpha  occ. eigenvalues --  -10.27520 -10.27500 -10.27481 -10.27479 -10.27467
 Alpha  occ. eigenvalues --  -10.27464 -10.27449 -10.27398 -10.27378 -10.27150
 Alpha  occ. eigenvalues --  -10.27043 -10.26695 -10.26681 -10.26417 -10.26413
 Alpha  occ. eigenvalues --  -10.26227 -10.26185 -10.26140 -10.26021 -10.26016
 Alpha  occ. eigenvalues --  -10.25934 -10.25850 -10.25837 -10.25436 -10.25402
 Alpha  occ. eigenvalues --  -10.24871 -10.24828 -10.24784 -10.24733 -10.24690
 Alpha  occ. eigenvalues --  -10.24689  -3.16535  -3.16409  -1.91417  -1.91291
 Alpha  occ. eigenvalues --   -1.91004  -1.90880  -1.90846  -1.90717  -1.16628
 Alpha  occ. eigenvalues --   -1.16619  -1.08652  -1.08619  -1.07217  -1.06967
 Alpha  occ. eigenvalues --   -1.06932  -1.06630  -1.04576  -1.04493  -1.03757
 Alpha  occ. eigenvalues --   -1.03662  -1.03230  -1.03038  -1.02407  -1.02110
 Alpha  occ. eigenvalues --   -0.91984  -0.91966  -0.89517  -0.89494  -0.89180
 Alpha  occ. eigenvalues --   -0.89145  -0.88285  -0.88221  -0.87865  -0.87792
 Alpha  occ. eigenvalues --   -0.87681  -0.87668  -0.87272  -0.87119  -0.84994
 Alpha  occ. eigenvalues --   -0.84975  -0.83935  -0.83876  -0.82967  -0.82932
 Alpha  occ. eigenvalues --   -0.82648  -0.82643  -0.81588  -0.81577  -0.80590
 Alpha  occ. eigenvalues --   -0.80437  -0.78794  -0.78634  -0.77214  -0.77141
 Alpha  occ. eigenvalues --   -0.76927  -0.76892  -0.75916  -0.75833  -0.74895
 Alpha  occ. eigenvalues --   -0.74802  -0.72770  -0.72697  -0.71667  -0.71578
 Alpha  occ. eigenvalues --   -0.69906  -0.69759  -0.68867  -0.68822  -0.67637
 Alpha  occ. eigenvalues --   -0.67599  -0.67213  -0.67194  -0.65279  -0.65266
 Alpha  occ. eigenvalues --   -0.64848  -0.64767  -0.64648  -0.64615  -0.64267
 Alpha  occ. eigenvalues --   -0.64203  -0.62289  -0.62269  -0.60440  -0.60339
 Alpha  occ. eigenvalues --   -0.59798  -0.59792  -0.58990  -0.58983  -0.58499
 Alpha  occ. eigenvalues --   -0.58422  -0.57576  -0.57547  -0.57305  -0.57235
 Alpha  occ. eigenvalues --   -0.56305  -0.56202  -0.55968  -0.55877  -0.55516
 Alpha  occ. eigenvalues --   -0.55448  -0.55335  -0.55245  -0.54517  -0.54483
 Alpha  occ. eigenvalues --   -0.53906  -0.53887  -0.53295  -0.53226  -0.53216
 Alpha  occ. eigenvalues --   -0.53137  -0.52908  -0.52896  -0.52753  -0.52666
 Alpha  occ. eigenvalues --   -0.52437  -0.52402  -0.51909  -0.51883  -0.51653
 Alpha  occ. eigenvalues --   -0.51610  -0.51197  -0.51190  -0.50572  -0.50475
 Alpha  occ. eigenvalues --   -0.50030  -0.49977  -0.49915  -0.49868  -0.49510
 Alpha  occ. eigenvalues --   -0.49485  -0.49209  -0.49198  -0.49099  -0.49089
 Alpha  occ. eigenvalues --   -0.48586  -0.48553  -0.48459  -0.48441  -0.48375
 Alpha  occ. eigenvalues --   -0.48337  -0.47690  -0.47591  -0.47293  -0.47116
 Alpha  occ. eigenvalues --   -0.46793  -0.46706  -0.46548  -0.46548  -0.46355
 Alpha  occ. eigenvalues --   -0.46268  -0.46157  -0.46083  -0.45816  -0.45814
 Alpha  occ. eigenvalues --   -0.45209  -0.45199  -0.44571  -0.44509  -0.44503
 Alpha  occ. eigenvalues --   -0.44472  -0.44141  -0.44124  -0.44082  -0.44076
 Alpha  occ. eigenvalues --   -0.44014  -0.43936  -0.43545  -0.43487  -0.43381
 Alpha  occ. eigenvalues --   -0.43381  -0.43022  -0.42922  -0.42895  -0.42692
 Alpha  occ. eigenvalues --   -0.42649  -0.42553  -0.42005  -0.41961  -0.41699
 Alpha  occ. eigenvalues --   -0.41666  -0.41527  -0.41454  -0.41136  -0.40987
 Alpha  occ. eigenvalues --   -0.40864  -0.40821  -0.40719  -0.40695  -0.40568
 Alpha  occ. eigenvalues --   -0.40492  -0.40226  -0.40219  -0.39441  -0.39426
 Alpha  occ. eigenvalues --   -0.38466  -0.38350  -0.37740  -0.37646  -0.37317
 Alpha  occ. eigenvalues --   -0.37265  -0.37257  -0.37194  -0.36760  -0.36704
 Alpha  occ. eigenvalues --   -0.36213  -0.36186  -0.34281  -0.34251  -0.33851
 Alpha  occ. eigenvalues --   -0.33760  -0.33182  -0.33173  -0.31345  -0.31274
 Alpha  occ. eigenvalues --   -0.31031  -0.30971  -0.30021  -0.29950  -0.29446
 Alpha  occ. eigenvalues --   -0.29326  -0.29317  -0.29209  -0.24076  -0.24034
 Alpha  occ. eigenvalues --   -0.21123  -0.21115
 Alpha virt. eigenvalues --   -0.08790  -0.08770  -0.01746  -0.01683  -0.00055
 Alpha virt. eigenvalues --   -0.00027   0.02206   0.02210   0.03124   0.03230
 Alpha virt. eigenvalues --    0.04724   0.04734   0.05109   0.05177   0.06186

 Mulliken charges:
               1
     1  Mg   0.838694
     2  C   -0.002935
     3  C   -0.094105
     4  C   -0.045933
     5  C   -0.063959
     6  N   -0.256783
     7  C   -0.052454
     8  C   -0.014011
     9  C   -0.086981
    10  C    0.046319
    11  C    0.104807
    12  C    0.053460
    13  C   -0.071841
    14  H    0.036234
    15  N   -0.433138
    16  C    0.168406
    17  C   -0.177153
    18  C   -0.004039
    19  C    0.148727
    20  C    0.110172
    21  C    0.012251
    22  O   -0.249691
    23  C    0.062496
    24  N   -0.341126
    25  C    0.041256
    26  C   -0.028166
    27  C   -0.023947
    28  C    0.074810
    29  C    0.076174
    30  C    0.035129
    31  C   -0.004488
    32  N   -0.310467
    33  C    0.080418
    34  C   -0.169707
    35  C    0.008392
    36  C    0.082987
    37  C    0.127306
    38  C    0.046142
    39  O   -0.188355
    40  C   -0.005353
    41  C    0.212906
    42  O   -0.257086
    43  O   -0.304806
    44  C    0.157657
    45  H   -0.017595
    46  H   -0.016890
    47  H   -0.041495
    48  H    0.000970
    49  H   -0.004015
    50  H    0.025486
    51  H    0.016424
    52  H    0.016673
    53  H    0.011190
    54  H    0.044148
    55  H    0.017880
    56  H    0.017947
    57  H    0.005899
    58  H    0.026804
    59  H    0.039524
    60  H    0.037359
    61  H    0.035569
    62  H    0.031485
    63  H    0.016494
    64  H    0.009465
    65  H    0.023161
    66  H    0.012560
    67  H    0.004754
    68  H    0.006319
    69  H    0.004750
    70  H    0.008719
    71  H    0.018115
    72  H    0.029015
    73  H    0.047619
    74  H    0.009098
    75  H    0.046026
    76  H    0.035172
    77  H    0.042997
    78  H    0.046413
    79  H    0.053744
    80  Mg   0.837888
    81  C   -0.016815
    82  C   -0.087785
    83  C   -0.045532
    84  C   -0.064899
    85  N   -0.254571
    86  C   -0.049829
    87  C   -0.015091
    88  C   -0.090496
    89  C    0.045758
    90  C    0.114377
    91  C    0.062514
    92  C   -0.077980
    93  H    0.035115
    94  N   -0.423512
    95  C    0.162923
    96  C   -0.174629
    97  C   -0.007833
    98  C    0.152114
    99  C    0.099365
   100  C    0.015564
   101  O   -0.253211
   102  C    0.061205
   103  N   -0.350081
   104  C    0.037510
   105  C   -0.019812
   106  C   -0.034834
   107  C    0.088904
   108  C    0.073660
   109  C    0.034740
   110  C   -0.007672
   111  N   -0.324115
   112  C    0.078474
   113  C   -0.163128
   114  C    0.002266
   115  C    0.096214
   116  C    0.131486
   117  C    0.042384
   118  O   -0.187783
   119  C    0.000934
   120  C    0.211271
   121  O   -0.250977
   122  O   -0.305651
   123  C    0.151975
   124  H   -0.019653
   125  H   -0.015596
   126  H   -0.040467
   127  H   -0.000606
   128  H   -0.004282
   129  H    0.022463
   130  H    0.014380
   131  H    0.016306
   132  H    0.013904
   133  H    0.037715
   134  H    0.020801
   135  H    0.019591
   136  H    0.008785
   137  H    0.026121
   138  H    0.039795
   139  H    0.038246
   140  H    0.036369
   141  H    0.033904
   142  H    0.014389
   143  H    0.012401
   144  H    0.025121
   145  H    0.011630
   146  H    0.005653
   147  H    0.006242
   148  H    0.003655
   149  H    0.010921
   150  H    0.017944
   151  H    0.030124
   152  H    0.046058
   153  H    0.008498
   154  H    0.046932
   155  H    0.035037
   156  H    0.044009
   157  H    0.049539
   158  H    0.053661
 Sum of Mulliken charges =  -0.00000

 Dipole moment (field-independent basis, Debye):
    X=             -2.5702    Y=              7.4667    Z=              1.0821  Tot=              7.9705
 Quadrupole moment (field-independent basis, Debye-Ang):
   XX=           -449.2815   YY=           -544.2423   ZZ=           -474.6815
   XY=            -13.6371   XZ=            -58.9287   YZ=             -0.1269

 Normal termination of Gaussian 16 at Sun Sep 12 15:27:35 2021.
