 Gaussian 16, Revision A.03,
 Gaussian 16:  ES64L-G16RevA.03 25-Dec-2016

 ----------------------------------------------------------
 #p cam-b3lyp/Def2SVP td=(nstates=5) density=(transition=1)
 ----------------------------------------------------------

 --------------------------------
 TDDFT excited states in gaussian
 --------------------------------
 Symbolic Z-matrix:
 Charge =  0 Multiplicity = 1

                         Standard orientation:
 ---------------------------------------------------------------------
 Center     Atomic      Atomic             Coordinates (Angstroms)
 Number     Number       Type             X           Y           Z
 ---------------------------------------------------------------------
      1         12           0       -9.383182   -1.047600    0.568824
      2          6           0      -10.189733    2.157489   -0.675003
      3          6           0       -8.233079    0.372212    3.456653
      4          6           0       -8.062029   -3.966950    1.344737
      5          6           0      -10.147650   -2.345319   -2.643241
      6          7           0       -9.349426    1.041245    1.325468
      7          6           0       -9.728494    2.115766    0.662233
      8          6           0       -9.857732    3.262530    1.648452
      9          6           0       -8.857306    2.861222    2.799918
     10          6           0       -8.779305    1.311982    2.531682
     11          6           0       -7.516530    3.684587    2.709696
     12          6           0      -11.287582    3.383310    2.235314
     13          6           0      -11.662190    4.801124    2.854489
     14          1           0      -10.658668    5.956621    2.898396
     15          7           0       -8.498501   -1.741879    2.232554
     16          6           0       -8.144968   -1.030728    3.407889
     17          6           0       -7.594136   -1.997716    4.385963
     18          6           0       -7.469232   -3.269506    3.719799
     19          6           0       -8.014924   -3.079458    2.358294
     20          6           0       -7.249543   -1.649719    5.791049
     21          6           0       -6.934845   -4.678532    4.188840
     22          8           0       -6.987255   -5.705868    3.499013
     23          6           0       -6.193505   -4.759671    5.491747
     24          7           0       -9.030175   -2.894427   -0.550678
     25          6           0       -8.520997   -3.958859    0.010460
     26          6           0       -8.469427   -5.181806   -0.861810
     27          6           0       -9.142934   -4.669554   -2.183284
     28          6           0       -9.562049   -3.226221   -1.758683
     29          6           0       -7.057648   -5.771090   -0.933445
     30          6           0      -10.348556   -5.481056   -2.640539
     31          6           0      -10.484319   -5.733136   -4.184959
     32          7           0      -10.120958   -0.322141   -1.338545
     33          6           0      -10.419395   -0.996328   -2.538862
     34          6           0      -11.061752   -0.087313   -3.424652
     35          6           0      -10.850735    1.202660   -2.841350
     36          6           0      -10.335680    1.004653   -1.585330
     37          6           0      -11.821902   -0.461303   -4.664710
     38          6           0      -11.085422    2.666011   -2.885680
     39          8           0      -11.574449    3.351543   -3.759384
     40          6           0      -10.415432    3.308326   -1.579414
     41          6           0      -11.155426    4.534379   -1.154800
     42          8           0      -12.299841    4.596288   -0.813990
     43          8           0      -10.359006    5.686458   -1.293655
     44          6           0      -11.067294    6.946568   -1.603334
     45          1           0       -7.675254    0.762389    4.310997
     46          1           0       -7.786435   -5.002764    1.550598
     47          1           0      -10.443494   -2.792333   -3.594692
     48          1           0       -9.685350    4.138737    1.023525
     49          1           0       -9.289874    3.035070    3.785765
     50          1           0       -7.544248    4.358075    1.853760
     51          1           0       -6.777213    2.932003    2.435516
     52          1           0       -7.297805    4.298586    3.583436
     53          1           0      -11.311941    2.638585    3.031910
     54          1           0      -11.981971    3.097968    1.445139
     55          1           0      -11.993881    4.573927    3.868778
     56          1           0      -12.553175    5.112441    2.308669
     57          1           0       -7.560788   -0.685541    6.191414
     58          1           0       -6.173331   -1.630016    5.960448
     59          1           0       -7.756741   -2.416710    6.376879
     60          1           0       -6.835044   -4.912628    6.359449
     61          1           0       -5.695447   -3.789617    5.468340
     62          1           0       -5.461602   -5.557574    5.369209
     63          1           0       -9.135427   -5.860747   -0.329441
     64          1           0       -8.464980   -4.618321   -3.034367
     65          1           0       -6.265684   -5.044843   -0.747952
     66          1           0       -6.941943   -6.105087   -1.963785
     67          1           0       -6.912186   -6.601146   -0.241755
     68          1           0      -11.280479   -5.007893   -2.331586
     69          1           0      -10.325324   -6.364103   -2.002130
     70          1           0       -9.748294   -5.160616   -4.749138
     71          1           0      -11.478423   -5.360931   -4.431713
     72          1           0      -10.433957   -6.756758   -4.557575
     73          1           0      -11.158153   -1.137076   -5.204247
     74          1           0      -12.065247    0.376488   -5.318410
     75          1           0      -12.711183   -1.032633   -4.396613
     76          1           0       -9.456171    3.740935   -1.861808
     77          1           0      -10.926618    7.622740   -0.759935
     78          1           0      -12.126715    6.787407   -1.807312
     79          1           0      -10.573579    7.338767   -2.492413
     80         12           0        9.591218   -0.498382   -0.121212
     81          6           0        7.835104    2.586566   -0.005577
     82          6           0       12.383668    1.328175    1.052640
     83          6           0       11.422113   -3.169525   -0.517643
     84          6           0        6.783636   -1.982155   -1.539836
     85          7           0       10.068432    1.754818    0.460943
     86          6           0        9.119247    2.746660    0.498242
     87          6           0        9.633167    4.044028    1.099117
     88          6           0       11.152539    3.630110    1.309891
     89          6           0       11.217019    2.135314    0.960458
     90          6           0       12.085568    4.570169    0.552290
     91          6           0        8.894380    4.367503    2.416341
     92          6           0        8.589133    5.875517    2.758745
     93          1           0        9.423882    6.967237    2.048706
     94          7           0       11.613012   -0.906487    0.290591
     95          6           0       12.596263    0.000466    0.687026
     96          6           0       13.863883   -0.733593    0.827062
     97          6           0       13.562436   -2.085889    0.460832
     98          6           0       12.131261   -2.076246    0.102134
     99          6           0       15.104798   -0.104114    1.176883
    100          6           0       14.498494   -3.289528    0.418364
    101          8           0       14.111637   -4.385827   -0.016630
    102          6           0       15.831989   -3.232619    1.053872
    103          7           0        9.191299   -2.293361   -1.014210
    104          6           0       10.090431   -3.279481   -0.959211
    105          6           0        9.555932   -4.567494   -1.665760
    106          6           0        8.036017   -4.235975   -1.803193
    107          6           0        7.960924   -2.779796   -1.466135
    108          6           0       10.306922   -4.934879   -2.995986
    109          6           0        7.321613   -5.115282   -0.706990
    110          6           0        7.027865   -4.523196    0.714459
    111          7           0        7.665449    0.088311   -0.580249
    112          6           0        6.628265   -0.649172   -1.179476
    113          6           0        5.473624    0.259272   -1.389013
    114          6           0        5.941909    1.508307   -0.998323
    115          6           0        7.219944    1.409251   -0.490374
    116          6           0        4.330624   -0.175762   -2.173055
    117          6           0        5.565216    2.919518   -1.023448
    118          8           0        4.532689    3.415940   -1.459514
    119          6           0        6.805849    3.710151   -0.392931
    120          6           0        7.337840    4.718614   -1.341464
    121          8           0        8.266675    4.555356   -2.127424
    122          8           0        6.616507    5.917631   -1.187454
    123          6           0        6.874393    7.067766   -2.024117
    124          1           0       13.209313    1.744852    1.633963
    125          1           0       11.971788   -4.102941   -0.658358
    126          1           0        5.958151   -2.568797   -1.947627
    127          1           0        9.536378    4.889930    0.418050
    128          1           0       11.377604    3.850217    2.353085
    129          1           0       12.850442    5.049046    1.162630
    130          1           0       11.607047    5.370937   -0.011576
    131          1           0       12.660353    3.945192   -0.132468
    132          1           0        9.426444    3.950693    3.271404
    133          1           0        7.980882    3.788888    2.274804
    134          1           0        8.799532    6.074651    3.809013
    135          1           0        7.502387    5.955520    2.733056
    136          1           0       15.505500   -0.669538    2.018461
    137          1           0       14.990740    0.977909    1.235090
    138          1           0       15.654185   -0.236960    0.244347
    139          1           0       16.551265   -2.625146    0.503752
    140          1           0       16.258289   -4.235034    1.088085
    141          1           0       15.721085   -2.712143    2.004701
    142          1           0        9.817311   -5.285491   -0.888382
    143          1           0        7.643179   -4.526499   -2.777876
    144          1           0       11.075940   -5.681156   -2.796088
    145          1           0       10.658881   -3.997002   -3.424436
    146          1           0        9.549462   -5.354172   -3.658005
    147          1           0        7.770704   -6.108603   -0.695402
    148          1           0        6.289977   -5.146887   -1.058719
    149          1           0        7.311346   -5.333933    1.384986
    150          1           0        5.971406   -4.305329    0.876294
    151          1           0        7.614673   -3.651718    1.002751
    152          1           0        4.695378   -0.628554   -3.094146
    153          1           0        3.776112    0.725959   -2.434870
    154          1           0        3.629658   -0.743298   -1.561569
    155          1           0        6.364882    4.220615    0.463828
    156          1           0        6.197781    7.144436   -2.874897
    157          1           0        7.941815    7.198330   -2.202703
    158          1           0        6.704929    7.875071   -1.311055
 ---------------------------------------------------------------------

 SCF Done:  E(RCAM-B3LYP) =  -4069.79878477     A.U. after   19 cycles

 Excitation energies and oscillator strengths:

 Excited State   1:      Singlet-A      1.7492 eV  708.80 nm  f=0.3937  <S**2>=0.000
     309 -> 316        0.18975
     312 -> 314        0.68107
     309 <- 316        0.10799
 This state for optimization and/or second-order correction.
 Total Energy, E(TD-HF/TD-DFT) =  -4069.73450267
 Copying the excited state density for this state as the 1-particle RhoCI density.

 Excited State   2:      Singlet-A      1.7943 eV  690.98 nm  f=0.3573  <S**2>=0.000
     310 -> 315        0.18872
     311 -> 313        0.68005
     310 <- 315        0.10298

 Excited State   3:      Singlet-A      2.1685 eV  571.76 nm  f=0.0945  <S**2>=0.000
     310 -> 313        0.64316
     311 -> 315       -0.27255

 Excited State   4:      Singlet-A      2.2730 eV  545.47 nm  f=0.0716  <S**2>=0.000
     309 -> 314        0.62306
     312 -> 316       -0.32203

 Excited State   5:      Singlet-A      2.8695 eV  432.08 nm  f=0.0000  <S**2>=0.000
     312 -> 313        0.70701

 The electronic state is 1-A.
 Alpha  occ. eigenvalues --  -46.88552 -46.88433 -19.24011 -19.23147 -19.20222
 Alpha  occ. eigenvalues --  -19.19916 -19.19463 -19.19360 -19.18779 -19.18255
 Alpha  occ. eigenvalues --  -14.42171 -14.41858 -14.41636 -14.41331 -14.39730
 Alpha  occ. eigenvalues --  -14.39638 -14.38964 -14.37896 -10.39516 -10.38434
 Alpha  occ. eigenvalues --  -10.36713 -10.35416 -10.35328 -10.34702 -10.32101
 Alpha  occ. eigenvalues --  -10.31441 -10.31208 -10.31054 -10.30816 -10.30766
 Alpha  occ. eigenvalues --  -10.30713 -10.30536 -10.30508 -10.30497 -10.30435
 Alpha  occ. eigenvalues --  -10.30361 -10.30261 -10.29986 -10.29632 -10.29288
 Alpha  occ. eigenvalues --  -10.29233 -10.29109 -10.29073 -10.28914 -10.28281
 Alpha  occ. eigenvalues --  -10.28109 -10.28086 -10.28067 -10.27987 -10.27890
 Alpha  occ. eigenvalues --  -10.27784 -10.27747 -10.27629 -10.27604 -10.27603
 Alpha  occ. eigenvalues --  -10.27534 -10.27515 -10.27487 -10.27486 -10.27439
 Alpha  occ. eigenvalues --  -10.27328 -10.27284 -10.27283 -10.27187 -10.27086
 Alpha  occ. eigenvalues --  -10.26864 -10.26825 -10.26582 -10.26546 -10.26477
 Alpha  occ. eigenvalues --  -10.26427 -10.26138 -10.26054 -10.25993 -10.25874
 Alpha  occ. eigenvalues --  -10.25793 -10.25793 -10.25720 -10.25517 -10.25379
 Alpha  occ. eigenvalues --  -10.25356 -10.25345 -10.25344 -10.25135 -10.24741
 Alpha  occ. eigenvalues --  -10.24317  -3.17096  -3.16893  -1.92002  -1.91806
 Alpha  occ. eigenvalues --   -1.91563  -1.91383  -1.91350  -1.91189  -1.15086
 Alpha  occ. eigenvalues --   -1.14686  -1.10400  -1.09699  -1.09431  -1.09246
 Alpha  occ. eigenvalues --   -1.07278  -1.06882  -1.05005  -1.04805  -1.04409
 Alpha  occ. eigenvalues --   -1.04086  -1.03139  -1.01587  -1.01419  -1.00866
 Alpha  occ. eigenvalues --   -0.92023  -0.91706  -0.89925  -0.89190  -0.88803
 Alpha  occ. eigenvalues --   -0.88705  -0.88435  -0.87635  -0.87496  -0.87377
 Alpha  occ. eigenvalues --   -0.87128  -0.86780  -0.86227  -0.85336  -0.84175
 Alpha  occ. eigenvalues --   -0.83883  -0.83585  -0.83341  -0.82784  -0.82685
 Alpha  occ. eigenvalues --   -0.82041  -0.81590  -0.80876  -0.80566  -0.80480
 Alpha  occ. eigenvalues --   -0.79757  -0.78987  -0.78502  -0.77151  -0.77098
 Alpha  occ. eigenvalues --   -0.76896  -0.76270  -0.75825  -0.75289  -0.75040
 Alpha  occ. eigenvalues --   -0.74821  -0.72402  -0.72169  -0.71590  -0.71344
 Alpha  occ. eigenvalues --   -0.69737  -0.69286  -0.68954  -0.68516  -0.67883
 Alpha  occ. eigenvalues --   -0.67146  -0.66748  -0.66531  -0.65950  -0.65085
 Alpha  occ. eigenvalues --   -0.65046  -0.64724  -0.64503  -0.64418  -0.64224
 Alpha  occ. eigenvalues --   -0.63359  -0.61567  -0.60937  -0.60370  -0.60109
 Alpha  occ. eigenvalues --   -0.59404  -0.59084  -0.58997  -0.58497  -0.58099
 Alpha  occ. eigenvalues --   -0.57952  -0.57915  -0.57434  -0.57204  -0.56723
 Alpha  occ. eigenvalues --   -0.56356  -0.56318  -0.55530  -0.55363  -0.55329
 Alpha  occ. eigenvalues --   -0.54975  -0.54319  -0.54163  -0.53994  -0.53884
 Alpha  occ. eigenvalues --   -0.53597  -0.53364  -0.53191  -0.53096  -0.53020
 Alpha  occ. eigenvalues --   -0.52802  -0.52712  -0.52376  -0.52071  -0.51913
 Alpha  occ. eigenvalues --   -0.51853  -0.51641  -0.51537  -0.51343  -0.51263
 Alpha  occ. eigenvalues --   -0.51103  -0.50815  -0.50799  -0.50646  -0.50417
 Alpha  occ. eigenvalues --   -0.50068  -0.49941  -0.49940  -0.49818  -0.49596
 Alpha  occ. eigenvalues --   -0.49178  -0.49065  -0.48942  -0.48831  -0.48563
 Alpha  occ. eigenvalues --   -0.48562  -0.48425  -0.48235  -0.48119  -0.47913
 Alpha  occ. eigenvalues --   -0.47712  -0.47632  -0.47418  -0.47398  -0.47211
 Alpha  occ. eigenvalues --   -0.46988  -0.46911  -0.46716  -0.46461  -0.46399
 Alpha  occ. eigenvalues --   -0.46143  -0.46045  -0.46032  -0.45463  -0.45438
 Alpha  occ. eigenvalues --   -0.45341  -0.45052  -0.44938  -0.44771  -0.44657
 Alpha  occ. eigenvalues --   -0.44293  -0.44275  -0.44154  -0.44087  -0.43969
 Alpha  occ. eigenvalues --   -0.43847  -0.43703  -0.43620  -0.43457  -0.43354
 Alpha  occ. eigenvalues --   -0.43227  -0.42999  -0.42974  -0.42638  -0.42593
 Alpha  occ. eigenvalues --   -0.42497  -0.42156  -0.41991  -0.41908  -0.41733
 Alpha  occ. eigenvalues --   -0.41577  -0.41457  -0.41340  -0.41254  -0.41064
 Alpha  occ. eigenvalues --   -0.41043  -0.40869  -0.40689  -0.40384  -0.40040
 Alpha  occ. eigenvalues --   -0.39902  -0.39902  -0.39411  -0.38960  -0.38679
 Alpha  occ. eigenvalues --   -0.38622  -0.37793  -0.37619  -0.37464  -0.37454
 Alpha  occ. eigenvalues --   -0.37154  -0.36676  -0.36270  -0.36145  -0.35724
 Alpha  occ. eigenvalues --   -0.35649  -0.35287  -0.34206  -0.34074  -0.34062
 Alpha  occ. eigenvalues --   -0.33689  -0.33334  -0.32993  -0.31817  -0.31232
 Alpha  occ. eigenvalues --   -0.31088  -0.30999  -0.30858  -0.30367  -0.30193
 Alpha  occ. eigenvalues --   -0.29814  -0.29383  -0.28193  -0.23920  -0.23619
 Alpha  occ. eigenvalues --   -0.21223  -0.20823
 Alpha virt. eigenvalues --   -0.08386  -0.08182  -0.01921  -0.01746  -0.00027
 Alpha virt. eigenvalues --    0.00200   0.02147   0.02822   0.03108   0.03279
 Alpha virt. eigenvalues --    0.04795   0.04935   0.05050   0.05695   0.05879

 Mulliken charges:
               1
     1  Mg  12.000168
     2  C    6.000378
     3  C    5.999391
     4  C    5.999965
     5  C    6.000560
     6  N    7.000019
     7  C    5.999541
     8  C    6.000091
     9  C    5.999570
    10  C    6.001228
    11  C    5.999918
    12  C    6.000123
    13  C    6.000122
    14  H    0.999979
    15  N    6.999702
    16  C    6.001329
    17  C    6.000635
    18  C    6.000685
    19  C    6.000767
    20  C    5.999826
    21  C    6.000494
    22  O    8.000599
    23  C    5.999690
    24  N    7.000171
    25  C    6.001085
    26  C    5.999595
    27  C    6.000314
    28  C    5.999141
    29  C    5.999769
    30  C    6.000323
    31  C    6.000052
    32  N    7.000045
    33  C    5.999100
    34  C    5.999178
    35  C    5.999934
    36  C    5.999419
    37  C    5.999960
    38  C    5.999518
    39  O    7.998889
    40  C    5.999890
    41  C    5.999754
    42  O    7.999486
    43  O    8.000179
    44  C    6.000180
    45  H    1.000326
    46  H    1.000091
    47  H    0.999525
    48  H    1.000266
    49  H    0.999651
    50  H    1.000585
    51  H    1.000977
    52  H    0.999867
    53  H    0.999449
    54  H    1.000007
    55  H    0.999496
    56  H    0.999766
    57  H    1.000236
    58  H    1.001004
    59  H    0.999911
    60  H    0.999649
    61  H    1.000639
    62  H    1.000446
    63  H    0.999465
    64  H    1.000379
    65  H    1.001111
    66  H    1.000401
    67  H    0.999624
    68  H    0.999686
    69  H    0.999362
    70  H    1.000396
    71  H    0.999734
    72  H    0.999512
    73  H    0.999640
    74  H    0.999372
    75  H    0.998959
    76  H    1.000403
    77  H    0.999659
    78  H    0.999612
    79  H    1.000030
    80  Mg  11.997706
    81  C    6.023658
    82  C    5.989884
    83  C    5.963734
    84  C    6.013585
    85  N    7.009624
    86  C    5.969983
    87  C    6.016254
    88  C    5.984523
    89  C    6.032262
    90  C    5.999726
    91  C    6.001307
    92  C    6.000994
    93  H    0.994897
    94  N    6.987421
    95  C    6.050198
    96  C    6.015795
    97  C    6.020616
    98  C    6.033974
    99  C    5.993613
   100  C    6.012784
   101  O    8.030806
   102  C    5.994692
   103  N    6.990413
   104  C    6.041205
   105  C    5.995864
   106  C    6.011016
   107  C    5.969390
   108  C    5.996800
   109  C    6.001938
   110  C    6.007775
   111  N    7.007200
   112  C    5.960067
   113  C    5.963354
   114  C    6.002502
   115  C    5.961543
   116  C    6.005385
   117  C    5.983939
   118  O    7.975155
   119  C    5.996039
   120  C    5.998236
   121  O    7.991491
   122  O    8.000140
   123  C    6.003533
   124  H    1.012639
   125  H    1.001473
   126  H    0.988749
   127  H    0.999035
   128  H    1.005836
   129  H    1.003190
   130  H    1.014130
   131  H    0.996059
   132  H    0.989836
   133  H    1.008322
   134  H    0.996683
   135  H    1.004305
   136  H    1.018358
   137  H    1.016404
   138  H    1.018837
   139  H    1.008568
   140  H    1.014873
   141  H    1.004753
   142  H    0.995083
   143  H    0.996024
   144  H    0.996284
   145  H    1.000297
   146  H    1.010157
   147  H    0.987726
   148  H    1.000792
   149  H    0.989459
   150  H    1.002887
   151  H    0.995218
   152  H    0.979603
   153  H    0.984012
   154  H    0.978075
   155  H    0.992864
   156  H    0.998914
   157  H    0.993853
   158  H    0.995682
 Sum of Mulliken charges = 624.00000

 Dipole moment (field-independent basis, Debye):
    X=             10.3568    Y=             -1.8872    Z=              2.8051  Tot=             10.8946
 Quadrupole moment (field-independent basis, Debye-Ang):
   XX=            194.0633   YY=             -1.7336   ZZ=             -2.0119
   XY=            -20.3064   XZ=             19.5907   YZ=              0.4363

 Normal termination of Gaussian 16 at Wed Sep 22 02:47:04 2021.
