 Gaussian 16, Revision A.03,
 Gaussian 16:  ES64L-G16RevA.03 25-Dec-2016

 -----------------------------------
 #p cam-b3lyp/Def2SVP td=(nstates=5)
 -----------------------------------

 --------------------------------
 TDDFT excited states in gaussian
 --------------------------------
 Symbolic Z-matrix:
 Charge =  0 Multiplicity = 1

                         Standard orientation:
 ---------------------------------------------------------------------
 Center     Atomic      Atomic             Coordinates (Angstroms)
 Number     Number       Type             X           Y           Z
 ---------------------------------------------------------------------
      1         12           0      -25.192229   -0.516837   -0.066967
      2          6           0      -22.952720    2.107213   -0.445563
      3          6           0      -27.093689    1.379497    1.973250
      4          6           0      -27.181279   -3.174926    0.360956
      5          6           0      -23.069177   -2.456422   -2.065126
      6          7           0      -24.987084    1.549782    0.620407
      7          6           0      -24.091188    2.449547    0.291705
      8          6           0      -24.495527    3.817000    1.012852
      9          6           0      -25.219158    3.224052    2.203327
     10          6           0      -25.868762    1.956449    1.562606
     11          6           0      -24.228982    2.972276    3.360855
     12          6           0      -25.228178    4.792572   -0.005351
     13          6           0      -25.232024    6.265903    0.413757
     14          1           0      -24.776674    6.629108    1.816584
     15          7           0      -26.969876   -0.796364    0.857903
     16          6           0      -27.643374    0.167096    1.605085
     17          6           0      -29.000190   -0.373904    1.917375
     18          6           0      -29.022330   -1.771369    1.496515
     19          6           0      -27.648424   -1.943754    0.954208
     20          6           0      -30.065201    0.439837    2.613656
     21          6           0      -30.187093   -2.865292    1.526944
     22          8           0      -30.072204   -4.002579    1.057621
     23          6           0      -31.496127   -2.439256    2.158238
     24          7           0      -25.083552   -2.502220   -0.639940
     25          6           0      -26.004353   -3.413779   -0.338397
     26          6           0      -25.617903   -4.846133   -0.820401
     27          6           0      -24.460949   -4.505819   -1.770759
     28          6           0      -24.197353   -3.050389   -1.543764
     29          6           0      -25.246150   -5.836277    0.318505
     30          6           0      -24.564273   -4.974823   -3.290032
     31          6           0      -24.904860   -3.937585   -4.309038
     32          7           0      -23.282965   -0.347560   -0.900733
     33          6           0      -22.585265   -1.165820   -1.723883
     34          6           0      -21.344111   -0.615803   -2.138558
     35          6           0      -21.434475    0.725987   -1.651181
     36          6           0      -22.613993    0.779474   -0.944218
     37          6           0      -20.158517   -1.155177   -2.895961
     38          6           0      -20.821534    2.018690   -1.576157
     39          8           0      -19.776337    2.447506   -2.015434
     40          6           0      -21.825596    3.028072   -0.933606
     41          6           0      -21.155908    3.772470    0.137147
     42          8           0      -20.694471    3.224174    1.126502
     43          8           0      -20.935150    5.140305   -0.166285
     44          6           0      -20.161916    5.904820    0.824896
     45          1           0      -27.644948    2.001779    2.679724
     46          1           0      -27.827586   -4.032481    0.555414
     47          1           0      -22.408892   -3.106239   -2.642642
     48          1           0      -23.596885    4.365933    1.291060
     49          1           0      -26.061162    3.817392    2.558926
     50          1           0      -24.564980    3.691657    4.108407
     51          1           0      -23.191700    3.164989    3.083830
     52          1           0      -24.457112    1.974841    3.735946
     53          1           0      -26.269341    4.492742   -0.127750
     54          1           0      -24.636979    4.736058   -0.919646
     55          1           0      -26.248915    6.627545    0.264416
     56          1           0      -24.609908    6.797789   -0.305667
     57          1           0      -30.003545    1.493882    2.340537
     58          1           0      -30.100811    0.385110    3.701215
     59          1           0      -31.038504    0.117069    2.244360
     60          1           0      -31.192203   -2.045378    3.127790
     61          1           0      -32.190004   -3.254838    2.359793
     62          1           0      -32.004509   -1.726372    1.508843
     63          1           0      -26.437222   -5.317056   -1.363365
     64          1           0      -23.573491   -4.935453   -1.307512
     65          1           0      -24.367158   -6.368092   -0.046512
     66          1           0      -26.014673   -6.541814    0.630419
     67          1           0      -25.050770   -5.250073    1.216483
     68          1           0      -25.228974   -5.837436   -3.338040
     69          1           0      -23.579476   -5.299180   -3.625513
     70          1           0      -24.021767   -3.792101   -4.931648
     71          1           0      -25.029704   -2.919881   -3.937131
     72          1           0      -25.715341   -4.213979   -4.983537
     73          1           0      -20.250464   -2.220909   -3.108339
     74          1           0      -19.245769   -0.876714   -2.368425
     75          1           0      -20.029443   -0.796141   -3.917234
     76          1           0      -22.204778    3.742291   -1.664025
     77          1           0      -20.148879    6.983031    0.667459
     78          1           0      -19.158256    5.490792    0.724464
     79          1           0      -20.559027    5.603197    1.793423
     80         12           0       24.601656   -0.801012    0.141970
     81          6           0       24.173123    2.423763   -0.989004
     82          6           0       24.970011    0.515601    3.443353
     83          6           0       25.373778   -3.792638    1.245000
     84          6           0       24.402482   -2.017433   -3.120573
     85          7           0       24.553084    1.253436    1.031061
     86          6           0       24.331362    2.402515    0.386055
     87          6           0       24.255498    3.562818    1.431337
     88          6           0       24.657861    2.888998    2.822495
     89          6           0       24.793516    1.413483    2.399557
     90          6           0       25.999340    3.277409    3.413860
     91          6           0       22.924869    4.330158    1.447725
     92          6           0       23.148762    5.830160    1.355203
     93          1           0       22.131285    6.820881    1.939437
     94          7           0       25.022194   -1.529841    2.095003
     95          6           0       25.079529   -0.885928    3.297350
     96          6           0       25.321289   -1.760080    4.356746
     97          6           0       25.573626   -3.042251    3.755333
     98          6           0       25.311069   -2.838394    2.288683
     99          6           0       25.361030   -1.339367    5.818695
    100          6           0       26.047259   -4.329447    4.410426
    101          8           0       26.369085   -5.284495    3.677172
    102          6           0       26.248327   -4.437024    5.866910
    103          7           0       24.807956   -2.587282   -0.808135
    104          6           0       25.081035   -3.762496   -0.138748
    105          6           0       25.204889   -5.029665   -1.063919
    106          6           0       24.603863   -4.426069   -2.404486
    107          6           0       24.619125   -2.914142   -2.114030
    108          6           0       26.594990   -5.737249   -1.313668
    109          6           0       23.254117   -5.050304   -2.984027
    110          6           0       21.989134   -4.619263   -2.289959
    111          7           0       24.484506   -0.031803   -1.690671
    112          6           0       24.411561   -0.596382   -2.949864
    113          6           0       24.262397    0.369471   -3.960238
    114          6           0       24.129199    1.548014   -3.217071
    115          6           0       24.265022    1.275601   -1.824580
    116          6           0       24.127913    0.007658   -5.377967
    117          6           0       24.025771    2.939183   -3.437076
    118          8           0       24.036473    3.534227   -4.516536
    119          6           0       24.018237    3.628892   -1.974468
    120          6           0       25.108694    4.584820   -1.894949
    121          8           0       26.286256    4.334101   -1.776270
    122          8           0       24.656755    5.818173   -2.085754
    123          6           0       25.593605    6.897687   -2.168053
    124          1           0       25.132329    0.931778    4.439370
    125          1           0       25.618616   -4.834548    1.460147
    126          1           0       24.348470   -2.439929   -4.126123
    127          1           0       25.085267    4.180085    1.088482
    128          1           0       23.919016    3.250758    3.538448
    129          1           0       26.519601    4.070385    2.875793
    130          1           0       26.682618    2.429061    3.385282
    131          1           0       25.892181    3.461681    4.483240
    132          1           0       22.284748    4.123644    2.305630
    133          1           0       22.338244    3.987173    0.595796
    134          1           0       23.119634    6.068874    0.291445
    135          1           0       24.118981    6.015811    1.815589
    136          1           0       24.970573   -0.331328    5.958718
    137          1           0       26.402519   -1.247740    6.127709
    138          1           0       24.915958   -2.100390    6.458587
    139          1           0       26.926449   -5.257237    6.105188
    140          1           0       25.282225   -4.698120    6.299966
    141          1           0       26.653557   -3.506444    6.263552
    142          1           0       24.473767   -5.798742   -0.812725
    143          1           0       25.280640   -4.667078   -3.223287
    144          1           0       27.346270   -5.203515   -0.732934
    145          1           0       26.927623   -5.509257   -2.327107
    146          1           0       26.668916   -6.810743   -1.137361
    147          1           0       23.322248   -6.123332   -2.806622
    148          1           0       23.144523   -4.948007   -4.062995
    149          1           0       21.201337   -4.622944   -3.042452
    150          1           0       21.945186   -3.687145   -1.728038
    151          1           0       21.790455   -5.368893   -1.523991
    152          1           0       23.660640   -0.943012   -5.633585
    153          1           0       25.006689    0.173293   -6.000031
    154          1           0       23.471113    0.803468   -5.728334
    155          1           0       23.067020    4.148023   -1.858633
    156          1           0       25.810969    7.333647   -1.192297
    157          1           0       25.115845    7.684806   -2.751105
    158          1           0       26.527909    6.544666   -2.604840
 ---------------------------------------------------------------------

 SCF Done:  E(RCAM-B3LYP) =  -4069.83504956     A.U. after   18 cycles

 Excitation energies and oscillator strengths:

 Excited State   1:      Singlet-A      1.7067 eV  726.43 nm  f=0.4138  <S**2>=0.000
     309 -> 315        0.17262
     311 -> 313        0.68673
     309 <- 315        0.10536
 This state for optimization and/or second-order correction.
 Total Energy, E(TD-HF/TD-DFT) =  -4069.77232771
 Copying the excited state density for this state as the 1-particle RhoCI density.

 Excited State   2:      Singlet-A      1.7356 eV  714.37 nm  f=0.3949  <S**2>=0.000
     310 -> 316        0.17783
     312 -> 314        0.68645
     310 <- 316        0.10692

 Excited State   3:      Singlet-A      2.2152 eV  559.70 nm  f=0.1456  <S**2>=0.000
     310 -> 314        0.65486
     312 -> 316       -0.25749

 Excited State   4:      Singlet-A      2.2215 eV  558.11 nm  f=0.1641  <S**2>=0.000
     309 -> 313        0.65320
     311 -> 315       -0.25404

 Excited State   5:      Singlet-A      3.1644 eV  391.81 nm  f=0.0000  <S**2>=0.000
     312 -> 313        0.70711

 The electronic state is 1-A.
 Alpha  occ. eigenvalues --  -46.87776 -46.87664 -19.24806 -19.23926 -19.20490
 Alpha  occ. eigenvalues --  -19.19500 -19.18603 -19.18569 -19.18221 -19.17914
 Alpha  occ. eigenvalues --  -14.42277 -14.42144 -14.42024 -14.41472 -14.40122
 Alpha  occ. eigenvalues --  -14.39692 -14.38941 -14.38644 -10.38886 -10.38280
 Alpha  occ. eigenvalues --  -10.37247 -10.34848 -10.34488 -10.34118 -10.31480
 Alpha  occ. eigenvalues --  -10.31342 -10.31197 -10.31164 -10.31150 -10.31136
 Alpha  occ. eigenvalues --  -10.31077 -10.31010 -10.30716 -10.30604 -10.30467
 Alpha  occ. eigenvalues --  -10.30319 -10.30134 -10.29863 -10.29362 -10.29032
 Alpha  occ. eigenvalues --  -10.29026 -10.28967 -10.28832 -10.28682 -10.28533
 Alpha  occ. eigenvalues --  -10.28501 -10.28261 -10.28253 -10.28245 -10.28131
 Alpha  occ. eigenvalues --  -10.28108 -10.27969 -10.27961 -10.27939 -10.27677
 Alpha  occ. eigenvalues --  -10.27642 -10.27640 -10.27603 -10.27566 -10.27561
 Alpha  occ. eigenvalues --  -10.27477 -10.27305 -10.27273 -10.27254 -10.27174
 Alpha  occ. eigenvalues --  -10.27168 -10.27074 -10.26776 -10.26774 -10.26580
 Alpha  occ. eigenvalues --  -10.26342 -10.26286 -10.26254 -10.26164 -10.26146
 Alpha  occ. eigenvalues --  -10.25905 -10.25775 -10.25755 -10.25724 -10.25683
 Alpha  occ. eigenvalues --  -10.25591 -10.25540 -10.24956 -10.24617 -10.24533
 Alpha  occ. eigenvalues --  -10.24194  -3.16541  -3.16448  -1.91452  -1.91346
 Alpha  occ. eigenvalues --   -1.90961  -1.90920  -1.90889  -1.90753  -1.17911
 Alpha  occ. eigenvalues --   -1.14510  -1.10496  -1.09587  -1.08832  -1.08483
 Alpha  occ. eigenvalues --   -1.07775  -1.06756  -1.05596  -1.04739  -1.04572
 Alpha  occ. eigenvalues --   -1.04160  -1.03680  -1.03310  -1.03174  -1.02525
 Alpha  occ. eigenvalues --   -0.92143  -0.92067  -0.89343  -0.89220  -0.88751
 Alpha  occ. eigenvalues --   -0.88592  -0.88323  -0.88297  -0.87629  -0.87495
 Alpha  occ. eigenvalues --   -0.87308  -0.87132  -0.86764  -0.86273  -0.84572
 Alpha  occ. eigenvalues --   -0.84345  -0.83843  -0.83677  -0.82929  -0.82774
 Alpha  occ. eigenvalues --   -0.82578  -0.82378  -0.81160  -0.80966  -0.80573
 Alpha  occ. eigenvalues --   -0.80081  -0.78599  -0.78319  -0.77311  -0.77255
 Alpha  occ. eigenvalues --   -0.76873  -0.76675  -0.75959  -0.75871  -0.75262
 Alpha  occ. eigenvalues --   -0.75083  -0.73429  -0.72830  -0.71431  -0.71189
 Alpha  occ. eigenvalues --   -0.69630  -0.69263  -0.68817  -0.68764  -0.67943
 Alpha  occ. eigenvalues --   -0.67773  -0.67124  -0.66628  -0.65372  -0.65065
 Alpha  occ. eigenvalues --   -0.64898  -0.64677  -0.64584  -0.64363  -0.64202
 Alpha  occ. eigenvalues --   -0.64015  -0.62322  -0.61262  -0.60648  -0.60406
 Alpha  occ. eigenvalues --   -0.59981  -0.59600  -0.59141  -0.58973  -0.58491
 Alpha  occ. eigenvalues --   -0.58329  -0.58029  -0.57992  -0.57661  -0.57632
 Alpha  occ. eigenvalues --   -0.56505  -0.56183  -0.55813  -0.55683  -0.55452
 Alpha  occ. eigenvalues --   -0.55071  -0.54800  -0.54651  -0.54339  -0.54002
 Alpha  occ. eigenvalues --   -0.53701  -0.53513  -0.53370  -0.53145  -0.53008
 Alpha  occ. eigenvalues --   -0.52753  -0.52672  -0.52485  -0.52348  -0.52330
 Alpha  occ. eigenvalues --   -0.52148  -0.52109  -0.51811  -0.51701  -0.51307
 Alpha  occ. eigenvalues --   -0.51222  -0.50736  -0.50706  -0.50358  -0.50279
 Alpha  occ. eigenvalues --   -0.50275  -0.49940  -0.49902  -0.49645  -0.49516
 Alpha  occ. eigenvalues --   -0.49450  -0.49246  -0.49237  -0.49122  -0.49018
 Alpha  occ. eigenvalues --   -0.48941  -0.48820  -0.48557  -0.48510  -0.48374
 Alpha  occ. eigenvalues --   -0.48124  -0.47767  -0.47753  -0.47389  -0.47309
 Alpha  occ. eigenvalues --   -0.46888  -0.46857  -0.46480  -0.46467  -0.46355
 Alpha  occ. eigenvalues --   -0.46302  -0.46033  -0.46003  -0.45798  -0.45583
 Alpha  occ. eigenvalues --   -0.45518  -0.45403  -0.45129  -0.44956  -0.44905
 Alpha  occ. eigenvalues --   -0.44656  -0.44567  -0.44354  -0.44337  -0.44021
 Alpha  occ. eigenvalues --   -0.43957  -0.43876  -0.43612  -0.43472  -0.43456
 Alpha  occ. eigenvalues --   -0.43332  -0.43234  -0.43219  -0.42989  -0.42657
 Alpha  occ. eigenvalues --   -0.42506  -0.42490  -0.42079  -0.41974  -0.41805
 Alpha  occ. eigenvalues --   -0.41566  -0.41488  -0.41419  -0.41300  -0.41091
 Alpha  occ. eigenvalues --   -0.41038  -0.40983  -0.40967  -0.40536  -0.40463
 Alpha  occ. eigenvalues --   -0.40229  -0.39985  -0.39197  -0.39177  -0.38862
 Alpha  occ. eigenvalues --   -0.38205  -0.38177  -0.38067  -0.37717  -0.37577
 Alpha  occ. eigenvalues --   -0.37168  -0.36634  -0.36515  -0.36335  -0.36161
 Alpha  occ. eigenvalues --   -0.36161  -0.35636  -0.34450  -0.34213  -0.33948
 Alpha  occ. eigenvalues --   -0.33862  -0.33263  -0.33111  -0.32205  -0.31426
 Alpha  occ. eigenvalues --   -0.31164  -0.30764  -0.30517  -0.30512  -0.30192
 Alpha  occ. eigenvalues --   -0.30040  -0.29746  -0.29571  -0.24104  -0.23907
 Alpha  occ. eigenvalues --   -0.21460  -0.21402
 Alpha virt. eigenvalues --   -0.09079  -0.08846  -0.01407  -0.01266  -0.00027
 Alpha virt. eigenvalues --    0.00506   0.02463   0.02499   0.03185   0.03496
 Alpha virt. eigenvalues --    0.04784   0.05313   0.05659   0.05687   0.06125

 Mulliken charges:
               1
     1  Mg   0.842581
     2  C   -0.021680
     3  C   -0.078598
     4  C   -0.075105
     5  C   -0.111280
     6  N   -0.243050
     7  C   -0.061988
     8  C   -0.047411
     9  C   -0.052427
    10  C    0.015702
    11  C    0.105866
    12  C    0.057323
    13  C   -0.053894
    14  H    0.023557
    15  N   -0.393570
    16  C    0.179581
    17  C   -0.141560
    18  C   -0.075163
    19  C    0.104594
    20  C    0.096174
    21  C    0.057903
    22  O   -0.196823
    23  C    0.033355
    24  N   -0.301831
    25  C    0.062651
    26  C   -0.047741
    27  C    0.014864
    28  C    0.029765
    29  C    0.068823
    30  C    0.044636
    31  C    0.006256
    32  N   -0.283334
    33  C    0.112478
    34  C   -0.165621
    35  C    0.022720
    36  C    0.067202
    37  C    0.123695
    38  C    0.018821
    39  O   -0.167215
    40  C    0.053359
    41  C    0.179854
    42  O   -0.224413
    43  O   -0.371072
    44  C    0.187053
    45  H   -0.022518
    46  H   -0.009363
    47  H   -0.032033
    48  H   -0.002144
    49  H   -0.022974
    50  H    0.012573
    51  H    0.048807
    52  H    0.014409
    53  H    0.011128
    54  H    0.016549
    55  H    0.022751
    56  H    0.030182
    57  H    0.017737
    58  H    0.042055
    59  H    0.008713
    60  H    0.038370
    61  H    0.029191
    62  H    0.060247
    63  H    0.009243
    64  H    0.004395
    65  H    0.017335
    66  H    0.022862
    67  H    0.019444
    68  H    0.008882
    69  H    0.003210
    70  H   -0.003655
    71  H    0.027799
    72  H    0.017089
    73  H   -0.005942
    74  H    0.043962
    75  H    0.023726
    76  H    0.037109
    77  H    0.045003
    78  H    0.038807
    79  H    0.032013
    80  Mg   0.849756
    81  C   -0.032500
    82  C   -0.104331
    83  C   -0.040422
    84  C   -0.102948
    85  N   -0.277017
    86  C   -0.073607
    87  C    0.020020
    88  C   -0.112948
    89  C    0.098364
    90  C    0.051555
    91  C    0.081285
    92  C   -0.091579
    93  H    0.011498
    94  N   -0.341457
    95  C    0.146759
    96  C   -0.163372
    97  C   -0.029817
    98  C    0.148881
    99  C    0.116781
   100  C   -0.008355
   101  O   -0.229869
   102  C    0.068412
   103  N   -0.320742
   104  C    0.008032
   105  C   -0.016748
   106  C   -0.037902
   107  C    0.071433
   108  C    0.076345
   109  C    0.018596
   110  C   -0.003783
   111  N   -0.375137
   112  C    0.118489
   113  C   -0.127446
   114  C    0.017217
   115  C    0.159545
   116  C    0.116724
   117  C    0.021792
   118  O   -0.183745
   119  C   -0.013651
   120  C    0.166798
   121  O   -0.220824
   122  O   -0.295148
   123  C    0.174917
   124  H   -0.024857
   125  H   -0.005996
   126  H   -0.029582
   127  H    0.009678
   128  H    0.016855
   129  H    0.020821
   130  H    0.019450
   131  H    0.013198
   132  H    0.015444
   133  H    0.005753
   134  H    0.041360
   135  H    0.035596
   136  H    0.018816
   137  H    0.033992
   138  H    0.033322
   139  H    0.029250
   140  H    0.043642
   141  H    0.024125
   142  H    0.010410
   143  H    0.001439
   144  H    0.018252
   145  H    0.006729
   146  H    0.034641
   147  H    0.004109
   148  H    0.008760
   149  H    0.014770
   150  H    0.027015
   151  H    0.007627
   152  H    0.024898
   153  H    0.030959
   154  H    0.021957
   155  H    0.035938
   156  H    0.024928
   157  H    0.037069
   158  H    0.049777
 Sum of Mulliken charges =  -0.00000

 Dipole moment (field-independent basis, Debye):
    X=             -7.0323    Y=             -0.4457    Z=              5.2596  Tot=              8.7929
 Quadrupole moment (field-independent basis, Debye-Ang):
   XX=           -345.4667   YY=           -490.5127   ZZ=           -489.6716
   XY=            -60.8371   XZ=             52.6600   YZ=             43.0361

 Normal termination of Gaussian 16 at Thu Sep 16 14:55:16 2021.
