 Gaussian 16, Revision A.03,
 Gaussian 16:  ES64L-G16RevA.03 25-Dec-2016

 ----------------------------------------------------------
 #p cam-b3lyp/Def2SVP td=(nstates=5) density=(transition=1)
 ----------------------------------------------------------

 --------------------------------
 TDDFT excited states in gaussian
 --------------------------------
 Symbolic Z-matrix:
 Charge =  0 Multiplicity = 1

                         Standard orientation:
 ---------------------------------------------------------------------
 Center     Atomic      Atomic             Coordinates (Angstroms)
 Number     Number       Type             X           Y           Z
 ---------------------------------------------------------------------
      1         12           0       -4.733766   -0.186548    1.001679
      2          6           0       -4.815111    3.190422    0.000501
      3          6           0       -2.162855    0.543060    3.096621
      4          6           0       -4.622577   -3.461608    1.839273
      5          6           0       -7.049311   -0.911337   -1.482565
      6          7           0       -3.567278    1.599906    1.416662
      7          6           0       -3.850128    2.896494    0.978461
      8          6           0       -2.985412    3.871465    1.719589
      9          6           0       -1.871902    2.961899    2.291039
     10          6           0       -2.587921    1.586814    2.269896
     11          6           0       -0.534491    2.869232    1.490704
     12          6           0       -3.708108    4.729106    2.825536
     13          6           0       -3.400166    6.191755    2.774197
     14          1           0       -3.087167    6.876455    4.117775
     15          7           0       -3.645087   -1.238199    2.337928
     16          6           0       -2.660584   -0.744066    3.209784
     17          6           0       -2.185400   -1.779568    4.037969
     18          6           0       -2.908412   -3.018148    3.698118
     19          6           0       -3.763870   -2.611974    2.619804
     20          6           0       -1.034995   -1.678772    4.996474
     21          6           0       -2.789156   -4.513538    4.225827
     22          8           0       -3.518477   -5.379937    3.804944
     23          6           0       -1.825533   -4.874278    5.347373
     24          7           0       -5.625117   -1.954548    0.198479
     25          6           0       -5.389902   -3.183064    0.727555
     26          6           0       -6.193539   -4.301337   -0.093417
     27          6           0       -7.207333   -3.440025   -0.966616
     28          6           0       -6.597822   -1.989484   -0.752074
     29          6           0       -5.340212   -5.256728   -0.972722
     30          6           0       -8.704551   -3.541299   -0.504307
     31          6           0       -9.587244   -3.910422   -1.621578
     32          7           0       -5.703163    0.880974   -0.482656
     33          6           0       -6.708421    0.468159   -1.355823
     34          6           0       -7.181973    1.589734   -2.120332
     35          6           0       -6.452503    2.659664   -1.643367
     36          6           0       -5.614926    2.221427   -0.666648
     37          6           0       -8.338669    1.471052   -3.146745
     38          6           0       -6.211676    4.082942   -1.794394
     39          8           0       -6.657937    4.829574   -2.637405
     40          6           0       -5.089104    4.491391   -0.716683
     41          6           0       -3.925940    5.053206   -1.427513
     42          8           0       -3.268398    4.444455   -2.311911
     43          8           0       -3.729954    6.329995   -0.989086
     44          6           0       -2.853273    7.150866   -1.865797
     45          1           0       -1.313433    0.843158    3.713714
     46          1           0       -4.639047   -4.535556    2.035448
     47          1           0       -7.721581   -1.166546   -2.303764
     48          1           0       -2.440119    4.560988    1.074004
     49          1           0       -1.560786    3.235917    3.299264
     50          1           0       -0.256225    3.795126    0.985630
     51          1           0       -0.649490    2.052986    0.777060
     52          1           0        0.332382    2.526095    2.054829
     53          1           0       -3.414964    4.272424    3.770653
     54          1           0       -4.789015    4.587914    2.799890
     55          1           0       -4.305869    6.577339    2.305820
     56          1           0       -2.494467    6.353795    2.189917
     57          1           0       -1.300503   -1.665968    6.053795
     58          1           0       -0.540507   -0.717941    4.859500
     59          1           0       -0.240989   -2.422289    4.932293
     60          1           0       -2.050504   -5.908780    5.603881
     61          1           0       -1.867795   -4.151004    6.162262
     62          1           0       -0.801956   -4.668980    5.032571
     63          1           0       -6.671562   -4.996007    0.597448
     64          1           0       -7.103164   -3.743694   -2.009331
     65          1           0       -4.271621   -5.045410   -1.024120
     66          1           0       -5.667038   -5.287272   -2.012421
     67          1           0       -5.471122   -6.257925   -0.561290
     68          1           0       -9.029937   -2.556470   -0.167072
     69          1           0       -8.891220   -4.283681    0.271387
     70          1           0       -9.799589   -4.977895   -1.556722
     71          1           0       -9.295114   -3.648411   -2.637876
     72          1           0      -10.513398   -3.339749   -1.552360
     73          1           0       -8.879266    0.542206   -2.963253
     74          1           0       -7.986076    1.627026   -4.167308
     75          1           0       -9.016155    2.279687   -2.875016
     76          1           0       -5.468645    5.216268    0.003904
     77          1           0       -2.850247    8.188406   -1.532138
     78          1           0       -3.364228    7.174225   -2.828580
     79          1           0       -1.884566    6.651307   -1.896312
     80         12           0        4.112648   -0.910498   -1.110823
     81          6           0        6.731974    1.219376   -0.290666
     82          6           0        2.106345    1.917639   -1.188705
     83          6           0        1.449674   -3.005153   -1.406170
     84          6           0        6.253158   -3.609349   -0.810299
     85          7           0        4.386601    1.308179   -0.721412
     86          6           0        5.565507    1.978222   -0.431868
     87          6           0        5.374474    3.525726   -0.181649
     88          6           0        3.798539    3.603452   -0.173745
     89          6           0        3.373788    2.179625   -0.690612
     90          6           0        3.029127    3.917249    1.112739
     91          6           0        6.094025    4.350242   -1.264724
     92          6           0        7.348918    5.075068   -0.854811
     93          1           0        7.586640    6.459797   -1.482968
     94          7           0        2.089712   -0.631693   -1.469472
     95          6           0        1.527595    0.605016   -1.534683
     96          6           0        0.090094    0.370749   -1.773646
     97          6           0       -0.153792   -1.011169   -1.741863
     98          6           0        1.102847   -1.625265   -1.553221
     99          6           0       -0.814508    1.486063   -2.110034
    100          6           0       -1.445655   -1.768155   -1.841873
    101          8           0       -1.510991   -3.027041   -1.909312
    102          6           0       -2.734358   -1.150343   -1.837735
    103          7           0        3.895257   -2.950478   -1.188757
    104          6           0        2.705587   -3.593134   -1.344400
    105          6           0        2.824035   -5.066436   -1.345600
    106          6           0        4.373996   -5.287008   -1.216001
    107          6           0        4.844029   -3.897114   -1.003678
    108          6           0        2.044172   -5.986436   -0.360742
    109          6           0        5.057764   -6.106663   -2.418941
    110          6           0        5.519040   -5.439093   -3.748494
    111          7           0        6.062299   -1.218513   -0.616586
    112          6           0        6.809370   -2.360255   -0.571316
    113          6           0        8.162098   -2.044983   -0.416596
    114          6           0        8.139186   -0.611744   -0.211463
    115          6           0        6.841084   -0.170301   -0.373478
    116          6           0        9.360070   -2.991569   -0.464253
    117          6           0        9.021822    0.508428   -0.054436
    118          8           0       10.227844    0.648820   -0.042408
    119          6           0        8.077900    1.747450    0.133880
    120          6           0        8.100492    2.185956    1.543441
    121          8           0        7.153220    2.120763    2.357492
    122          8           0        9.288927    2.676347    1.958413
    123          6           0        9.382994    3.373025    3.286603
    124          1           0        1.468882    2.802631   -1.148563
    125          1           0        0.634061   -3.729516   -1.460053
    126          1           0        7.017535   -4.387629   -0.869131
    127          1           0        5.564076    3.800253    0.856563
    128          1           0        3.541364    4.338784   -0.936079
    129          1           0        2.488358    3.033573    1.452371
    130          1           0        2.221751    4.588566    0.823935
    131          1           0        3.625829    4.320881    1.931471
    132          1           0        5.381676    5.126368   -1.546968
    133          1           0        6.238163    3.711930   -2.136435
    134          1           0        8.193925    4.442567   -1.128122
    135          1           0        7.480034    5.219722    0.217654
    136          1           0       -1.170584    1.260729   -3.114460
    137          1           0       -0.439101    2.510048   -2.092911
    138          1           0       -1.669614    1.477767   -1.434194
    139          1           0       -2.690294   -0.404657   -1.044374
    140          1           0       -3.523837   -1.900781   -1.836498
    141          1           0       -2.876779   -0.532840   -2.724623
    142          1           0        2.478945   -5.264520   -2.359960
    143          1           0        4.585276   -5.814495   -0.286574
    144          1           0        1.317504   -6.614785   -0.875823
    145          1           0        1.468096   -5.398842    0.354883
    146          1           0        2.692382   -6.606602    0.258280
    147          1           0        4.262657   -6.797838   -2.699360
    148          1           0        5.848842   -6.626064   -1.877880
    149          1           0        5.495642   -4.349685   -3.757294
    150          1           0        5.096739   -5.853481   -4.664383
    151          1           0        6.556101   -5.758374   -3.843062
    152          1           0        9.958255   -2.937743    0.445953
    153          1           0       10.012306   -2.652660   -1.268968
    154          1           0        9.112061   -4.025248   -0.706727
    155          1           0        8.538855    2.586754   -0.387163
    156          1           0       10.351550    3.843546    3.116880
    157          1           0        9.369859    2.715712    4.155389
    158          1           0        8.564595    4.086788    3.385739
 ---------------------------------------------------------------------

 SCF Done:  E(RCAM-B3LYP) =  -4069.84239198     A.U. after   19 cycles

 Excitation energies and oscillator strengths:

 Excited State   1:      Singlet-A      1.6969 eV  730.65 nm  f=0.3958  <S**2>=0.000
     310 -> 316       -0.17524
     312 -> 314        0.68417
     310 <- 316       -0.10715
 This state for optimization and/or second-order correction.
 Total Energy, E(TD-HF/TD-DFT) =  -4069.78003195
 Copying the excited state density for this state as the 1-particle RhoCI density.

 Excited State   2:      Singlet-A      1.7400 eV  712.53 nm  f=0.3912  <S**2>=0.000
     309 -> 315       -0.17628
     311 -> 313        0.68379
     309 <- 315       -0.10624

 Excited State   3:      Singlet-A      2.1840 eV  567.69 nm  f=0.0374  <S**2>=0.000
     309 -> 313        0.59610
     310 -> 314       -0.27498
     311 -> 315        0.21802
     312 -> 316       -0.10402

 Excited State   4:      Singlet-A      2.1918 eV  565.66 nm  f=0.0003  <S**2>=0.000
     312 -> 313        0.70461

 Excited State   5:      Singlet-A      2.2166 eV  559.34 nm  f=0.2112  <S**2>=0.000
     309 -> 313        0.27057
     310 -> 314        0.58834
     311 -> 315        0.11165
     312 -> 316        0.24269

 The electronic state is 1-A.
 Alpha  occ. eigenvalues --  -46.87457 -46.87400 -19.26232 -19.24120 -19.20219
 Alpha  occ. eigenvalues --  -19.19945 -19.19304 -19.18311 -19.18151 -19.17781
 Alpha  occ. eigenvalues --  -14.42329 -14.41910 -14.41821 -14.41618 -14.39432
 Alpha  occ. eigenvalues --  -14.39423 -14.38779 -14.38283 -10.40054 -10.38583
 Alpha  occ. eigenvalues --  -10.36399 -10.35325 -10.34258 -10.34116 -10.32717
 Alpha  occ. eigenvalues --  -10.32099 -10.31300 -10.30908 -10.30875 -10.30785
 Alpha  occ. eigenvalues --  -10.30729 -10.30682 -10.30539 -10.30496 -10.30457
 Alpha  occ. eigenvalues --  -10.30130 -10.30085 -10.29950 -10.29256 -10.29100
 Alpha  occ. eigenvalues --  -10.28942 -10.28939 -10.28497 -10.28424 -10.28325
 Alpha  occ. eigenvalues --  -10.28188 -10.28185 -10.28147 -10.28115 -10.28091
 Alpha  occ. eigenvalues --  -10.28051 -10.28013 -10.27935 -10.27638 -10.27592
 Alpha  occ. eigenvalues --  -10.27591 -10.27569 -10.27532 -10.27318 -10.27236
 Alpha  occ. eigenvalues --  -10.27194 -10.27172 -10.27109 -10.27082 -10.27047
 Alpha  occ. eigenvalues --  -10.26925 -10.26761 -10.26750 -10.26636 -10.26519
 Alpha  occ. eigenvalues --  -10.26461 -10.26453 -10.26294 -10.26294 -10.26242
 Alpha  occ. eigenvalues --  -10.25903 -10.25897 -10.25798 -10.25795 -10.25716
 Alpha  occ. eigenvalues --  -10.25649 -10.25176 -10.24885 -10.24661 -10.24565
 Alpha  occ. eigenvalues --  -10.24499  -3.16174  -3.16111  -1.91085  -1.91022
 Alpha  occ. eigenvalues --   -1.90633  -1.90554  -1.90477  -1.90434  -1.16341
 Alpha  occ. eigenvalues --   -1.15186  -1.11757  -1.10605  -1.09462  -1.07719
 Alpha  occ. eigenvalues --   -1.06980  -1.05223  -1.05151  -1.04780  -1.04006
 Alpha  occ. eigenvalues --   -1.03539  -1.03187  -1.02683  -1.02130  -1.01578
 Alpha  occ. eigenvalues --   -0.93021  -0.92873  -0.89502  -0.89084  -0.88744
 Alpha  occ. eigenvalues --   -0.88353  -0.88178  -0.88110  -0.87272  -0.87187
 Alpha  occ. eigenvalues --   -0.86948  -0.86515  -0.86007  -0.85994  -0.84591
 Alpha  occ. eigenvalues --   -0.84350  -0.83903  -0.83595  -0.83099  -0.82555
 Alpha  occ. eigenvalues --   -0.82299  -0.82188  -0.81393  -0.80899  -0.80889
 Alpha  occ. eigenvalues --   -0.80457  -0.78348  -0.78280  -0.77625  -0.77406
 Alpha  occ. eigenvalues --   -0.77027  -0.76875  -0.76205  -0.75885  -0.75165
 Alpha  occ. eigenvalues --   -0.74935  -0.73072  -0.72992  -0.71254  -0.71087
 Alpha  occ. eigenvalues --   -0.70031  -0.68871  -0.68709  -0.68164  -0.67950
 Alpha  occ. eigenvalues --   -0.67792  -0.66903  -0.66705  -0.65776  -0.65221
 Alpha  occ. eigenvalues --   -0.65171  -0.65051  -0.64761  -0.64548  -0.64285
 Alpha  occ. eigenvalues --   -0.64273  -0.62310  -0.61495  -0.60565  -0.60240
 Alpha  occ. eigenvalues --   -0.59658  -0.59608  -0.59455  -0.59073  -0.58524
 Alpha  occ. eigenvalues --   -0.58516  -0.57926  -0.57798  -0.57768  -0.57164
 Alpha  occ. eigenvalues --   -0.56247  -0.56021  -0.55982  -0.55882  -0.55581
 Alpha  occ. eigenvalues --   -0.55347  -0.54749  -0.54396  -0.53928  -0.53861
 Alpha  occ. eigenvalues --   -0.53773  -0.53679  -0.53214  -0.52980  -0.52894
 Alpha  occ. eigenvalues --   -0.52551  -0.52413  -0.52270  -0.52044  -0.52039
 Alpha  occ. eigenvalues --   -0.51958  -0.51748  -0.51643  -0.51287  -0.51144
 Alpha  occ. eigenvalues --   -0.51053  -0.50810  -0.50501  -0.50420  -0.50292
 Alpha  occ. eigenvalues --   -0.50097  -0.49969  -0.49773  -0.49580  -0.49464
 Alpha  occ. eigenvalues --   -0.49330  -0.49238  -0.49096  -0.48985  -0.48796
 Alpha  occ. eigenvalues --   -0.48718  -0.48471  -0.48199  -0.48105  -0.47991
 Alpha  occ. eigenvalues --   -0.47763  -0.47433  -0.47353  -0.46994  -0.46882
 Alpha  occ. eigenvalues --   -0.46791  -0.46741  -0.46635  -0.46374  -0.46337
 Alpha  occ. eigenvalues --   -0.46146  -0.46076  -0.45954  -0.45888  -0.45590
 Alpha  occ. eigenvalues --   -0.45474  -0.45308  -0.45277  -0.45162  -0.45075
 Alpha  occ. eigenvalues --   -0.44981  -0.44842  -0.44708  -0.44577  -0.44423
 Alpha  occ. eigenvalues --   -0.44242  -0.43834  -0.43779  -0.43694  -0.43593
 Alpha  occ. eigenvalues --   -0.43367  -0.43176  -0.43110  -0.43053  -0.42836
 Alpha  occ. eigenvalues --   -0.42728  -0.42684  -0.42437  -0.42378  -0.42224
 Alpha  occ. eigenvalues --   -0.41998  -0.41577  -0.41452  -0.41444  -0.41115
 Alpha  occ. eigenvalues --   -0.41045  -0.40751  -0.40422  -0.40397  -0.40241
 Alpha  occ. eigenvalues --   -0.39733  -0.39609  -0.39282  -0.38984  -0.38942
 Alpha  occ. eigenvalues --   -0.38488  -0.38195  -0.38058  -0.37897  -0.37802
 Alpha  occ. eigenvalues --   -0.37287  -0.36785  -0.36561  -0.36457  -0.36339
 Alpha  occ. eigenvalues --   -0.36131  -0.35655  -0.34759  -0.34378  -0.34232
 Alpha  occ. eigenvalues --   -0.33369  -0.33099  -0.32916  -0.31823  -0.31465
 Alpha  occ. eigenvalues --   -0.31137  -0.30882  -0.30454  -0.30103  -0.29923
 Alpha  occ. eigenvalues --   -0.29747  -0.29725  -0.29225  -0.24130  -0.23571
 Alpha  occ. eigenvalues --   -0.21721  -0.21003
 Alpha virt. eigenvalues --   -0.09182  -0.08563  -0.01470  -0.01241   0.00560
 Alpha virt. eigenvalues --    0.00796   0.02460   0.02585   0.03317   0.03646
 Alpha virt. eigenvalues --    0.03938   0.05004   0.05161   0.05596   0.05676

 Mulliken charges:
               1
     1  Mg  11.995541
     2  C    6.000519
     3  C    5.996023
     4  C    6.000019
     5  C    6.000511
     6  N    6.998639
     7  C    5.993451
     8  C    6.001161
     9  C    6.000967
    10  C    5.998097
    11  C    6.002730
    12  C    5.999940
    13  C    5.998244
    14  H    1.004445
    15  N    6.998748
    16  C    6.001020
    17  C    6.000716
    18  C    6.002491
    19  C    5.999369
    20  C    5.998194
    21  C    6.000953
    22  O    8.002458
    23  C    5.999780
    24  N    6.998487
    25  C    5.998650
    26  C    5.999977
    27  C    6.001202
    28  C    5.996231
    29  C    5.999305
    30  C    5.999445
    31  C    5.999109
    32  N    6.998842
    33  C    5.997007
    34  C    5.998669
    35  C    6.000601
    36  C    5.995657
    37  C    5.999951
    38  C    5.999772
    39  O    8.001259
    40  C    6.000615
    41  C    6.000265
    42  O    7.993535
    43  O    8.001483
    44  C    5.999869
    45  H    1.002934
    46  H    1.002608
    47  H    1.001394
    48  H    0.999042
    49  H    1.004526
    50  H    1.003198
    51  H    0.981509
    52  H    1.004489
    53  H    1.000787
    54  H    1.001536
    55  H    1.000928
    56  H    0.999827
    57  H    1.004477
    58  H    1.001933
    59  H    1.004108
    60  H    1.003250
    61  H    1.001736
    62  H    1.001924
    63  H    1.002586
    64  H    0.999998
    65  H    0.995608
    66  H    1.001844
    67  H    1.003583
    68  H    1.000890
    69  H    1.001327
    70  H    1.001406
    71  H    1.000171
    72  H    1.001660
    73  H    1.000650
    74  H    0.999708
    75  H    1.001331
    76  H    1.002212
    77  H    1.002970
    78  H    1.001377
    79  H    0.997934
    80  Mg  11.999317
    81  C    6.022041
    82  C    5.979251
    83  C    5.973564
    84  C    6.001294
    85  N    7.004295
    86  C    5.971265
    87  C    6.012378
    88  C    5.993841
    89  C    6.028357
    90  C    5.997311
    91  C    6.004782
    92  C    6.001886
    93  H    0.992677
    94  N    6.991049
    95  C    6.049393
    96  C    6.030396
    97  C    6.006602
    98  C    6.042508
    99  C    5.991257
   100  C    6.011983
   101  O    8.023982
   102  C    5.998241
   103  N    6.989596
   104  C    6.043981
   105  C    5.983278
   106  C    6.014486
   107  C    5.966195
   108  C    6.001375
   109  C    6.004628
   110  C    6.001858
   111  N    7.006520
   112  C    5.968901
   113  C    5.970623
   114  C    5.994056
   115  C    5.968033
   116  C    6.003778
   117  C    5.986428
   118  O    7.970038
   119  C    5.994806
   120  C    5.999229
   121  O    7.989851
   122  O    8.001871
   123  C    6.002431
   124  H    1.010457
   125  H    1.007480
   126  H    0.986097
   127  H    0.995080
   128  H    1.001283
   129  H    0.996347
   130  H    0.999658
   131  H    1.012489
   132  H    0.990021
   133  H    0.999621
   134  H    1.005566
   135  H    1.000092
   136  H    1.022238
   137  H    1.021386
   138  H    1.025302
   139  H    0.998651
   140  H    1.012525
   141  H    1.006651
   142  H    1.000391
   143  H    0.999152
   144  H    1.000115
   145  H    0.996898
   146  H    1.010845
   147  H    0.986636
   148  H    1.001391
   149  H    1.001169
   150  H    0.990712
   151  H    1.001638
   152  H    0.979882
   153  H    0.980815
   154  H    0.981750
   155  H    0.991225
   156  H    0.996867
   157  H    0.996953
   158  H    0.993571
 Sum of Mulliken charges = 624.00000

 Dipole moment (field-independent basis, Debye):
    X=            -10.9801    Y=              1.2851    Z=             -0.9000  Tot=             11.0916
 Quadrupole moment (field-independent basis, Debye-Ang):
   XX=            -84.4890   YY=             -1.9556   ZZ=              5.6984
   XY=             15.5472   XZ=              1.7237   YZ=             -2.9886

 Normal termination of Gaussian 16 at Tue Sep 21 21:13:23 2021.
