 Gaussian 16, Revision A.03,
 Gaussian 16:  ES64L-G16RevA.03 25-Dec-2016

 -----------------------------------
 #p cam-b3lyp/Def2SVP td=(nstates=5)
 -----------------------------------

 --------------------------------
 TDDFT excited states in gaussian
 --------------------------------
 Symbolic Z-matrix:
 Charge =  0 Multiplicity = 1

                         Standard orientation:
 ---------------------------------------------------------------------
 Center     Atomic      Atomic             Coordinates (Angstroms)
 Number     Number       Type             X           Y           Z
 ---------------------------------------------------------------------
      1         12           0      -31.393893   -0.003011    0.108612
      2          6           0      -28.147254   -0.955705   -0.828401
      3          6           0      -31.258007   -2.316755    2.592652
      4          6           0      -34.220642    1.285759    1.130841
      5          6           0      -30.858872    2.853314   -2.017786
      6          7           0      -29.907578   -1.480488    0.725302
      7          6           0      -28.652660   -1.687327    0.226070
      8          6           0      -27.888210   -2.588147    1.207643
      9          6           0      -29.022253   -3.365538    1.866658
     10          6           0      -30.103461   -2.269859    1.800215
     11          6           0      -29.432575   -4.624416    1.068223
     12          6           0      -27.062955   -1.738764    2.243682
     13          6           0      -25.458400   -1.810513    2.184958
     14          1           0      -24.662663   -0.524424    1.904161
     15          7           0      -32.550989   -0.411770    1.681138
     16          6           0      -32.343160   -1.424087    2.589617
     17          6           0      -33.492563   -1.505998    3.435548
     18          6           0      -34.470911   -0.554759    2.994230
     19          6           0      -33.783145    0.178109    1.891978
     20          6           0      -33.621030   -2.528493    4.616186
     21          6           0      -35.919856   -0.414086    3.586985
     22          8           0      -36.309282   -1.190566    4.404007
     23          6           0      -36.852263    0.489325    2.923830
     24          7           0      -32.253495    1.982267   -0.146054
     25          6           0      -33.582422    2.018270    0.112099
     26          6           0      -34.338040    2.996532   -0.771628
     27          6           0      -33.225673    3.743537   -1.491519
     28          6           0      -32.002171    2.805485   -1.204215
     29          6           0      -35.321687    2.285582   -1.773054
     30          6           0      -32.925168    5.269856   -1.113100
     31          6           0      -33.278023    6.404808   -2.036653
     32          7           0      -29.965550    0.705853   -1.303216
     33          6           0      -29.875854    1.864971   -2.084664
     34          6           0      -28.626434    1.923251   -2.812107
     35          6           0      -27.940112    0.821119   -2.364843
     36          6           0      -28.749744    0.098037   -1.428120
     37          6           0      -28.221163    2.998666   -3.731971
     38          6           0      -26.684437    0.096810   -2.488755
     39          8           0      -25.728575    0.300302   -3.247475
     40          6           0      -26.808329   -1.121557   -1.598223
     41          6           0      -26.710419   -2.349945   -2.496288
     42          8           0      -27.503279   -2.520876   -3.419509
     43          8           0      -25.571029   -3.115314   -2.203117
     44          6           0      -25.397614   -4.274106   -3.037648
     45          1           0      -31.243896   -3.169410    3.274272
     46          1           0      -35.284615    1.471709    1.285318
     47          1           0      -30.753042    3.663278   -2.742785
     48          1           0      -27.142917   -3.126752    0.621834
     49          1           0      -28.707525   -3.630610    2.875236
     50          1           0      -29.409491   -5.346967    1.883250
     51          1           0      -28.635575   -4.757764    0.336172
     52          1           0      -30.398943   -4.595368    0.564702
     53          1           0      -27.325282   -2.100737    3.237719
     54          1           0      -27.427332   -0.713009    2.193408
     55          1           0      -25.232735   -2.455612    1.335490
     56          1           0      -24.992640   -2.284369    3.048211
     57          1           0      -33.925872   -2.148830    5.590903
     58          1           0      -32.633360   -2.978743    4.720807
     59          1           0      -34.313585   -3.340905    4.395334
     60          1           0      -36.517755    1.525847    2.875866
     61          1           0      -37.803537    0.450055    3.454457
     62          1           0      -37.161380    0.072313    1.966350
     63          1           0      -34.991231    3.658015   -0.201542
     64          1           0      -33.377306    3.698658   -2.570000
     65          1           0      -36.355967    2.277867   -1.429521
     66          1           0      -34.922714    1.307749   -2.042761
     67          1           0      -35.313042    2.869154   -2.694755
     68          1           0      -31.956990    5.507918   -0.673897
     69          1           0      -33.626760    5.305265   -0.279238
     70          1           0      -34.061970    7.053980   -1.647930
     71          1           0      -33.634499    6.004757   -2.986163
     72          1           0      -32.341185    6.945979   -2.167195
     73          1           0      -28.758944    3.902039   -3.442925
     74          1           0      -28.585077    2.693734   -4.713546
     75          1           0      -27.137915    3.104450   -3.769279
     76          1           0      -25.918492   -1.046488   -0.974667
     77          1           0      -26.046541   -5.114187   -2.788708
     78          1           0      -24.375016   -4.648112   -2.996137
     79          1           0      -25.555136   -4.090540   -4.100125
     80         12           0       30.568341    0.844360    0.243217
     81          6           0       30.925600   -2.463883   -0.871664
     82          6           0       29.469207    1.809587   -2.753740
     83          6           0       30.383461    3.849830    1.429214
     84          6           0       32.690244   -0.130180    3.006634
     85          7           0       30.352236   -0.235583   -1.608622
     86          6           0       30.375007   -1.556196   -1.828339
     87          6           0       30.086636   -1.893279   -3.268496
     88          6           0       30.027843   -0.465437   -3.945675
     89          6           0       29.927094    0.425525   -2.722715
     90          6           0       31.187664   -0.048478   -4.907191
     91          6           0       28.653432   -2.622201   -3.402767
     92          6           0       28.691777   -3.911980   -4.286368
     93          1           0       27.324253   -4.775373   -4.142085
     94          7           0       29.791381    2.485454   -0.451284
     95          6           0       29.327213    2.717090   -1.734893
     96          6           0       28.634389    3.976010   -1.748193
     97          6           0       28.835821    4.660941   -0.480550
     98          6           0       29.611239    3.628194    0.307808
     99          6           0       27.981962    4.460836   -3.074700
    100          6           0       28.430756    6.005934    0.111760
    101          8           0       28.627558    6.387929    1.279498
    102          6           0       27.636539    6.831525   -0.837417
    103          7           0       31.570944    1.689427    1.890283
    104          6           0       31.272885    3.010625    2.115758
    105          6           0       32.084469    3.562063    3.288541
    106          6           0       32.558754    2.253010    3.972525
    107          6           0       32.327758    1.199211    2.887696
    108          6           0       33.172044    4.580351    2.761837
    109          6           0       31.837956    1.877442    5.336332
    110          6           0       32.615577    0.970032    6.303035
    111          7           0       31.587606   -0.926819    0.987710
    112          6           0       32.369797   -1.126564    2.084651
    113          6           0       32.714091   -2.522775    2.234171
    114          6           0       32.086249   -3.079443    1.104853
    115          6           0       31.471547   -2.073838    0.345176
    116          6           0       33.535012   -3.279797    3.303374
    117          6           0       31.844291   -4.330204    0.441511
    118          8           0       32.013081   -5.479360    0.755422
    119          6           0       31.204641   -3.928275   -0.987108
    120          6           0       30.130550   -4.919361   -1.092720
    121          8           0       28.976344   -4.892026   -0.595620
    122          8           0       30.645678   -5.909748   -1.841472
    123          6           0       29.815251   -7.086947   -2.099635
    124          1           0       29.023194    2.115065   -3.702689
    125          1           0       30.260006    4.841874    1.869053
    126          1           0       33.247797   -0.386929    3.909777
    127          1           0       30.806593   -2.561188   -3.742238
    128          1           0       29.122324   -0.239607   -4.509142
    129          1           0       31.761518    0.735221   -4.412642
    130          1           0       30.690849    0.353032   -5.790231
    131          1           0       31.915691   -0.801949   -5.205742
    132          1           0       27.829673   -1.993736   -3.743279
    133          1           0       28.318276   -2.817743   -2.384112
    134          1           0       29.528054   -4.548442   -3.997869
    135          1           0       28.746531   -3.737268   -5.360612
    136          1           0       26.956053    4.095744   -3.095293
    137          1           0       28.349423    3.939694   -3.959570
    138          1           0       28.155860    5.497158   -3.363408
    139          1           0       26.695211    6.382590   -1.152393
    140          1           0       28.347313    6.985398   -1.650259
    141          1           0       27.405647    7.829324   -0.463270
    142          1           0       31.367038    4.111668    3.898051
    143          1           0       33.613004    2.346856    4.232844
    144          1           0       34.165165    4.135312    2.821768
    145          1           0       33.280314    5.538986    3.268520
    146          1           0       33.130921    4.837601    1.703221
    147          1           0       31.008012    1.254371    5.001953
    148          1           0       31.455668    2.695275    5.947537
    149          1           0       32.141071   -0.004779    6.422925
    150          1           0       32.803062    1.313873    7.320455
    151          1           0       33.549196    0.740862    5.791205
    152          1           0       34.208891   -2.539821    3.735144
    153          1           0       34.093318   -4.104677    2.858717
    154          1           0       32.820850   -3.613172    4.056252
    155          1           0       31.927027   -4.125992   -1.779244
    156          1           0       29.538585   -7.089092   -3.153792
    157          1           0       28.987717   -7.170734   -1.395977
    158          1           0       30.440111   -7.973142   -1.989386
 ---------------------------------------------------------------------

 SCF Done:  E(RCAM-B3LYP) =  -4069.80781433     A.U. after   17 cycles

 Excitation energies and oscillator strengths:

 Excited State   1:      Singlet-A      1.7237 eV  719.29 nm  f=0.3552  <S**2>=0.000
     309 -> 316        0.19154
     312 -> 314        0.68243
     309 <- 316        0.11106
 This state for optimization and/or second-order correction.
 Total Energy, E(TD-HF/TD-DFT) =  -4069.74446980
 Copying the excited state density for this state as the 1-particle RhoCI density.

 Excited State   2:      Singlet-A      1.7272 eV  717.84 nm  f=0.3875  <S**2>=0.000
     310 -> 315        0.19728
     311 -> 313        0.68036
     310 <- 315        0.11052

 Excited State   3:      Singlet-A      2.2496 eV  551.13 nm  f=0.0627  <S**2>=0.000
     310 -> 313        0.61703
     311 -> 315       -0.33568

 Excited State   4:      Singlet-A      2.2830 eV  543.07 nm  f=0.0523  <S**2>=0.000
     309 -> 314        0.60481
     312 -> 316       -0.35603

 Excited State   5:      Singlet-A      3.2683 eV  379.36 nm  f=0.0000  <S**2>=0.000
     312 -> 313        0.70711

 The electronic state is 1-A.
 Alpha  occ. eigenvalues --  -46.88697 -46.87568 -19.26034 -19.24862 -19.20589
 Alpha  occ. eigenvalues --  -19.19666 -19.19102 -19.19033 -19.18771 -19.18423
 Alpha  occ. eigenvalues --  -14.42593 -14.42147 -14.42088 -14.41725 -14.39453
 Alpha  occ. eigenvalues --  -14.39394 -14.39359 -14.38401 -10.40259 -10.38564
 Alpha  occ. eigenvalues --  -10.35990 -10.35064 -10.34656 -10.34576 -10.31707
 Alpha  occ. eigenvalues --  -10.31516 -10.31187 -10.31145 -10.31138 -10.31000
 Alpha  occ. eigenvalues --  -10.30845 -10.30783 -10.30666 -10.30600 -10.30560
 Alpha  occ. eigenvalues --  -10.30270 -10.30110 -10.30036 -10.29803 -10.29549
 Alpha  occ. eigenvalues --  -10.29462 -10.29302 -10.29225 -10.28717 -10.28624
 Alpha  occ. eigenvalues --  -10.28537 -10.28420 -10.28364 -10.28172 -10.28088
 Alpha  occ. eigenvalues --  -10.27897 -10.27885 -10.27860 -10.27832 -10.27828
 Alpha  occ. eigenvalues --  -10.27826 -10.27738 -10.27731 -10.27709 -10.27674
 Alpha  occ. eigenvalues --  -10.27604 -10.27553 -10.27296 -10.27264 -10.26938
 Alpha  occ. eigenvalues --  -10.26909 -10.26885 -10.26874 -10.26862 -10.26800
 Alpha  occ. eigenvalues --  -10.26645 -10.26498 -10.26445 -10.26428 -10.26254
 Alpha  occ. eigenvalues --  -10.26242 -10.26238 -10.26058 -10.26010 -10.25869
 Alpha  occ. eigenvalues --  -10.25817 -10.25705 -10.25517 -10.25360 -10.25146
 Alpha  occ. eigenvalues --  -10.24435  -3.17306  -3.16411  -1.92181  -1.91777
 Alpha  occ. eigenvalues --   -1.91606  -1.91296  -1.90878  -1.90725  -1.15974
 Alpha  occ. eigenvalues --   -1.15931  -1.11919  -1.10769  -1.09387  -1.09115
 Alpha  occ. eigenvalues --   -1.08232  -1.05544  -1.05187  -1.04793  -1.04299
 Alpha  occ. eigenvalues --   -1.04285  -1.03588  -1.02869  -1.02407  -1.02085
 Alpha  occ. eigenvalues --   -0.93057  -0.92709  -0.89163  -0.89107  -0.88981
 Alpha  occ. eigenvalues --   -0.88518  -0.88257  -0.88043  -0.87624  -0.87444
 Alpha  occ. eigenvalues --   -0.87117  -0.86967  -0.86259  -0.85008  -0.84618
 Alpha  occ. eigenvalues --   -0.84529  -0.84248  -0.83822  -0.82596  -0.82531
 Alpha  occ. eigenvalues --   -0.82475  -0.82266  -0.81263  -0.81047  -0.80866
 Alpha  occ. eigenvalues --   -0.80297  -0.78215  -0.78014  -0.77316  -0.77237
 Alpha  occ. eigenvalues --   -0.76914  -0.76410  -0.76322  -0.75916  -0.75399
 Alpha  occ. eigenvalues --   -0.75117  -0.72898  -0.72783  -0.72133  -0.72128
 Alpha  occ. eigenvalues --   -0.69244  -0.69041  -0.68794  -0.68628  -0.68166
 Alpha  occ. eigenvalues --   -0.67911  -0.67213  -0.66786  -0.66048  -0.65882
 Alpha  occ. eigenvalues --   -0.65609  -0.65542  -0.64876  -0.64858  -0.64467
 Alpha  occ. eigenvalues --   -0.64441  -0.62730  -0.61765  -0.60260  -0.60232
 Alpha  occ. eigenvalues --   -0.60058  -0.59837  -0.59145  -0.59129  -0.58899
 Alpha  occ. eigenvalues --   -0.58635  -0.58509  -0.57972  -0.57690  -0.57151
 Alpha  occ. eigenvalues --   -0.56320  -0.56248  -0.56084  -0.55923  -0.55437
 Alpha  occ. eigenvalues --   -0.55300  -0.54986  -0.54361  -0.53961  -0.53917
 Alpha  occ. eigenvalues --   -0.53551  -0.53430  -0.53211  -0.53207  -0.53007
 Alpha  occ. eigenvalues --   -0.52794  -0.52772  -0.52690  -0.52552  -0.52219
 Alpha  occ. eigenvalues --   -0.52200  -0.51757  -0.51598  -0.51428  -0.51023
 Alpha  occ. eigenvalues --   -0.51022  -0.50902  -0.50726  -0.50469  -0.50385
 Alpha  occ. eigenvalues --   -0.50163  -0.50149  -0.50019  -0.49836  -0.49656
 Alpha  occ. eigenvalues --   -0.49420  -0.49307  -0.49093  -0.49048  -0.48922
 Alpha  occ. eigenvalues --   -0.48691  -0.48481  -0.48346  -0.48110  -0.48099
 Alpha  occ. eigenvalues --   -0.48018  -0.47525  -0.47416  -0.47258  -0.47136
 Alpha  occ. eigenvalues --   -0.46870  -0.46602  -0.46500  -0.46358  -0.46342
 Alpha  occ. eigenvalues --   -0.46301  -0.46146  -0.45977  -0.45905  -0.45712
 Alpha  occ. eigenvalues --   -0.45520  -0.45435  -0.45349  -0.45146  -0.44882
 Alpha  occ. eigenvalues --   -0.44450  -0.44317  -0.44165  -0.44031  -0.43866
 Alpha  occ. eigenvalues --   -0.43729  -0.43570  -0.43557  -0.43474  -0.43304
 Alpha  occ. eigenvalues --   -0.43093  -0.43074  -0.42872  -0.42857  -0.42654
 Alpha  occ. eigenvalues --   -0.42587  -0.42414  -0.42206  -0.42145  -0.42073
 Alpha  occ. eigenvalues --   -0.41977  -0.41905  -0.41738  -0.41603  -0.41341
 Alpha  occ. eigenvalues --   -0.41195  -0.41087  -0.40877  -0.40814  -0.40728
 Alpha  occ. eigenvalues --   -0.40579  -0.40383  -0.40316  -0.40043  -0.39593
 Alpha  occ. eigenvalues --   -0.38976  -0.38777  -0.37999  -0.37840  -0.37473
 Alpha  occ. eigenvalues --   -0.37378  -0.37152  -0.36995  -0.36694  -0.36534
 Alpha  occ. eigenvalues --   -0.35497  -0.35216  -0.34855  -0.34720  -0.33979
 Alpha  occ. eigenvalues --   -0.33931  -0.33491  -0.32968  -0.31723  -0.31414
 Alpha  occ. eigenvalues --   -0.31314  -0.31221  -0.30955  -0.30540  -0.30329
 Alpha  occ. eigenvalues --   -0.30157  -0.29661  -0.29604  -0.24402  -0.24182
 Alpha  occ. eigenvalues --   -0.21113  -0.21003
 Alpha virt. eigenvalues --   -0.08436  -0.08328  -0.02296  -0.02236  -0.00289
 Alpha virt. eigenvalues --    0.00491   0.01819   0.02407   0.02732   0.03152
 Alpha virt. eigenvalues --    0.04193   0.04793   0.05006   0.05143   0.05867

 Mulliken charges:
               1
     1  Mg   0.819058
     2  C   -0.027530
     3  C   -0.090344
     4  C   -0.046295
     5  C   -0.087368
     6  N   -0.261338
     7  C   -0.073441
     8  C   -0.067225
     9  C   -0.064348
    10  C    0.017971
    11  C    0.108036
    12  C    0.065023
    13  C   -0.081527
    14  H    0.029390
    15  N   -0.432475
    16  C    0.196313
    17  C   -0.155239
    18  C   -0.066218
    19  C    0.129244
    20  C    0.128365
    21  C    0.011620
    22  O   -0.165208
    23  C    0.046960
    24  N   -0.260904
    25  C    0.045589
    26  C   -0.043755
    27  C   -0.029956
    28  C    0.049919
    29  C    0.066785
    30  C    0.022706
    31  C    0.021383
    32  N   -0.342404
    33  C    0.111616
    34  C   -0.193846
    35  C    0.033642
    36  C    0.152489
    37  C    0.142367
    38  C    0.016946
    39  O   -0.185162
    40  C    0.043541
    41  C    0.222877
    42  O   -0.216003
    43  O   -0.330696
    44  C    0.180775
    45  H   -0.024254
    46  H   -0.052558
    47  H   -0.027323
    48  H   -0.005477
    49  H   -0.002396
    50  H    0.020565
    51  H    0.016883
    52  H    0.032971
    53  H    0.008338
    54  H    0.031373
    55  H    0.028585
    56  H    0.035484
    57  H    0.032232
    58  H   -0.009166
    59  H    0.027820
    60  H    0.050342
    61  H    0.014682
    62  H    0.046900
    63  H    0.006560
    64  H    0.001275
    65  H    0.023836
    66  H    0.019667
    67  H    0.008309
    68  H    0.019315
    69  H   -0.007796
    70  H    0.021964
    71  H    0.005688
    72  H    0.020186
    73  H    0.016086
    74  H    0.034078
    75  H    0.041575
    76  H    0.030815
    77  H    0.024052
    78  H    0.031508
    79  H    0.036549
    80  Mg   0.852794
    81  C    0.059591
    82  C   -0.070797
    83  C   -0.057478
    84  C   -0.106740
    85  N   -0.271017
    86  C    0.000306
    87  C   -0.067206
    88  C   -0.030282
    89  C    0.007054
    90  C    0.073754
    91  C    0.057200
    92  C   -0.089413
    93  H    0.003791
    94  N   -0.473314
    95  C    0.176000
    96  C   -0.108106
    97  C   -0.095520
    98  C    0.154268
    99  C    0.089097
   100  C    0.047438
   101  O   -0.209007
   102  C    0.040319
   103  N   -0.291854
   104  C    0.056795
   105  C   -0.031493
   106  C   -0.009900
   107  C    0.037025
   108  C    0.062907
   109  C    0.033908
   110  C   -0.009100
   111  N   -0.270811
   112  C    0.124385
   113  C   -0.199727
   114  C    0.032768
   115  C    0.059064
   116  C    0.139562
   117  C    0.025848
   118  O   -0.148468
   119  C   -0.069268
   120  C    0.203350
   121  O   -0.256619
   122  O   -0.319716
   123  C    0.175296
   124  H   -0.039459
   125  H    0.000572
   126  H   -0.042881
   127  H    0.011940
   128  H    0.003441
   129  H    0.020778
   130  H    0.015874
   131  H    0.020557
   132  H    0.007595
   133  H    0.035331
   134  H    0.036295
   135  H    0.033627
   136  H    0.029970
   137  H    0.006227
   138  H    0.032726
   139  H    0.052587
   140  H    0.030737
   141  H    0.020735
   142  H    0.015897
   143  H    0.001403
   144  H   -0.000329
   145  H    0.021553
   146  H    0.019819
   147  H    0.012312
   148  H    0.017927
   149  H    0.013134
   150  H    0.020644
   151  H    0.010253
   152  H    0.013426
   153  H    0.043207
   154  H    0.041346
   155  H    0.043560
   156  H    0.032025
   157  H    0.059365
   158  H    0.031124
 Sum of Mulliken charges =  -0.00000

 Dipole moment (field-independent basis, Debye):
    X=             -1.1241    Y=              3.3569    Z=             -3.9189  Tot=              5.2811
 Quadrupole moment (field-independent basis, Debye-Ang):
   XX=           -324.5399   YY=           -502.5821   ZZ=           -502.0272
   XY=             48.3723   XZ=            -61.3668   YZ=             -7.0002

 Normal termination of Gaussian 16 at Fri Sep  3 01:24:28 2021.
