 Gaussian 16, Revision A.03,
 Gaussian 16:  ES64L-G16RevA.03 25-Dec-2016

 -----------------------------------
 #p cam-b3lyp/Def2SVP td=(nstates=5)
 -----------------------------------

 --------------------------------
 TDDFT excited states in gaussian
 --------------------------------
 Symbolic Z-matrix:
 Charge =  0 Multiplicity = 1

                         Standard orientation:
 ---------------------------------------------------------------------
 Center     Atomic      Atomic             Coordinates (Angstroms)
 Number     Number       Type             X           Y           Z
 ---------------------------------------------------------------------
      1         12           0      -19.045436    0.409823    0.379678
      2          6           0      -16.249377   -1.028318   -0.992761
      3          6           0      -20.747501   -2.513273   -0.182382
      4          6           0      -21.912033    1.883359    1.660093
      5          6           0      -17.411119    3.464439    0.516395
      6          7           0      -18.583554   -1.580161   -0.548544
      7          6           0      -17.322109   -1.920421   -0.946544
      8          6           0      -17.271646   -3.299553   -1.397344
      9          6           0      -18.711268   -3.788231   -1.370846
     10          6           0      -19.448529   -2.555733   -0.685892
     11          6           0      -19.387800   -4.215806   -2.718964
     12          6           0      -16.294886   -4.159287   -0.524803
     13          6           0      -15.529622   -5.321542   -1.246955
     14          1           0      -16.217393   -5.967011   -2.465961
     15          7           0      -21.022934   -0.297803    0.789234
     16          6           0      -21.499239   -1.561237    0.483806
     17          6           0      -22.913392   -1.651703    0.900303
     18          6           0      -23.275672   -0.350446    1.458226
     19          6           0      -22.058561    0.472077    1.345894
     20          6           0      -23.791911   -2.878538    0.717553
     21          6           0      -24.570988    0.033846    2.134455
     22          8           0      -24.680661    1.170365    2.627138
     23          6           0      -25.765054   -0.840004    2.232699
     24          7           0      -19.625720    2.407853    0.932540
     25          6           0      -20.812608    2.710429    1.466298
     26          6           0      -20.831810    4.165333    1.963900
     27          6           0      -19.287636    4.656855    1.842814
     28          6           0      -18.714274    3.389107    1.116975
     29          6           0      -21.857202    5.026308    1.163734
     30          6           0      -18.555031    4.898253    3.191082
     31          6           0      -18.199856    6.359628    3.503525
     32          7           0      -17.219522    1.151172   -0.186638
     33          6           0      -16.677953    2.434837   -0.086956
     34          6           0      -15.294821    2.446475   -0.612837
     35          6           0      -15.133523    1.090889   -0.984579
     36          6           0      -16.320564    0.357875   -0.716874
     37          6           0      -14.355078    3.548476   -0.657367
     38          6           0      -14.135400    0.114566   -1.467995
     39          8           0      -12.969073    0.230496   -1.736294
     40          6           0      -14.846249   -1.284287   -1.527852
     41          6           0      -14.681953   -1.831582   -2.884040
     42          8           0      -15.304548   -1.338441   -3.838355
     43          8           0      -13.930735   -2.964430   -2.958158
     44          6           0      -13.880311   -3.690724   -4.223113
     45          1           0      -21.260237   -3.458196   -0.373931
     46          1           0      -22.834505    2.339366    2.026212
     47          1           0      -16.898164    4.411165    0.697613
     48          1           0      -16.912697   -3.300980   -2.427122
     49          1           0      -18.852718   -4.565479   -0.618958
     50          1           0      -18.846343   -4.199973   -3.665395
     51          1           0      -20.277934   -3.601960   -2.854446
     52          1           0      -19.833078   -5.210432   -2.684938
     53          1           0      -16.817806   -4.520726    0.360726
     54          1           0      -15.609560   -3.490369   -0.004587
     55          1           0      -15.301698   -6.116102   -0.535882
     56          1           0      -14.602033   -4.992572   -1.714485
     57          1           0      -23.245939   -3.751719    0.362050
     58          1           0      -24.564240   -2.700035   -0.031138
     59          1           0      -24.134939   -3.239833    1.686871
     60          1           0      -26.485525   -0.304724    2.850426
     61          1           0      -25.554205   -1.819607    2.663669
     62          1           0      -26.120643   -1.081812    1.230962
     63          1           0      -21.029215    4.128423    3.035318
     64          1           0      -19.173745    5.517242    1.183464
     65          1           0      -22.524676    5.608857    1.798866
     66          1           0      -22.491622    4.394758    0.541239
     67          1           0      -21.233259    5.636181    0.509964
     68          1           0      -17.621248    4.344164    3.279057
     69          1           0      -19.137323    4.538389    4.039619
     70          1           0      -18.915438    7.019410    3.012746
     71          1           0      -17.211342    6.559541    3.091233
     72          1           0      -18.128593    6.436459    4.587694
     73          1           0      -13.322270    3.218695   -0.767652
     74          1           0      -14.406407    4.194635    0.218738
     75          1           0      -14.500077    4.065756   -1.605897
     76          1           0      -14.286681   -1.830417   -0.767668
     77          1           0      -13.386924   -3.150188   -5.031343
     78          1           0      -14.869647   -4.048966   -4.507521
     79          1           0      -13.267651   -4.584139   -4.103472
     80         12           0       19.469593   -0.221849   -0.066944
     81          6           0       15.953056   -0.918237    0.085428
     82          6           0       18.554959    2.488250   -2.206730
     83          6           0       22.448136    1.259068    0.406371
     84          6           0       19.940010   -2.395090    2.531525
     85          7           0       17.489920    0.651779   -0.889225
     86          6           0       16.215028    0.196551   -0.719231
     87          6           0       15.173840    1.067910   -1.504848
     88          6           0       16.137634    1.860585   -2.511606
     89          6           0       17.461959    1.719428   -1.778230
     90          6           0       16.233847    1.263585   -3.896883
     91          6           0       14.249554    1.867131   -0.601205
     92          6           0       12.741081    1.890693   -0.960339
     93          1           0       12.095406    3.144573   -1.714492
     94          7           0       20.460646    1.618498   -0.889675
     95          6           0       19.907371    2.518231   -1.824509
     96          6           0       20.926378    3.513758   -2.178989
     97          6           0       22.106660    3.119388   -1.433898
     98          6           0       21.702171    2.046756   -0.550737
     99          6           0       20.759422    4.687579   -3.068759
    100          6           0       23.474764    3.734609   -1.589679
    101          8           0       23.650810    4.511324   -2.501245
    102          6           0       24.652242    3.437792   -0.689958
    103          7           0       20.852422   -0.478310    1.334594
    104          6           0       22.079976    0.164602    1.202071
    105          6           0       22.988628   -0.351314    2.320318
    106          6           0       22.259793   -1.645345    2.837254
    107          6           0       20.939228   -1.525423    2.154464
    108          6           0       24.519821   -0.533633    2.010476
    109          6           0       22.177580   -1.876695    4.377379
    110          6           0       22.696039   -3.168229    4.920619
    111          7           0       18.291572   -1.504888    1.013205
    112          6           0       18.625602   -2.405752    2.009330
    113          6           0       17.496651   -3.312047    2.295259
    114          6           0       16.407867   -2.681619    1.576751
    115          6           0       16.962119   -1.617562    0.858670
    116          6           0       17.424382   -4.527812    3.181173
    117          6           0       14.948792   -2.809125    1.288907
    118          8           0       14.126586   -3.551915    1.744420
    119          6           0       14.623185   -1.602355    0.414799
    120          6           0       13.961102   -2.106425   -0.832713
    121          8           0       14.605382   -2.785441   -1.603086
    122          8           0       12.627320   -1.652694   -1.061181
    123          6           0       12.031704   -1.976069   -2.393080
    124          1           0       18.324353    3.296064   -2.904607
    125          1           0       23.451501    1.601190    0.665414
    126          1           0       20.181811   -3.205871    3.221472
    127          1           0       14.573401    0.465412   -2.185836
    128          1           0       15.903962    2.924995   -2.531339
    129          1           0       16.935235    0.430221   -3.863242
    130          1           0       16.532951    2.066431   -4.570591
    131          1           0       15.342412    0.820555   -4.342139
    132          1           0       14.585926    2.901247   -0.669073
    133          1           0       14.471130    1.589973    0.429386
    134          1           0       12.258334    1.774787    0.010330
    135          1           0       12.427727    1.040597   -1.566472
    136          1           0       21.156314    4.390818   -4.039117
    137          1           0       21.423399    5.485218   -2.735440
    138          1           0       19.775139    5.135469   -3.210608
    139          1           0       25.538029    4.048313   -0.864204
    140          1           0       24.917556    2.400285   -0.893523
    141          1           0       24.515211    3.450317    0.390688
    142          1           0       22.981069    0.493426    3.009737
    143          1           0       22.688558   -2.502932    2.319649
    144          1           0       24.689000   -0.602220    0.935536
    145          1           0       24.918593   -1.392141    2.550583
    146          1           0       25.085848    0.308781    2.407433
    147          1           0       21.139956   -1.766873    4.692449
    148          1           0       22.660443   -1.023160    4.853032
    149          1           0       21.853933   -3.792883    5.217817
    150          1           0       23.296431   -2.975397    5.809586
    151          1           0       23.307596   -3.783984    4.261471
    152          1           0       16.590127   -5.169359    2.898124
    153          1           0       17.315083   -4.158507    4.201249
    154          1           0       18.399582   -5.014472    3.157103
    155          1           0       14.044411   -0.907043    1.022986
    156          1           0       11.693460   -3.012397   -2.390209
    157          1           0       12.780797   -1.905859   -3.181484
    158          1           0       11.217109   -1.291653   -2.629173
 ---------------------------------------------------------------------

 SCF Done:  E(RCAM-B3LYP) =  -4069.84852073     A.U. after   17 cycles

 Excitation energies and oscillator strengths:

 Excited State   1:      Singlet-A      1.6714 eV  741.78 nm  f=0.4014  <S**2>=0.000
     309 -> 316        0.16933
     311 -> 313        0.68866
     309 <- 316        0.10659
 This state for optimization and/or second-order correction.
 Total Energy, E(TD-HF/TD-DFT) =  -4069.78709658
 Copying the excited state density for this state as the 1-particle RhoCI density.

 Excited State   2:      Singlet-A      1.7299 eV  716.72 nm  f=0.3895  <S**2>=0.000
     310 -> 315       -0.18860
     312 -> 314        0.68240
     310 <- 315       -0.10885

 Excited State   3:      Singlet-A      2.2361 eV  554.46 nm  f=0.1288  <S**2>=0.000
     309 -> 313        0.64115
     311 -> 316       -0.28141

 Excited State   4:      Singlet-A      2.2550 eV  549.82 nm  f=0.0847  <S**2>=0.000
     310 -> 314        0.62547
     312 -> 315        0.31647

 Excited State   5:      Singlet-A      2.9695 eV  417.53 nm  f=0.0000  <S**2>=0.000
     312 -> 313        0.70710

 The electronic state is 1-A.
 Alpha  occ. eigenvalues --  -46.89310 -46.88880 -19.25966 -19.25236 -19.20708
 Alpha  occ. eigenvalues --  -19.19710 -19.19293 -19.19038 -19.18361 -19.17970
 Alpha  occ. eigenvalues --  -14.42744 -14.41824 -14.41716 -14.41701 -14.39485
 Alpha  occ. eigenvalues --  -14.39322 -14.39239 -14.39143 -10.40200 -10.39552
 Alpha  occ. eigenvalues --  -10.35391 -10.34957 -10.34845 -10.34499 -10.32310
 Alpha  occ. eigenvalues --  -10.32243 -10.31372 -10.31279 -10.30909 -10.30680
 Alpha  occ. eigenvalues --  -10.30642 -10.30605 -10.30501 -10.30409 -10.30266
 Alpha  occ. eigenvalues --  -10.30219 -10.30101 -10.30011 -10.29914 -10.29474
 Alpha  occ. eigenvalues --  -10.29296 -10.29198 -10.29148 -10.29088 -10.28817
 Alpha  occ. eigenvalues --  -10.28688 -10.28647 -10.28623 -10.28542 -10.28389
 Alpha  occ. eigenvalues --  -10.28275 -10.28047 -10.27995 -10.27972 -10.27896
 Alpha  occ. eigenvalues --  -10.27774 -10.27761 -10.27589 -10.27521 -10.27450
 Alpha  occ. eigenvalues --  -10.27385 -10.27373 -10.27212 -10.27206 -10.26997
 Alpha  occ. eigenvalues --  -10.26982 -10.26895 -10.26556 -10.26513 -10.26509
 Alpha  occ. eigenvalues --  -10.26479 -10.26479 -10.26299 -10.26099 -10.26063
 Alpha  occ. eigenvalues --  -10.26060 -10.26029 -10.26011 -10.26005 -10.25880
 Alpha  occ. eigenvalues --  -10.25725 -10.25517 -10.25505 -10.25356 -10.25350
 Alpha  occ. eigenvalues --  -10.25246  -3.17879  -3.17303  -1.92728  -1.92340
 Alpha  occ. eigenvalues --   -1.92225  -1.92186  -1.91743  -1.91610  -1.16430
 Alpha  occ. eigenvalues --   -1.15347  -1.11710  -1.10941  -1.10201  -1.08915
 Alpha  occ. eigenvalues --   -1.07846  -1.07118  -1.05114  -1.04581  -1.04045
 Alpha  occ. eigenvalues --   -1.03563  -1.03370  -1.02761  -1.01497  -1.00951
 Alpha  occ. eigenvalues --   -0.92739  -0.92480  -0.89396  -0.89120  -0.88868
 Alpha  occ. eigenvalues --   -0.88443  -0.88274  -0.87702  -0.87599  -0.87188
 Alpha  occ. eigenvalues --   -0.86727  -0.86253  -0.86216  -0.85635  -0.84477
 Alpha  occ. eigenvalues --   -0.83948  -0.83939  -0.83559  -0.82479  -0.82319
 Alpha  occ. eigenvalues --   -0.81867  -0.81830  -0.81208  -0.80544  -0.80540
 Alpha  occ. eigenvalues --   -0.80188  -0.78430  -0.78151  -0.77549  -0.77473
 Alpha  occ. eigenvalues --   -0.77302  -0.76783  -0.76330  -0.76230  -0.75210
 Alpha  occ. eigenvalues --   -0.74885  -0.72632  -0.72590  -0.71766  -0.71501
 Alpha  occ. eigenvalues --   -0.69540  -0.69232  -0.68919  -0.68349  -0.68022
 Alpha  occ. eigenvalues --   -0.67905  -0.66914  -0.66697  -0.65932  -0.65829
 Alpha  occ. eigenvalues --   -0.65439  -0.65079  -0.65021  -0.64526  -0.64321
 Alpha  occ. eigenvalues --   -0.64304  -0.62718  -0.62306  -0.59843  -0.59782
 Alpha  occ. eigenvalues --   -0.59581  -0.59538  -0.59213  -0.59178  -0.59051
 Alpha  occ. eigenvalues --   -0.58743  -0.58313  -0.58216  -0.57635  -0.57282
 Alpha  occ. eigenvalues --   -0.56525  -0.56045  -0.55958  -0.55646  -0.55420
 Alpha  occ. eigenvalues --   -0.55336  -0.54713  -0.54312  -0.53967  -0.53848
 Alpha  occ. eigenvalues --   -0.53440  -0.53348  -0.53065  -0.52947  -0.52916
 Alpha  occ. eigenvalues --   -0.52777  -0.52408  -0.52226  -0.52209  -0.51820
 Alpha  occ. eigenvalues --   -0.51709  -0.51655  -0.51497  -0.51295  -0.51272
 Alpha  occ. eigenvalues --   -0.51159  -0.51088  -0.50910  -0.50424  -0.50200
 Alpha  occ. eigenvalues --   -0.49954  -0.49924  -0.49855  -0.49835  -0.49724
 Alpha  occ. eigenvalues --   -0.49361  -0.49291  -0.49100  -0.48985  -0.48693
 Alpha  occ. eigenvalues --   -0.48581  -0.48531  -0.48466  -0.48170  -0.48104
 Alpha  occ. eigenvalues --   -0.47943  -0.47677  -0.47463  -0.47190  -0.47098
 Alpha  occ. eigenvalues --   -0.47071  -0.46964  -0.46689  -0.46406  -0.46366
 Alpha  occ. eigenvalues --   -0.46280  -0.46169  -0.46041  -0.45957  -0.45861
 Alpha  occ. eigenvalues --   -0.45812  -0.45697  -0.45505  -0.45233  -0.45191
 Alpha  occ. eigenvalues --   -0.44943  -0.44911  -0.44644  -0.44521  -0.44318
 Alpha  occ. eigenvalues --   -0.43796  -0.43759  -0.43600  -0.43592  -0.43482
 Alpha  occ. eigenvalues --   -0.43434  -0.43293  -0.43156  -0.43002  -0.42886
 Alpha  occ. eigenvalues --   -0.42628  -0.42611  -0.42537  -0.42410  -0.42134
 Alpha  occ. eigenvalues --   -0.41906  -0.41833  -0.41539  -0.41479  -0.41145
 Alpha  occ. eigenvalues --   -0.41109  -0.40902  -0.40813  -0.40678  -0.40560
 Alpha  occ. eigenvalues --   -0.40328  -0.40250  -0.39983  -0.39530  -0.39277
 Alpha  occ. eigenvalues --   -0.38449  -0.38179  -0.37685  -0.37467  -0.37326
 Alpha  occ. eigenvalues --   -0.37210  -0.37138  -0.36704  -0.36615  -0.36493
 Alpha  occ. eigenvalues --   -0.36015  -0.35803  -0.35027  -0.34385  -0.34031
 Alpha  occ. eigenvalues --   -0.33962  -0.33170  -0.33106  -0.31588  -0.31126
 Alpha  occ. eigenvalues --   -0.31096  -0.30887  -0.30686  -0.30482  -0.30056
 Alpha  occ. eigenvalues --   -0.29660  -0.29497  -0.28727  -0.24294  -0.23874
 Alpha  occ. eigenvalues --   -0.21112  -0.20795
 Alpha virt. eigenvalues --   -0.08973  -0.08282  -0.01714  -0.01484   0.00481
 Alpha virt. eigenvalues --    0.00553   0.01257   0.02553   0.02649   0.03100
 Alpha virt. eigenvalues --    0.04416   0.04426   0.04475   0.05246   0.05616

 Mulliken charges:
               1
     1  Mg   0.814808
     2  C   -0.017279
     3  C   -0.070466
     4  C   -0.047034
     5  C   -0.073590
     6  N   -0.243884
     7  C   -0.051318
     8  C   -0.008535
     9  C    0.010440
    10  C   -0.041608
    11  C    0.066181
    12  C    0.061584
    13  C   -0.064228
    14  H    0.001593
    15  N   -0.381028
    16  C    0.179999
    17  C   -0.151785
    18  C   -0.018607
    19  C    0.094788
    20  C    0.107323
    21  C   -0.005727
    22  O   -0.232218
    23  C    0.074375
    24  N   -0.261008
    25  C    0.046018
    26  C   -0.044084
    27  C   -0.048498
    28  C    0.017406
    29  C    0.079030
    30  C    0.027458
    31  C    0.003016
    32  N   -0.356643
    33  C    0.120864
    34  C   -0.150015
    35  C   -0.006747
    36  C    0.104770
    37  C    0.121498
    38  C    0.014257
    39  O   -0.146075
    40  C    0.025556
    41  C    0.218350
    42  O   -0.248943
    43  O   -0.321498
    44  C    0.184510
    45  H   -0.049195
    46  H    0.001125
    47  H   -0.028733
    48  H    0.022839
    49  H    0.008042
    50  H    0.027361
    51  H    0.010380
    52  H    0.004943
    53  H   -0.006414
    54  H    0.001683
    55  H    0.031436
    56  H    0.046814
    57  H    0.002028
    58  H    0.041580
    59  H    0.029961
    60  H    0.037757
    61  H    0.020628
    62  H    0.031140
    63  H    0.014349
    64  H    0.014653
    65  H    0.025702
    66  H    0.024977
    67  H    0.008079
    68  H    0.007553
    69  H    0.001706
    70  H    0.019672
    71  H    0.010867
    72  H    0.018632
    73  H    0.025108
    74  H    0.026376
    75  H    0.033597
    76  H    0.036847
    77  H    0.048243
    78  H    0.035140
    79  H    0.032118
    80  Mg   0.850157
    81  C   -0.068689
    82  C   -0.046548
    83  C   -0.070152
    84  C   -0.117777
    85  N   -0.248499
    86  C   -0.056120
    87  C   -0.029235
    88  C   -0.067527
    89  C    0.027854
    90  C    0.088671
    91  C    0.079541
    92  C   -0.054294
    93  H    0.008796
    94  N   -0.346059
    95  C    0.095277
    96  C   -0.125940
    97  C   -0.029150
    98  C    0.139830
    99  C    0.130533
   100  C   -0.009066
   101  O   -0.204457
   102  C    0.048549
   103  N   -0.372417
   104  C    0.069205
   105  C   -0.081019
   106  C    0.022200
   107  C    0.057887
   108  C    0.063540
   109  C    0.049695
   110  C    0.008718
   111  N   -0.354575
   112  C    0.126934
   113  C   -0.181021
   114  C   -0.063981
   115  C    0.147738
   116  C    0.135426
   117  C    0.053067
   118  O   -0.136283
   119  C    0.059765
   120  C    0.212846
   121  O   -0.206853
   122  O   -0.375201
   123  C    0.175397
   124  H   -0.030877
   125  H   -0.056714
   126  H   -0.037351
   127  H    0.003986
   128  H    0.001878
   129  H    0.021966
   130  H    0.020344
   131  H    0.014431
   132  H    0.012525
   133  H    0.016677
   134  H    0.032688
   135  H    0.027205
   136  H    0.030810
   137  H    0.030806
   138  H    0.014468
   139  H    0.024069
   140  H    0.029748
   141  H    0.037071
   142  H    0.024819
   143  H    0.007120
   144  H    0.023787
   145  H    0.015772
   146  H    0.009078
   147  H    0.014441
   148  H   -0.000393
   149  H    0.015705
   150  H    0.013708
   151  H    0.015173
   152  H    0.047881
   153  H    0.030540
   154  H    0.013010
   155  H    0.042087
   156  H    0.044663
   157  H    0.034757
   158  H    0.047360
 Sum of Mulliken charges =  -0.00000

 Dipole moment (field-independent basis, Debye):
    X=              0.0597    Y=             -3.5895    Z=              2.3375  Tot=              4.2840
 Quadrupole moment (field-independent basis, Debye-Ang):
   XX=           -414.9253   YY=           -497.1535   ZZ=           -507.5996
   XY=             30.4445   XZ=             39.4622   YZ=             13.7809

 Normal termination of Gaussian 16 at Thu Sep  2 06:00:48 2021.
