 Gaussian 16, Revision A.03,
 Gaussian 16:  ES64L-G16RevA.03 25-Dec-2016

 ----------------------------------------------------------
 #p cam-b3lyp/Def2SVP td=(nstates=5) density=(transition=1)
 ----------------------------------------------------------

 --------------------------------
 TDDFT excited states in gaussian
 --------------------------------
 Symbolic Z-matrix:
 Charge =  0 Multiplicity = 1

                         Standard orientation:
 ---------------------------------------------------------------------
 Center     Atomic      Atomic             Coordinates (Angstroms)
 Number     Number       Type             X           Y           Z
 ---------------------------------------------------------------------
      1         12           0       16.293461   -0.524505    0.453625
      2          6           0       15.162476    2.287479   -1.361176
      3          6           0       17.640279    1.450440    2.725214
      4          6           0       18.055250   -3.230776    1.569433
      5          6           0       15.677010   -2.460141   -2.636439
      6          7           0       16.414216    1.645252    0.587633
      7          6           0       15.698806    2.558094   -0.100985
      8          6           0       15.748931    3.906020    0.644773
      9          6           0       16.490777    3.638403    1.914965
     10          6           0       16.931228    2.152333    1.749880
     11          6           0       17.597566    4.727578    2.224797
     12          6           0       14.412092    4.692463    0.856268
     13          6           0       14.123293    5.546885    2.164155
     14          1           0       13.510826    6.946062    2.004132
     15          7           0       17.465172   -0.868078    2.099864
     16          6           0       17.917783    0.119756    2.945079
     17          6           0       18.664493   -0.513657    3.994510
     18          6           0       18.860060   -1.916639    3.688115
     19          6           0       18.163110   -2.043844    2.389193
     20          6           0       19.221606    0.338846    5.061567
     21          6           0       19.540281   -3.045228    4.501763
     22          8           0       19.634053   -4.136987    4.045946
     23          6           0       19.857212   -2.847840    5.948396
     24          7           0       16.826516   -2.543038   -0.472700
     25          6           0       17.447803   -3.446695    0.318009
     26          6           0       17.588345   -4.837853   -0.378704
     27          6           0       16.800728   -4.626772   -1.707842
     28          6           0       16.407398   -3.129888   -1.649212
     29          6           0       18.998697   -5.306316   -0.620124
     30          6           0       15.542547   -5.525400   -1.973248
     31          6           0       14.262108   -5.209694   -1.276910
     32          7           0       15.571371   -0.280919   -1.597302
     33          6           0       15.347496   -1.137579   -2.636770
     34          6           0       14.672582   -0.432773   -3.699220
     35          6           0       14.562717    0.919925   -3.282282
     36          6           0       15.170046    0.963996   -2.010893
     37          6           0       14.328915   -0.939877   -5.055285
     38          6           0       14.134432    2.241231   -3.643009
     39          8           0       13.555542    2.701184   -4.620556
     40          6           0       14.457036    3.181699   -2.396491
     41          6           0       15.193206    4.452356   -2.786367
     42          8           0       16.306233    4.469526   -3.245079
     43          8           0       14.400439    5.548675   -2.486248
     44          6           0       15.012463    6.824059   -2.860651
     45          1           0       17.939211    2.002484    3.619147
     46          1           0       18.599372   -4.064045    2.018333
     47          1           0       15.396861   -3.051696   -3.510421
     48          1           0       16.314682    4.470875   -0.096162
     49          1           0       15.783595    3.756072    2.736492
     50          1           0       17.508398    5.546560    1.511249
     51          1           0       18.557301    4.213996    2.281073
     52          1           0       17.397922    5.236846    3.167789
     53          1           0       13.608774    3.957566    0.798740
     54          1           0       14.206074    5.372586    0.029360
     55          1           0       15.093594    5.620108    2.655740
     56          1           0       13.474793    4.972334    2.825657
     57          1           0       20.186861   -0.101035    5.311333
     58          1           0       18.572342    0.227339    5.929162
     59          1           0       19.369204    1.410532    4.927103
     60          1           0       20.881260   -2.478651    5.910711
     61          1           0       19.668132   -3.778669    6.483972
     62          1           0       19.304083   -2.046051    6.438057
     63          1           0       17.022607   -5.611233    0.141227
     64          1           0       17.332712   -4.647515   -2.658464
     65          1           0       19.721708   -4.685036   -0.089979
     66          1           0       19.279876   -5.243982   -1.671720
     67          1           0       19.032150   -6.330939   -0.250646
     68          1           0       15.776849   -6.562635   -1.733534
     69          1           0       15.414252   -5.599786   -3.053350
     70          1           0       14.467137   -4.638827   -0.371069
     71          1           0       13.621119   -6.001758   -0.889139
     72          1           0       13.658371   -4.693310   -2.023876
     73          1           0       15.178524   -1.282623   -5.645165
     74          1           0       14.085158   -0.051989   -5.639206
     75          1           0       13.529892   -1.680978   -5.020678
     76          1           0       13.490464    3.424659   -1.954660
     77          1           0       15.119548    7.085277   -1.808302
     78          1           0       14.202629    7.349857   -3.365871
     79          1           0       15.933703    6.707838   -3.431944
     80         12           0      -15.929249   -0.781709   -0.026847
     81          6           0      -17.963694    2.167557    0.493961
     82          6           0      -13.666413    1.235038   -1.144742
     83          6           0      -14.350202   -3.600000   -0.679835
     84          6           0      -18.851871   -2.880668    0.485302
     85          7           0      -15.814653    1.508300   -0.170065
     86          6           0      -16.714793    2.525341    0.071232
     87          6           0      -16.117696    3.838972   -0.284749
     88          6           0      -14.959784    3.462627   -1.244556
     89          6           0      -14.808464    1.966394   -0.882087
     90          6           0      -15.292152    3.634520   -2.742981
     91          6           0      -15.526615    4.510744    0.992073
     92          6           0      -15.818048    6.050653    1.174707
     93          1           0      -15.690794    6.715540    2.602908
     94          7           0      -14.124026   -1.107254   -0.804782
     95          6           0      -13.269069   -0.168179   -1.111174
     96          6           0      -12.019052   -0.800131   -1.489029
     97          6           0      -12.225783   -2.173561   -1.219513
     98          6           0      -13.620602   -2.332386   -0.908857
     99          6           0      -10.791029    0.043547   -1.876551
    100          6           0      -11.196074   -3.264958   -1.312027
    101          8           0      -11.500131   -4.398589   -1.088883
    102          6           0       -9.772498   -2.903021   -1.584637
    103          7           0      -16.664457   -2.970046   -0.351455
    104          6           0      -15.691860   -3.873140   -0.456859
    105          6           0      -16.178294   -5.249702   -0.198870
    106          6           0      -17.706860   -4.986991   -0.017552
    107          6           0      -17.805365   -3.485668    0.046074
    108          6           0      -15.791595   -6.371901   -1.228132
    109          6           0      -18.265303   -5.731222    1.257657
    110          6           0      -19.143853   -7.001588    1.085151
    111          7           0      -17.908247   -0.526232    0.379961
    112          6           0      -18.973073   -1.416816    0.642746
    113          6           0      -20.181027   -0.645282    1.001403
    114          6           0      -19.803962    0.690522    0.965553
    115          6           0      -18.482608    0.749942    0.556172
    116          6           0      -21.594483   -1.243264    1.203012
    117          6           0      -20.348912    2.068443    1.187661
    118          8           0      -21.415492    2.497659    1.559606
    119          6           0      -19.209675    3.105024    0.718216
    120          6           0      -19.064426    4.177223    1.632931
    121          8           0      -18.245661    4.142608    2.562160
    122          8           0      -19.918389    5.263146    1.467047
    123          6           0      -19.679852    6.501092    2.270823
    124          1           0      -12.805395    1.803017   -1.501472
    125          1           0      -13.809196   -4.535867   -0.833869
    126          1           0      -19.736504   -3.497329    0.651472
    127          1           0      -16.829179    4.424202   -0.867916
    128          1           0      -14.023355    4.004380   -1.112928
    129          1           0      -14.612791    4.351439   -3.205022
    130          1           0      -16.316984    4.000276   -2.799358
    131          1           0      -15.272987    2.710928   -3.322207
    132          1           0      -14.448898    4.373977    0.901204
    133          1           0      -15.883212    3.914674    1.831852
    134          1           0      -16.810102    6.247087    0.768987
    135          1           0      -15.076061    6.501964    0.514942
    136          1           0      -10.019787   -0.104863   -1.119619
    137          1           0      -10.973238    1.105163   -2.039939
    138          1           0      -10.313083   -0.375348   -2.761636
    139          1           0       -9.344290   -2.276999   -0.802238
    140          1           0       -9.583183   -2.274719   -2.454909
    141          1           0       -9.174686   -3.814803   -1.585664
    142          1           0      -15.775018   -5.564629    0.763578
    143          1           0      -18.229083   -5.256918   -0.935698
    144          1           0      -15.097957   -5.912548   -1.931610
    145          1           0      -16.607089   -6.907947   -1.714930
    146          1           0      -15.285856   -7.172022   -0.687374
    147          1           0      -18.894717   -5.041277    1.820382
    148          1           0      -17.411177   -5.795918    1.931726
    149          1           0      -18.809262   -7.778700    1.772159
    150          1           0      -19.090233   -7.342279    0.051011
    151          1           0      -20.183591   -6.786630    1.334708
    152          1           0      -21.474026   -2.241739    1.622356
    153          1           0      -22.058622   -1.396190    0.228420
    154          1           0      -22.213071   -0.624286    1.853284
    155          1           0      -19.500654    3.501519   -0.254080
    156          1           0      -18.714215    6.946724    2.027812
    157          1           0      -19.932366    6.351867    3.319932
    158          1           0      -20.326562    7.270383    1.849043
 ---------------------------------------------------------------------

 SCF Done:  E(RCAM-B3LYP) =  -4069.76645204     A.U. after   19 cycles

 Excitation energies and oscillator strengths:

 Excited State   1:      Singlet-A      1.7017 eV  728.58 nm  f=0.3908  <S**2>=0.000
     309 -> 315        0.18690
     312 -> 314        0.68348
     309 <- 315        0.11020
 This state for optimization and/or second-order correction.
 Total Energy, E(TD-HF/TD-DFT) =  -4069.70391501
 Copying the excited state density for this state as the 1-particle RhoCI density.

 Excited State   2:      Singlet-A      1.7383 eV  713.26 nm  f=0.3765  <S**2>=0.000
     310 -> 316       -0.16378
     311 -> 313        0.68856
     310 <- 316       -0.10272

 Excited State   3:      Singlet-A      2.1721 eV  570.81 nm  f=0.2192  <S**2>=0.000
     310 -> 313        0.67432
     311 -> 316        0.20198

 Excited State   4:      Singlet-A      2.1899 eV  566.17 nm  f=0.1146  <S**2>=0.000
     309 -> 314        0.64216
     312 -> 315       -0.28253

 Excited State   5:      Singlet-A      2.9809 eV  415.92 nm  f=0.0000  <S**2>=0.000
     312 -> 313        0.70709

 The electronic state is 1-A.
 Alpha  occ. eigenvalues --  -46.90040 -46.89448 -19.24787 -19.23979 -19.20076
 Alpha  occ. eigenvalues --  -19.19649 -19.19620 -19.19264 -19.18681 -19.18538
 Alpha  occ. eigenvalues --  -14.42262 -14.41826 -14.41767 -14.40178 -14.39830
 Alpha  occ. eigenvalues --  -14.39779 -14.39541 -14.38855 -10.39168 -10.38526
 Alpha  occ. eigenvalues --  -10.35964 -10.35768 -10.35137 -10.34848 -10.31674
 Alpha  occ. eigenvalues --  -10.31628 -10.31310 -10.31172 -10.31146 -10.31029
 Alpha  occ. eigenvalues --  -10.30932 -10.30757 -10.30603 -10.30408 -10.30045
 Alpha  occ. eigenvalues --  -10.30031 -10.29845 -10.29639 -10.29493 -10.29379
 Alpha  occ. eigenvalues --  -10.29322 -10.29061 -10.28953 -10.28719 -10.28718
 Alpha  occ. eigenvalues --  -10.28635 -10.28253 -10.28229 -10.28192 -10.28110
 Alpha  occ. eigenvalues --  -10.28087 -10.28010 -10.27971 -10.27913 -10.27882
 Alpha  occ. eigenvalues --  -10.27704 -10.27604 -10.27408 -10.27339 -10.27270
 Alpha  occ. eigenvalues --  -10.27169 -10.27146 -10.27067 -10.26831 -10.26812
 Alpha  occ. eigenvalues --  -10.26767 -10.26600 -10.26581 -10.26531 -10.26395
 Alpha  occ. eigenvalues --  -10.26359 -10.26304 -10.26295 -10.26288 -10.26174
 Alpha  occ. eigenvalues --  -10.26056 -10.25930 -10.25736 -10.25716 -10.25542
 Alpha  occ. eigenvalues --  -10.25448 -10.25443 -10.25146 -10.25108 -10.25017
 Alpha  occ. eigenvalues --  -10.24926  -3.18349  -3.17971  -1.93222  -1.92858
 Alpha  occ. eigenvalues --   -1.92813  -1.92640  -1.92434  -1.92270  -1.16341
 Alpha  occ. eigenvalues --   -1.14193  -1.12939  -1.12173  -1.10857  -1.09261
 Alpha  occ. eigenvalues --   -1.08589  -1.06416  -1.05664  -1.04963  -1.04890
 Alpha  occ. eigenvalues --   -1.04267  -1.03186  -1.02528  -1.01881  -1.00992
 Alpha  occ. eigenvalues --   -0.91661  -0.91263  -0.89353  -0.89264  -0.88923
 Alpha  occ. eigenvalues --   -0.88876  -0.88302  -0.87999  -0.87803  -0.87643
 Alpha  occ. eigenvalues --   -0.87416  -0.87218  -0.86141  -0.85200  -0.84350
 Alpha  occ. eigenvalues --   -0.84048  -0.83705  -0.83063  -0.82569  -0.82145
 Alpha  occ. eigenvalues --   -0.82045  -0.82022  -0.80962  -0.80887  -0.80449
 Alpha  occ. eigenvalues --   -0.80410  -0.78773  -0.78330  -0.77205  -0.77145
 Alpha  occ. eigenvalues --   -0.77131  -0.76706  -0.76227  -0.75902  -0.75412
 Alpha  occ. eigenvalues --   -0.74696  -0.72781  -0.72374  -0.71514  -0.71107
 Alpha  occ. eigenvalues --   -0.69861  -0.69321  -0.69222  -0.68790  -0.68250
 Alpha  occ. eigenvalues --   -0.67942  -0.67345  -0.66950  -0.66116  -0.65630
 Alpha  occ. eigenvalues --   -0.64980  -0.64965  -0.64349  -0.64229  -0.64186
 Alpha  occ. eigenvalues --   -0.64058  -0.61755  -0.61443  -0.61050  -0.60110
 Alpha  occ. eigenvalues --   -0.60070  -0.59599  -0.59068  -0.58850  -0.58396
 Alpha  occ. eigenvalues --   -0.58059  -0.58045  -0.57575  -0.57430  -0.57186
 Alpha  occ. eigenvalues --   -0.56555  -0.56196  -0.55925  -0.55751  -0.55512
 Alpha  occ. eigenvalues --   -0.55435  -0.55099  -0.54632  -0.54105  -0.54015
 Alpha  occ. eigenvalues --   -0.53878  -0.53764  -0.53396  -0.53386  -0.53039
 Alpha  occ. eigenvalues --   -0.52814  -0.52644  -0.52437  -0.52422  -0.51989
 Alpha  occ. eigenvalues --   -0.51856  -0.51776  -0.51321  -0.51241  -0.50977
 Alpha  occ. eigenvalues --   -0.50873  -0.50664  -0.50553  -0.50341  -0.50245
 Alpha  occ. eigenvalues --   -0.50091  -0.50079  -0.49861  -0.49708  -0.49568
 Alpha  occ. eigenvalues --   -0.49563  -0.49281  -0.49246  -0.49028  -0.48839
 Alpha  occ. eigenvalues --   -0.48814  -0.48745  -0.48644  -0.48383  -0.48312
 Alpha  occ. eigenvalues --   -0.47944  -0.47782  -0.47739  -0.47561  -0.47447
 Alpha  occ. eigenvalues --   -0.47253  -0.47182  -0.46811  -0.46436  -0.46238
 Alpha  occ. eigenvalues --   -0.46076  -0.45829  -0.45790  -0.45598  -0.45536
 Alpha  occ. eigenvalues --   -0.45473  -0.45408  -0.44925  -0.44786  -0.44676
 Alpha  occ. eigenvalues --   -0.44606  -0.44556  -0.44469  -0.44376  -0.44136
 Alpha  occ. eigenvalues --   -0.44024  -0.43762  -0.43689  -0.43444  -0.43338
 Alpha  occ. eigenvalues --   -0.43294  -0.43044  -0.42996  -0.42974  -0.42754
 Alpha  occ. eigenvalues --   -0.42669  -0.42656  -0.42388  -0.42222  -0.42080
 Alpha  occ. eigenvalues --   -0.41881  -0.41875  -0.41511  -0.41305  -0.41048
 Alpha  occ. eigenvalues --   -0.40921  -0.40642  -0.40639  -0.40372  -0.40201
 Alpha  occ. eigenvalues --   -0.40172  -0.39899  -0.39860  -0.39239  -0.39008
 Alpha  occ. eigenvalues --   -0.38331  -0.38165  -0.37954  -0.37669  -0.37431
 Alpha  occ. eigenvalues --   -0.37044  -0.36948  -0.36526  -0.36066  -0.35960
 Alpha  occ. eigenvalues --   -0.35764  -0.35735  -0.34673  -0.33602  -0.33599
 Alpha  occ. eigenvalues --   -0.33198  -0.33060  -0.32612  -0.31849  -0.31833
 Alpha  occ. eigenvalues --   -0.31531  -0.31103  -0.30885  -0.30748  -0.30658
 Alpha  occ. eigenvalues --   -0.29875  -0.29685  -0.29390  -0.23870  -0.23539
 Alpha  occ. eigenvalues --   -0.21627  -0.21100
 Alpha virt. eigenvalues --   -0.09075  -0.08688  -0.01670  -0.00357   0.00268
 Alpha virt. eigenvalues --    0.00933   0.01108   0.02312   0.02468   0.02656
 Alpha virt. eigenvalues --    0.04459   0.04527   0.05149   0.05639   0.05904

 Mulliken charges:
               1
     1  Mg  11.998746
     2  C    5.968425
     3  C    6.014546
     4  C    6.022690
     5  C    5.993309
     6  N    6.984892
     7  C    6.039687
     8  C    5.992623
     9  C    6.013224
    10  C    5.965646
    11  C    5.999870
    12  C    5.998865
    13  C    6.002232
    14  H    0.997739
    15  N    7.011102
    16  C    5.956126
    17  C    5.981272
    18  C    5.980836
    19  C    5.965519
    20  C    6.007839
    21  C    5.986409
    22  O    7.974609
    23  C    6.004995
    24  N    7.001547
    25  C    5.968808
    26  C    6.013060
    27  C    5.996122
    28  C    6.027076
    29  C    6.000620
    30  C    5.994533
    31  C    5.991613
    32  N    6.995461
    33  C    6.036735
    34  C    6.037613
    35  C    5.999801
    36  C    6.039037
    37  C    5.996041
    38  C    6.013361
    39  O    8.029494
    40  C    6.004059
    41  C    6.003768
    42  O    8.003579
    43  O    8.001420
    44  C    5.998437
    45  H    0.991059
    46  H    0.995175
    47  H    1.012030
    48  H    0.997701
    49  H    0.994630
    50  H    0.987735
    51  H    1.003644
    52  H    0.997125
    53  H    0.997502
    54  H    0.995915
    55  H    1.007417
    56  H    1.002196
    57  H    0.981392
    58  H    0.978294
    59  H    0.979192
    60  H    0.990989
    61  H    0.985816
    62  H    0.996255
    63  H    0.997936
    64  H    0.998633
    65  H    1.007433
    66  H    0.990466
    67  H    0.998477
    68  H    1.012005
    69  H    0.998587
    70  H    1.010563
    71  H    1.008208
    72  H    0.993219
    73  H    1.024104
    74  H    1.014609
    75  H    1.021830
    76  H    1.006123
    77  H    1.006208
    78  H    1.001987
    79  H    1.002154
    80  Mg  12.000162
    81  C    5.999149
    82  C    6.000140
    83  C    6.000804
    84  C    5.999728
    85  N    6.999432
    86  C    6.001084
    87  C    5.999785
    88  C    6.000231
    89  C    5.999197
    90  C    6.000196
    91  C    5.999894
    92  C    5.999906
    93  H    1.000168
    94  N    7.000513
    95  C    5.998761
    96  C    5.999188
    97  C    5.999693
    98  C    5.998591
    99  C    6.000204
   100  C    5.999572
   101  O    7.999227
   102  C    6.000250
   103  N    7.000041
   104  C    5.998769
   105  C    6.000488
   106  C    5.999634
   107  C    6.000659
   108  C    5.999989
   109  C    5.999923
   110  C    5.999991
   111  N    6.999994
   112  C    6.001391
   113  C    6.001144
   114  C    5.999993
   115  C    6.001333
   116  C    5.999975
   117  C    6.000529
   118  O    8.000898
   119  C    6.000197
   120  C    6.000115
   121  O    8.000293
   122  O    8.000001
   123  C    5.999882
   124  H    0.999493
   125  H    0.999771
   126  H    1.000440
   127  H    0.999971
   128  H    0.999883
   129  H    0.999806
   130  H    0.999533
   131  H    1.000018
   132  H    1.000444
   133  H    0.999904
   134  H    0.999901
   135  H    1.000134
   136  H    0.999248
   137  H    0.999316
   138  H    0.999156
   139  H    0.999732
   140  H    0.999637
   141  H    0.999377
   142  H    0.999967
   143  H    1.000086
   144  H    1.000125
   145  H    0.999727
   146  H    0.999956
   147  H    0.999774
   148  H    1.000304
   149  H    1.000219
   150  H    1.000122
   151  H    0.999944
   152  H    1.000679
   153  H    1.000798
   154  H    1.000667
   155  H    1.000269
   156  H    1.000176
   157  H    1.000139
   158  H    1.000170
 Sum of Mulliken charges = 624.00000

 Dipole moment (field-independent basis, Debye):
    X=             -5.6085    Y=              0.9571    Z=             -9.4209  Tot=             11.0057
 Quadrupole moment (field-independent basis, Debye-Ang):
   XX=           -163.3785   YY=              1.1304   ZZ=             -2.7706
   XY=             17.4212   XZ=           -162.2844   YZ=              4.9712

 Normal termination of Gaussian 16 at Wed Sep 22 04:55:24 2021.
