 Gaussian 16, Revision A.03,
 Gaussian 16:  ES64L-G16RevA.03 25-Dec-2016

 ----------------------------------------------------------
 #p cam-b3lyp/Def2SVP td=(nstates=5) density=(transition=1)
 ----------------------------------------------------------

 --------------------------------
 TDDFT excited states in gaussian
 --------------------------------
 Symbolic Z-matrix:
 Charge =  0 Multiplicity = 1

                         Standard orientation:
 ---------------------------------------------------------------------
 Center     Atomic      Atomic             Coordinates (Angstroms)
 Number     Number       Type             X           Y           Z
 ---------------------------------------------------------------------
      1         12           0      -30.246372   -0.394681    0.009498
      2          6           0      -27.276345    1.519365   -0.277027
      3          6           0      -28.671809   -2.261761    2.367968
      4          6           0      -33.294719   -1.647140    0.845149
      5          6           0      -31.820721    1.936090   -2.015762
      6          7           0      -28.219088   -0.174332    0.983217
      7          6           0      -27.120939    0.583301    0.673145
      8          6           0      -25.930095    0.188262    1.464842
      9          6           0      -26.341596   -1.244155    2.049248
     10          6           0      -27.813156   -1.237215    1.812030
     11          6           0      -25.604053   -2.374829    1.350254
     12          6           0      -25.660661    1.313442    2.476275
     13          6           0      -24.208442    1.952701    2.494245
     14          1           0      -23.366173    2.013327    3.804059
     15          7           0      -30.947513   -1.786716    1.359014
     16          6           0      -30.091513   -2.517719    2.194427
     17          6           0      -30.866551   -3.550514    2.813780
     18          6           0      -32.240858   -3.397930    2.426972
     19          6           0      -32.192137   -2.282945    1.443622
     20          6           0      -30.206085   -4.591911    3.708025
     21          6           0      -33.446869   -4.197910    2.866092
     22          8           0      -33.154322   -5.193821    3.589317
     23          6           0      -34.953896   -3.892342    2.635201
     24          7           0      -32.314400    0.061586   -0.513101
     25          6           0      -33.385341   -0.624646   -0.056941
     26          6           0      -34.735524   -0.072978   -0.586455
     27          6           0      -34.240346    1.015661   -1.600032
     28          6           0      -32.665274    1.040151   -1.314653
     29          6           0      -35.533777   -1.198330   -1.219951
     30          6           0      -34.834325    2.379260   -1.419597
     31          6           0      -35.744321    2.800002   -2.541563
     32          7           0      -29.722045    1.228354   -1.087192
     33          6           0      -30.424286    2.095644   -1.933615
     34          6           0      -29.583330    2.922702   -2.637064
     35          6           0      -28.320503    2.709275   -2.047711
     36          6           0      -28.476686    1.733689   -1.065741
     37          6           0      -30.012387    3.723852   -3.848023
     38          6           0      -26.882703    3.074795   -2.150985
     39          8           0      -26.346225    3.820852   -2.909979
     40          6           0      -26.240233    2.336189   -0.916494
     41          6           0      -24.905574    1.790322   -1.375139
     42          8           0      -23.813383    2.282179   -1.091164
     43          8           0      -25.091284    0.607172   -2.130730
     44          6           0      -23.824506   -0.028842   -2.491274
     45          1           0      -28.123516   -3.001261    2.955739
     46          1           0      -34.282473   -2.084749    1.007900
     47          1           0      -32.274767    2.817174   -2.472608
     48          1           0      -25.068382    0.099107    0.803205
     49          1           0      -26.073866   -1.268541    3.105239
     50          1           0      -25.465306   -2.203042    0.283738
     51          1           0      -26.223643   -3.270651    1.403403
     52          1           0      -24.656124   -2.637979    1.819541
     53          1           0      -25.873559    0.909482    3.465912
     54          1           0      -26.381425    2.129798    2.429718
     55          1           0      -24.451629    2.972813    2.195908
     56          1           0      -23.623773    1.604729    1.643485
     57          1           0      -29.582616   -4.118713    4.466639
     58          1           0      -29.557087   -5.178602    3.057986
     59          1           0      -30.857843   -5.217847    4.319092
     60          1           0      -35.077699   -4.055991    1.565166
     61          1           0      -35.140471   -2.851020    2.898016
     62          1           0      -35.606490   -4.519143    3.243520
     63          1           0      -35.372343    0.359629    0.184761
     64          1           0      -34.317168    0.636155   -2.618616
     65          1           0      -35.573098   -2.018956   -0.503423
     66          1           0      -35.010961   -1.518219   -2.121874
     67          1           0      -36.525720   -0.991579   -1.619920
     68          1           0      -34.092673    3.176687   -1.373006
     69          1           0      -35.403181    2.549643   -0.505766
     70          1           0      -36.701772    3.083524   -2.106266
     71          1           0      -35.983272    1.982046   -3.221234
     72          1           0      -35.337474    3.588048   -3.176147
     73          1           0      -29.093398    3.993730   -4.369332
     74          1           0      -30.555078    4.628489   -3.574800
     75          1           0      -30.650825    3.046230   -4.414441
     76          1           0      -25.959868    3.174448   -0.277623
     77          1           0      -23.960996   -1.101741   -2.627437
     78          1           0      -23.114399    0.003648   -1.666178
     79          1           0      -23.351136    0.424350   -3.362707
     80         12           0       29.330159    0.446958    0.570681
     81          6           0       29.919638   -2.522394   -1.250127
     82          6           0       27.719733    1.735964   -2.002145
     83          6           0       29.631814    3.497169    2.080001
     84          6           0       31.992958   -0.717054    2.857551
     85          7           0       28.941449   -0.333789   -1.424244
     86          6           0       29.050484   -1.609102   -1.849654
     87          6           0       28.225677   -1.783220   -3.139983
     88          6           0       27.529325   -0.477671   -3.354406
     89          6           0       28.111310    0.413995   -2.216038
     90          6           0       27.630046    0.037794   -4.848204
     91          6           0       27.277831   -3.023331   -3.258610
     92          6           0       25.880053   -2.959231   -4.011017
     93          1           0       25.508661   -4.104430   -4.964434
     94          7           0       28.528637    2.295701    0.195495
     95          6           0       27.867363    2.629436   -0.964849
     96          6           0       27.419607    3.986978   -0.835671
     97          6           0       27.992544    4.588260    0.352052
     98          6           0       28.795655    3.472903    0.899874
     99          6           0       26.638148    4.568191   -1.943488
    100          6           0       27.791659    5.992611    0.973245
    101          8           0       28.396770    6.308425    1.944122
    102          6           0       26.667004    6.865348    0.519776
    103          7           0       30.694634    1.259751    2.212107
    104          6           0       30.450722    2.511109    2.662023
    105          6           0       31.331879    2.871700    3.900578
    106          6           0       32.065604    1.526850    4.191321
    107          6           0       31.596516    0.612978    3.032184
    108          6           0       32.292445    4.014705    3.706444
    109          6           0       31.824384    0.837252    5.579579
    110          6           0       30.557569    0.084337    5.808440
    111          7           0       30.712982   -1.221794    0.870878
    112          6           0       31.632149   -1.536895    1.830212
    113          6           0       32.114883   -2.877798    1.606585
    114          6           0       31.495673   -3.337890    0.414699
    115          6           0       30.685741   -2.267677   -0.016433
    116          6           0       33.195843   -3.591653    2.338780
    117          6           0       31.398162   -4.410776   -0.533357
    118          8           0       31.891436   -5.531350   -0.590472
    119          6           0       30.335303   -3.954655   -1.630921
    120          6           0       30.832782   -4.144498   -3.053943
    121          8           0       31.763018   -3.543182   -3.525769
    122          8           0       30.023816   -5.065380   -3.700486
    123          6           0       30.447301   -5.342924   -5.073434
    124          1           0       27.008831    2.166815   -2.710816
    125          1           0       29.634657    4.489999    2.534091
    126          1           0       32.701758   -1.106769    3.591028
    127          1           0       29.051440   -1.970686   -3.826346
    128          1           0       26.461534   -0.651590   -3.218641
    129          1           0       28.077223   -0.738418   -5.468980
    130          1           0       28.123262    1.009571   -4.827911
    131          1           0       26.642695    0.136633   -5.299662
    132          1           0       27.051915   -3.338253   -2.239547
    133          1           0       27.787567   -3.883768   -3.692896
    134          1           0       25.913346   -2.016664   -4.557789
    135          1           0       25.084326   -2.869319   -3.271437
    136          1           0       26.955915    5.608520   -2.009329
    137          1           0       25.593596    4.559844   -1.634391
    138          1           0       26.661646    4.148871   -2.949467
    139          1           0       27.137444    7.457017   -0.264449
    140          1           0       26.256067    7.392138    1.381552
    141          1           0       25.855258    6.346333    0.009601
    142          1           0       30.728559    3.039384    4.792985
    143          1           0       33.145340    1.462884    4.060186
    144          1           0       32.089392    4.553515    2.780031
    145          1           0       33.325495    3.675975    3.623545
    146          1           0       32.146493    4.666750    4.567268
    147          1           0       31.889215    1.581223    6.373633
    148          1           0       32.705235    0.235545    5.804659
    149          1           0       29.788193    0.442360    5.124077
    150          1           0       30.034745    0.137757    6.763635
    151          1           0       30.831389   -0.964599    5.690687
    152          1           0       34.167011   -3.098050    2.317350
    153          1           0       33.446086   -4.449412    1.713998
    154          1           0       32.893495   -3.854821    3.352779
    155          1           0       29.450586   -4.566723   -1.454416
    156          1           0       29.551604   -4.851761   -5.452416
    157          1           0       30.411725   -6.430632   -5.129730
    158          1           0       31.402415   -4.884161   -5.330063
 ---------------------------------------------------------------------

 SCF Done:  E(RCAM-B3LYP) =  -4069.79378572     A.U. after   17 cycles

 Excitation energies and oscillator strengths:

 Excited State   1:      Singlet-A      1.6837 eV  736.38 nm  f=0.3567  <S**2>=0.000
     309 -> 315        0.17392
     311 -> 313        0.68683
     309 <- 315        0.10795
 This state for optimization and/or second-order correction.
 Total Energy, E(TD-HF/TD-DFT) =  -4069.73191104
 Copying the excited state density for this state as the 1-particle RhoCI density.

 Excited State   2:      Singlet-A      1.7017 eV  728.58 nm  f=0.3902  <S**2>=0.000
     310 -> 316        0.18701
     312 -> 314        0.68382
     310 <- 316        0.11026

 Excited State   3:      Singlet-A      2.1898 eV  566.19 nm  f=0.1095  <S**2>=0.000
     310 -> 314        0.64227
     312 -> 316       -0.28262

 Excited State   4:      Singlet-A      2.2196 eV  558.59 nm  f=0.1596  <S**2>=0.000
     309 -> 313        0.64873
     311 -> 315       -0.26684

 Excited State   5:      Singlet-A      3.0233 eV  410.10 nm  f=0.0000  <S**2>=0.000
     312 -> 313        0.70711

 The electronic state is 1-A.
 Alpha  occ. eigenvalues --  -46.89987 -46.89045 -19.25668 -19.24730 -19.21048
 Alpha  occ. eigenvalues --  -19.20020 -19.19892 -19.19572 -19.18625 -19.18339
 Alpha  occ. eigenvalues --  -14.42407 -14.42266 -14.42209 -14.41775 -14.40125
 Alpha  occ. eigenvalues --  -14.39489 -14.39035 -14.38802 -10.40393 -10.39112
 Alpha  occ. eigenvalues --  -10.35721 -10.35698 -10.35517 -10.34792 -10.32023
 Alpha  occ. eigenvalues --  -10.31703 -10.31620 -10.31252 -10.31159 -10.31119
 Alpha  occ. eigenvalues --  -10.30892 -10.30879 -10.30705 -10.30703 -10.30672
 Alpha  occ. eigenvalues --  -10.30588 -10.30357 -10.29581 -10.29440 -10.29097
 Alpha  occ. eigenvalues --  -10.29008 -10.28899 -10.28667 -10.28608 -10.28583
 Alpha  occ. eigenvalues --  -10.28579 -10.28574 -10.28440 -10.28366 -10.28357
 Alpha  occ. eigenvalues --  -10.28242 -10.28176 -10.28034 -10.28022 -10.27920
 Alpha  occ. eigenvalues --  -10.27825 -10.27763 -10.27649 -10.27551 -10.27516
 Alpha  occ. eigenvalues --  -10.27407 -10.27359 -10.27337 -10.27290 -10.27070
 Alpha  occ. eigenvalues --  -10.27019 -10.27009 -10.26795 -10.26774 -10.26715
 Alpha  occ. eigenvalues --  -10.26624 -10.26555 -10.26530 -10.26526 -10.26343
 Alpha  occ. eigenvalues --  -10.26330 -10.26252 -10.26123 -10.25988 -10.25404
 Alpha  occ. eigenvalues --  -10.25387 -10.25237 -10.25121 -10.25099 -10.24964
 Alpha  occ. eigenvalues --  -10.24873  -3.18296  -3.17608  -1.93170  -1.92760
 Alpha  occ. eigenvalues --   -1.92587  -1.92489  -1.92069  -1.91913  -1.16284
 Alpha  occ. eigenvalues --   -1.15629  -1.12891  -1.12080  -1.09204  -1.08532
 Alpha  occ. eigenvalues --   -1.07992  -1.07665  -1.05291  -1.04311  -1.04214
 Alpha  occ. eigenvalues --   -1.03395  -1.03134  -1.02790  -1.02476  -1.01829
 Alpha  occ. eigenvalues --   -0.93357  -0.91607  -0.89971  -0.89360  -0.89298
 Alpha  occ. eigenvalues --   -0.89101  -0.88873  -0.88251  -0.87903  -0.87364
 Alpha  occ. eigenvalues --   -0.87167  -0.87051  -0.86087  -0.85992  -0.84877
 Alpha  occ. eigenvalues --   -0.84318  -0.83997  -0.83652  -0.82673  -0.82521
 Alpha  occ. eigenvalues --   -0.81991  -0.81989  -0.80832  -0.80743  -0.80536
 Alpha  occ. eigenvalues --   -0.80395  -0.78279  -0.77853  -0.77501  -0.77151
 Alpha  occ. eigenvalues --   -0.77093  -0.76939  -0.76539  -0.75847  -0.75549
 Alpha  occ. eigenvalues --   -0.74644  -0.73567  -0.72321  -0.72267  -0.71461
 Alpha  occ. eigenvalues --   -0.69808  -0.69453  -0.69268  -0.69029  -0.68196
 Alpha  occ. eigenvalues --   -0.67756  -0.67278  -0.66899  -0.66392  -0.65738
 Alpha  occ. eigenvalues --   -0.65394  -0.64975  -0.64912  -0.64298  -0.64132
 Alpha  occ. eigenvalues --   -0.64005  -0.63165  -0.61699  -0.60573  -0.60137
 Alpha  occ. eigenvalues --   -0.60020  -0.59638  -0.59545  -0.59003  -0.58797
 Alpha  occ. eigenvalues --   -0.58342  -0.58100  -0.57991  -0.57379  -0.56932
 Alpha  occ. eigenvalues --   -0.56271  -0.56141  -0.55873  -0.55872  -0.55672
 Alpha  occ. eigenvalues --   -0.55382  -0.55046  -0.54992  -0.54578  -0.54393
 Alpha  occ. eigenvalues --   -0.54053  -0.53943  -0.53715  -0.53632  -0.53338
 Alpha  occ. eigenvalues --   -0.53250  -0.52761  -0.52742  -0.52369  -0.52328
 Alpha  occ. eigenvalues --   -0.52087  -0.51756  -0.51722  -0.51188  -0.51164
 Alpha  occ. eigenvalues --   -0.50924  -0.50920  -0.50821  -0.50610  -0.50586
 Alpha  occ. eigenvalues --   -0.50333  -0.50290  -0.50085  -0.50026  -0.49910
 Alpha  occ. eigenvalues --   -0.49700  -0.49514  -0.49195  -0.48975  -0.48953
 Alpha  occ. eigenvalues --   -0.48762  -0.48692  -0.48589  -0.48384  -0.48332
 Alpha  occ. eigenvalues --   -0.48039  -0.47771  -0.47688  -0.47255  -0.47200
 Alpha  occ. eigenvalues --   -0.47130  -0.46929  -0.46758  -0.46647  -0.46503
 Alpha  occ. eigenvalues --   -0.46062  -0.46022  -0.45951  -0.45789  -0.45774
 Alpha  occ. eigenvalues --   -0.45547  -0.45537  -0.45421  -0.45350  -0.45193
 Alpha  occ. eigenvalues --   -0.44928  -0.44623  -0.44555  -0.44324  -0.44095
 Alpha  occ. eigenvalues --   -0.44081  -0.44010  -0.43709  -0.43708  -0.43636
 Alpha  occ. eigenvalues --   -0.43309  -0.43241  -0.42993  -0.42923  -0.42694
 Alpha  occ. eigenvalues --   -0.42603  -0.42543  -0.42478  -0.42452  -0.42335
 Alpha  occ. eigenvalues --   -0.42114  -0.42028  -0.41821  -0.41776  -0.41621
 Alpha  occ. eigenvalues --   -0.41455  -0.41434  -0.41153  -0.40868  -0.40588
 Alpha  occ. eigenvalues --   -0.40171  -0.40121  -0.39185  -0.39078  -0.38957
 Alpha  occ. eigenvalues --   -0.38816  -0.38263  -0.38111  -0.37900  -0.37851
 Alpha  occ. eigenvalues --   -0.37379  -0.37371  -0.37295  -0.36895  -0.36464
 Alpha  occ. eigenvalues --   -0.35903  -0.35710  -0.35455  -0.34738  -0.34618
 Alpha  occ. eigenvalues --   -0.33550  -0.33228  -0.33146  -0.31787  -0.31785
 Alpha  occ. eigenvalues --   -0.31164  -0.30832  -0.30620  -0.30603  -0.30056
 Alpha  occ. eigenvalues --   -0.29827  -0.29823  -0.29337  -0.24450  -0.23817
 Alpha  occ. eigenvalues --   -0.21682  -0.21047
 Alpha virt. eigenvalues --   -0.09365  -0.08636  -0.01871  -0.01618   0.00191
 Alpha virt. eigenvalues --    0.00321   0.01162   0.01763   0.02367   0.02521
 Alpha virt. eigenvalues --    0.04107   0.04516   0.04981   0.05670   0.05695

 Mulliken charges:
               1
     1  Mg  12.001560
     2  C    5.973208
     3  C    6.001533
     4  C    6.039200
     5  C    6.013002
     6  N    6.972346
     7  C    6.030071
     8  C    5.989849
     9  C    6.016801
    10  C    5.973959
    11  C    6.005135
    12  C    5.994534
    13  C    6.000572
    14  H    1.005602
    15  N    7.010230
    16  C    5.956882
    17  C    5.980319
    18  C    5.991081
    19  C    5.951234
    20  C    6.003926
    21  C    5.989095
    22  O    7.980342
    23  C    5.998139
    24  N    7.018480
    25  C    5.958338
    26  C    6.011799
    27  C    5.993249
    28  C    6.018941
    29  C    6.003928
    30  C    5.994612
    31  C    5.997804
    32  N    6.998816
    33  C    6.029290
    34  C    6.028733
    35  C    6.005012
    36  C    6.038276
    37  C    5.999411
    38  C    6.018088
    39  O    8.026507
    40  C    6.003480
    41  C    6.003425
    42  O    8.006331
    43  O    7.997966
    44  C    5.996644
    45  H    0.984592
    46  H    0.999183
    47  H    1.015803
    48  H    0.998393
    49  H    0.994432
    50  H    0.984490
    51  H    1.004905
    52  H    0.989081
    53  H    1.011196
    54  H    0.996258
    55  H    0.995219
    56  H    0.998420
    57  H    0.981981
    58  H    0.981394
    59  H    0.984350
    60  H    0.990032
    61  H    0.989922
    62  H    0.989229
    63  H    0.998959
    64  H    1.002006
    65  H    1.008122
    66  H    0.994765
    67  H    0.993150
    68  H    0.994583
    69  H    1.011109
    70  H    1.007262
    71  H    1.005407
    72  H    0.997750
    73  H    1.015308
    74  H    1.021002
    75  H    1.016520
    76  H    1.004617
    77  H    1.007021
    78  H    1.005627
    79  H    1.000163
    80  Mg  11.999997
    81  C    5.999719
    82  C    6.000082
    83  C    6.000207
    84  C    5.999999
    85  N    6.999881
    86  C    6.000326
    87  C    5.999959
    88  C    6.000076
    89  C    5.999767
    90  C    6.000010
    91  C    5.999989
    92  C    6.000023
    93  H    0.999979
    94  N    7.000048
    95  C    5.999639
    96  C    5.999829
    97  C    5.999859
    98  C    5.999708
    99  C    6.000098
   100  C    5.999845
   101  O    7.999788
   102  C    6.000061
   103  N    7.000009
   104  C    5.999765
   105  C    6.000114
   106  C    5.999967
   107  C    6.000194
   108  C    5.999998
   109  C    5.999947
   110  C    5.999923
   111  N    7.000013
   112  C    6.000249
   113  C    6.000362
   114  C    5.999964
   115  C    6.000333
   116  C    5.999928
   117  C    6.000157
   118  O    8.000256
   119  C    6.000014
   120  C    6.000032
   121  O    8.000032
   122  O    8.000014
   123  C    5.999989
   124  H    0.999909
   125  H    0.999949
   126  H    1.000116
   127  H    0.999978
   128  H    0.999949
   129  H    0.999896
   130  H    1.000022
   131  H    0.999958
   132  H    0.999985
   133  H    0.999973
   134  H    1.000052
   135  H    1.000019
   136  H    0.999818
   137  H    0.999795
   138  H    0.999803
   139  H    0.999908
   140  H    0.999868
   141  H    0.999959
   142  H    0.999982
   143  H    0.999988
   144  H    1.000056
   145  H    0.999926
   146  H    0.999989
   147  H    1.000108
   148  H    1.000001
   149  H    1.000084
   150  H    1.000083
   151  H    0.999952
   152  H    1.000219
   153  H    1.000141
   154  H    1.000210
   155  H    1.000063
   156  H    1.000045
   157  H    1.000028
   158  H    1.000017
 Sum of Mulliken charges = 624.00000

 Dipole moment (field-independent basis, Debye):
    X=              1.6309    Y=              8.0468    Z=             -6.6569  Tot=             10.5700
 Quadrupole moment (field-independent basis, Debye-Ang):
   XX=            -91.1019   YY=             -5.6462   ZZ=             -0.7094
   XY=           -249.3572   XZ=            203.1284   YZ=              3.1466

 Normal termination of Gaussian 16 at Wed Sep 22 17:44:54 2021.
