 Gaussian 16, Revision A.03,
 Gaussian 16:  ES64L-G16RevA.03 25-Dec-2016

 ----------------------------------------------------------
 #p cam-b3lyp/Def2SVP td=(nstates=5) density=(transition=1)
 ----------------------------------------------------------

 --------------------------------
 TDDFT excited states in gaussian
 --------------------------------
 Symbolic Z-matrix:
 Charge =  0 Multiplicity = 1

                         Standard orientation:
 ---------------------------------------------------------------------
 Center     Atomic      Atomic             Coordinates (Angstroms)
 Number     Number       Type             X           Y           Z
 ---------------------------------------------------------------------
      1         12           0      -24.799823   -0.619227   -0.354353
      2          6           0      -26.201316    2.115527    1.268696
      3          6           0      -24.106987    1.333592   -3.010664
      4          6           0      -24.173210   -3.388998   -2.191433
      5          6           0      -26.288474   -2.724419    2.075839
      6          7           0      -25.072082    1.465185   -0.686789
      7          6           0      -25.515463    2.487397    0.123779
      8          6           0      -25.450811    3.845219   -0.628305
      9          6           0      -25.304663    3.366950   -2.105828
     10          6           0      -24.681559    1.989467   -1.933690
     11          6           0      -26.654260    3.266077   -2.900189
     12          6           0      -24.372581    4.709134    0.051156
     13          6           0      -24.752955    6.129762    0.228599
     14          1           0      -23.987406    6.851137    1.243325
     15          7           0      -24.015382   -0.928323   -2.235660
     16          6           0      -23.742073    0.032981   -3.155273
     17          6           0      -22.915363   -0.544253   -4.185238
     18          6           0      -22.932019   -1.963983   -3.935795
     19          6           0      -23.811082   -2.154753   -2.778416
     20          6           0      -22.334488    0.235236   -5.310138
     21          6           0      -22.344255   -3.160958   -4.752075
     22          8           0      -22.443799   -4.333556   -4.385206
     23          6           0      -21.492465   -2.930925   -5.969082
     24          7           0      -25.505200   -2.739738   -0.215281
     25          6           0      -24.948120   -3.714669   -1.087154
     26          6           0      -25.217085   -5.118889   -0.657473
     27          6           0      -25.690220   -4.823331    0.802912
     28          6           0      -25.775509   -3.304519    0.928888
     29          6           0      -26.254075   -5.877991   -1.552829
     30          6           0      -24.722754   -5.396927    1.901795
     31          6           0      -23.227589   -5.020363    1.743497
     32          7           0      -25.907143   -0.395971    1.387853
     33          6           0      -26.400505   -1.339213    2.302514
     34          6           0      -27.054612   -0.608012    3.322178
     35          6           0      -26.966725    0.730250    2.959460
     36          6           0      -26.281817    0.793767    1.790961
     37          6           0      -27.658431   -1.193180    4.558962
     38          6           0      -27.386878    2.002662    3.319374
     39          8           0      -28.070243    2.363531    4.294891
     40          6           0      -26.919218    3.046413    2.260744
     41          6           0      -26.013189    4.014592    3.083731
     42          8           0      -24.903466    3.728438    3.567389
     43          8           0      -26.667807    5.237768    3.180155
     44          6           0      -26.127574    6.259898    4.131970
     45          1           0      -24.022473    2.042607   -3.836959
     46          1           0      -23.924929   -4.384338   -2.567643
     47          1           0      -26.582457   -3.303244    2.953964
     48          1           0      -26.365571    4.413260   -0.462433
     49          1           0      -24.577790    3.999381   -2.614660
     50          1           0      -27.546863    3.610963   -2.377474
     51          1           0      -26.903442    2.224630   -3.099601
     52          1           0      -26.582745    3.891895   -3.789525
     53          1           0      -23.537542    4.734383   -0.647570
     54          1           0      -24.118073    4.233994    0.998944
     55          1           0      -25.785396    6.114605    0.578180
     56          1           0      -24.744896    6.613863   -0.747770
     57          1           0      -22.307900    1.301200   -5.084857
     58          1           0      -22.814741   -0.091622   -6.233043
     59          1           0      -21.283991   -0.031846   -5.425655
     60          1           0      -21.601988   -3.846109   -6.551373
     61          1           0      -20.441879   -2.832972   -5.694667
     62          1           0      -21.852461   -2.094675   -6.569211
     63          1           0      -24.324468   -5.743788   -0.604533
     64          1           0      -26.684950   -5.248585    0.940074
     65          1           0      -26.854069   -5.146794   -2.095219
     66          1           0      -26.960360   -6.531064   -1.039988
     67          1           0      -25.835418   -6.539742   -2.311606
     68          1           0      -24.901450   -6.472152    1.920556
     69          1           0      -25.153093   -5.025068    2.831589
     70          1           0      -22.837747   -4.477719    2.604927
     71          1           0      -23.151927   -4.420619    0.836052
     72          1           0      -22.585522   -5.891930    1.619698
     73          1           0      -28.697409   -0.863748    4.563440
     74          1           0      -27.079651   -0.835984    5.410727
     75          1           0      -27.706565   -2.281820    4.587240
     76          1           0      -27.795616    3.593047    1.913594
     77          1           0      -26.164865    5.800706    5.119563
     78          1           0      -26.643394    7.218090    4.193651
     79          1           0      -25.128023    6.321848    3.701576
     80         12           0       24.665698   -0.587203    0.442680
     81          6           0       25.187811    2.056274   -1.841901
     82          6           0       24.372767    1.573654    2.916409
     83          6           0       25.082113   -3.203247    2.600397
     84          6           0       26.044952   -2.799869   -2.179717
     85          7           0       24.834130    1.583043    0.487934
     86          6           0       24.802990    2.437520   -0.555228
     87          6           0       24.461301    3.849778   -0.041078
     88          6           0       24.185848    3.692841    1.420031
     89          6           0       24.515576    2.190552    1.673137
     90          6           0       24.909402    4.787860    2.305855
     91          6           0       23.367463    4.675386   -0.797550
     92          6           0       22.368336    5.656190   -0.046698
     93          1           0       22.111016    7.043694   -0.652531
     94          7           0       24.468802   -0.790899    2.472653
     95          6           0       24.341932    0.265724    3.345873
     96          6           0       24.185104   -0.276543    4.665511
     97          6           0       24.426032   -1.705566    4.647346
     98          6           0       24.724486   -1.945088    3.218125
     99          6           0       23.984410    0.664925    5.783144
    100          6           0       24.333541   -2.762164    5.775833
    101          8           0       24.616852   -3.894071    5.558987
    102          6           0       23.656114   -2.432186    7.065934
    103          7           0       25.516914   -2.694070    0.211932
    104          6           0       25.411314   -3.528013    1.270800
    105          6           0       25.863092   -4.981812    0.920305
    106          6           0       26.137520   -4.886028   -0.611694
    107          6           0       25.913112   -3.383994   -0.915572
    108          6           0       27.056031   -5.495071    1.682077
    109          6           0       25.284511   -5.784582   -1.573966
    110          6           0       23.885400   -5.381874   -1.897065
    111          7           0       25.458034   -0.529475   -1.595927
    112          6           0       25.894004   -1.478067   -2.476031
    113          6           0       26.119189   -0.867210   -3.763357
    114          6           0       25.868334    0.520932   -3.602633
    115          6           0       25.513249    0.676589   -2.247308
    116          6           0       26.694584   -1.496281   -4.982932
    117          6           0       25.874687    1.808554   -4.236188
    118          8           0       26.099711    2.182252   -5.381607
    119          6           0       25.386515    2.858764   -3.140238
    120          6           0       26.293291    4.073488   -3.036708
    121          8           0       27.436826    4.027717   -2.662846
    122          8           0       25.579267    5.206805   -3.391998
    123          6           0       26.382020    6.429820   -3.357637
    124          1           0       24.064863    2.203839    3.753840
    125          1           0       25.143635   -3.998650    3.345694
    126          1           0       26.351298   -3.467779   -2.987376
    127          1           0       25.411928    4.331240   -0.270481
    128          1           0       23.126984    3.900781    1.576318
    129          1           0       25.363472    5.535942    1.656218
    130          1           0       25.564262    4.265899    3.003522
    131          1           0       24.187529    5.388614    2.859424
    132          1           0       22.738521    3.952049   -1.317088
    133          1           0       23.795378    5.276362   -1.600359
    134          1           0       22.794504    5.759853    0.951368
    135          1           0       21.405306    5.158851    0.069370
    136          1           0       24.524182    0.234798    6.626489
    137          1           0       22.922642    0.648225    6.026187
    138          1           0       24.263925    1.716102    5.710501
    139          1           0       24.486833   -2.085690    7.679317
    140          1           0       23.096877   -3.303963    7.406952
    141          1           0       22.979893   -1.577851    7.028198
    142          1           0       25.039379   -5.692024    0.995137
    143          1           0       27.153733   -5.006936   -0.985606
    144          1           0       27.310476   -4.838077    2.514787
    145          1           0       27.952921   -5.538751    1.063627
    146          1           0       26.766108   -6.479906    2.047494
    147          1           0       25.230074   -6.797824   -1.175727
    148          1           0       25.878162   -5.960144   -2.471390
    149          1           0       23.499826   -4.730224   -1.112745
    150          1           0       23.088322   -6.122097   -1.970111
    151          1           0       23.947020   -4.929457   -2.887333
    152          1           0       27.695393   -1.908395   -4.857176
    153          1           0       26.952662   -0.664563   -5.638954
    154          1           0       26.009004   -2.217019   -5.429455
    155          1           0       24.384780    3.159330   -3.447962
    156          1           0       25.804186    6.789017   -2.506622
    157          1           0       26.131681    6.918301   -4.299051
    158          1           0       27.442327    6.243725   -3.185351
 ---------------------------------------------------------------------

 SCF Done:  E(RCAM-B3LYP) =  -4069.80022478     A.U. after   19 cycles

 Excitation energies and oscillator strengths:

 Excited State   1:      Singlet-A      1.6607 eV  746.56 nm  f=0.3740  <S**2>=0.000
     309 -> 316        0.16223
     311 -> 313        0.68893
     309 <- 316        0.10409
 This state for optimization and/or second-order correction.
 Total Energy, E(TD-HF/TD-DFT) =  -4069.73919406
 Copying the excited state density for this state as the 1-particle RhoCI density.

 Excited State   2:      Singlet-A      1.7017 eV  728.57 nm  f=0.3891  <S**2>=0.000
     310 -> 315       -0.18701
     312 -> 314        0.68384
     310 <- 315       -0.11025

 Excited State   3:      Singlet-A      2.1898 eV  566.18 nm  f=0.1087  <S**2>=0.000
     310 -> 314        0.64238
     312 -> 315        0.28248

 Excited State   4:      Singlet-A      2.2190 eV  558.74 nm  f=0.1286  <S**2>=0.000
     309 -> 313        0.64341
     311 -> 316       -0.27225

 Excited State   5:      Singlet-A      3.0903 eV  401.21 nm  f=0.0000  <S**2>=0.000
     312 -> 313        0.70711

 The electronic state is 1-A.
 Alpha  occ. eigenvalues --  -46.90000 -46.88341 -19.24764 -19.24743 -19.20032
 Alpha  occ. eigenvalues --  -19.20030 -19.19584 -19.18756 -19.18638 -19.17674
 Alpha  occ. eigenvalues --  -14.42221 -14.41962 -14.41787 -14.41502 -14.39502
 Alpha  occ. eigenvalues --  -14.39367 -14.38814 -14.38525 -10.40049 -10.39124
 Alpha  occ. eigenvalues --  -10.35733 -10.35306 -10.34804 -10.33656 -10.31996
 Alpha  occ. eigenvalues --  -10.31633 -10.31265 -10.31132 -10.30976 -10.30892
 Alpha  occ. eigenvalues --  -10.30717 -10.30576 -10.30369 -10.30342 -10.30261
 Alpha  occ. eigenvalues --  -10.30246 -10.29594 -10.29452 -10.29329 -10.29225
 Alpha  occ. eigenvalues --  -10.29021 -10.28679 -10.28596 -10.28345 -10.28327
 Alpha  occ. eigenvalues --  -10.28266 -10.28235 -10.28188 -10.28047 -10.27933
 Alpha  occ. eigenvalues --  -10.27929 -10.27902 -10.27838 -10.27692 -10.27662
 Alpha  occ. eigenvalues --  -10.27574 -10.27564 -10.27475 -10.27371 -10.27302
 Alpha  occ. eigenvalues --  -10.27194 -10.27035 -10.27033 -10.27032 -10.26787
 Alpha  occ. eigenvalues --  -10.26751 -10.26727 -10.26567 -10.26550 -10.26542
 Alpha  occ. eigenvalues --  -10.26420 -10.26397 -10.26356 -10.26264 -10.26136
 Alpha  occ. eigenvalues --  -10.25965 -10.25959 -10.25850 -10.25769 -10.25760
 Alpha  occ. eigenvalues --  -10.25591 -10.25399 -10.25111 -10.24977 -10.24885
 Alpha  occ. eigenvalues --  -10.23803  -3.18309  -3.16937  -1.93182  -1.92773
 Alpha  occ. eigenvalues --   -1.92600  -1.91818  -1.91396  -1.91240  -1.16297
 Alpha  occ. eigenvalues --   -1.14437  -1.12904  -1.09495  -1.09216  -1.08545
 Alpha  occ. eigenvalues --   -1.07966  -1.06669  -1.04830  -1.04227  -1.03922
 Alpha  occ. eigenvalues --   -1.03538  -1.03146  -1.02488  -1.02247  -1.01841
 Alpha  occ. eigenvalues --   -0.92553  -0.91619  -0.89311  -0.89113  -0.89072
 Alpha  occ. eigenvalues --   -0.88885  -0.88607  -0.88263  -0.87819  -0.87377
 Alpha  occ. eigenvalues --   -0.87179  -0.87149  -0.86556  -0.86100  -0.84620
 Alpha  occ. eigenvalues --   -0.84009  -0.83665  -0.83527  -0.82533  -0.82187
 Alpha  occ. eigenvalues --   -0.82004  -0.81646  -0.81010  -0.80845  -0.80412
 Alpha  occ. eigenvalues --   -0.80408  -0.78291  -0.78228  -0.77164  -0.77105
 Alpha  occ. eigenvalues --   -0.77093  -0.76955  -0.76054  -0.75860  -0.75490
 Alpha  occ. eigenvalues --   -0.74657  -0.73271  -0.72333  -0.72069  -0.71474
 Alpha  occ. eigenvalues --   -0.69820  -0.69813  -0.69281  -0.68787  -0.68209
 Alpha  occ. eigenvalues --   -0.67556  -0.66912  -0.66553  -0.65358  -0.64925
 Alpha  occ. eigenvalues --   -0.64681  -0.64475  -0.64310  -0.64145  -0.64087
 Alpha  occ. eigenvalues --   -0.64018  -0.61712  -0.61584  -0.60032  -0.59907
 Alpha  occ. eigenvalues --   -0.59804  -0.59558  -0.59160  -0.58810  -0.58456
 Alpha  occ. eigenvalues --   -0.58355  -0.58003  -0.57586  -0.57391  -0.57020
 Alpha  occ. eigenvalues --   -0.56154  -0.56002  -0.55885  -0.55639  -0.55395
 Alpha  occ. eigenvalues --   -0.55349  -0.55099  -0.55059  -0.54785  -0.54591
 Alpha  occ. eigenvalues --   -0.54065  -0.53728  -0.53568  -0.53350  -0.53067
 Alpha  occ. eigenvalues --   -0.52953  -0.52829  -0.52773  -0.52485  -0.52381
 Alpha  occ. eigenvalues --   -0.51954  -0.51734  -0.51691  -0.51479  -0.51201
 Alpha  occ. eigenvalues --   -0.50937  -0.50834  -0.50623  -0.50512  -0.50368
 Alpha  occ. eigenvalues --   -0.50303  -0.50039  -0.49654  -0.49526  -0.49408
 Alpha  occ. eigenvalues --   -0.49216  -0.49207  -0.48988  -0.48934  -0.48782
 Alpha  occ. eigenvalues --   -0.48775  -0.48602  -0.48539  -0.48345  -0.48105
 Alpha  occ. eigenvalues --   -0.47996  -0.47705  -0.47701  -0.47384  -0.47213
 Alpha  occ. eigenvalues --   -0.47143  -0.47053  -0.46770  -0.46633  -0.46317
 Alpha  occ. eigenvalues --   -0.46035  -0.46011  -0.45787  -0.45722  -0.45560
 Alpha  occ. eigenvalues --   -0.45489  -0.45434  -0.44636  -0.44628  -0.44567
 Alpha  occ. eigenvalues --   -0.44508  -0.44337  -0.44201  -0.44094  -0.43772
 Alpha  occ. eigenvalues --   -0.43722  -0.43648  -0.43486  -0.43463  -0.43253
 Alpha  occ. eigenvalues --   -0.43210  -0.43076  -0.43005  -0.42936  -0.42715
 Alpha  occ. eigenvalues --   -0.42616  -0.42386  -0.42347  -0.42041  -0.41984
 Alpha  occ. eigenvalues --   -0.41833  -0.41763  -0.41609  -0.41468  -0.41086
 Alpha  occ. eigenvalues --   -0.40880  -0.40866  -0.40668  -0.40601  -0.40317
 Alpha  occ. eigenvalues --   -0.40133  -0.39975  -0.39198  -0.39181  -0.38969
 Alpha  occ. eigenvalues --   -0.38225  -0.38124  -0.38054  -0.37913  -0.37391
 Alpha  occ. eigenvalues --   -0.37386  -0.36908  -0.36851  -0.36618  -0.36096
 Alpha  occ. eigenvalues --   -0.35916  -0.35723  -0.34630  -0.34205  -0.34110
 Alpha  occ. eigenvalues --   -0.33563  -0.33247  -0.33158  -0.31798  -0.31336
 Alpha  occ. eigenvalues --   -0.30845  -0.30844  -0.30615  -0.30076  -0.29836
 Alpha  occ. eigenvalues --   -0.29742  -0.29422  -0.29349  -0.24261  -0.23830
 Alpha  occ. eigenvalues --   -0.21212  -0.21060
 Alpha virt. eigenvalues --   -0.09025  -0.08648  -0.01630  -0.01533   0.00309
 Alpha virt. eigenvalues --    0.00512   0.01150   0.02172   0.02403   0.02508
 Alpha virt. eigenvalues --    0.04503   0.04940   0.05050   0.05683   0.05945

 Mulliken charges:
               1
     1  Mg  12.002505
     2  C    5.968062
     3  C    6.010022
     4  C    6.038310
     5  C    6.011398
     6  N    6.977487
     7  C    6.036796
     8  C    5.997412
     9  C    6.006757
    10  C    5.975375
    11  C    6.004122
    12  C    5.992909
    13  C    6.000360
    14  H    0.998941
    15  N    7.010814
    16  C    5.957106
    17  C    5.979801
    18  C    5.986392
    19  C    5.954353
    20  C    6.005439
    21  C    5.987100
    22  O    7.970305
    23  C    6.005851
    24  N    7.018043
    25  C    5.953089
    26  C    6.017043
    27  C    5.992474
    28  C    6.017785
    29  C    5.999934
    30  C    5.991325
    31  C    5.993225
    32  N    6.995118
    33  C    6.034953
    34  C    6.031199
    35  C    6.001536
    36  C    6.033390
    37  C    5.994841
    38  C    6.013391
    39  O    8.031305
    40  C    6.005394
    41  C    6.002763
    42  O    8.003261
    43  O    8.001577
    44  C    5.999088
    45  H    0.984917
    46  H    0.996231
    47  H    1.017861
    48  H    0.998929
    49  H    0.998380
    50  H    0.982621
    51  H    1.000557
    52  H    0.996376
    53  H    1.013511
    54  H    0.993908
    55  H    0.996148
    56  H    1.006145
    57  H    0.983260
    58  H    0.978984
    59  H    0.980068
    60  H    0.985789
    61  H    0.988649
    62  H    0.996106
    63  H    0.998218
    64  H    1.003147
    65  H    1.000190
    66  H    0.989223
    67  H    1.003182
    68  H    1.010696
    69  H    0.992857
    70  H    0.996846
    71  H    1.015256
    72  H    1.007372
    73  H    1.019946
    74  H    1.021322
    75  H    1.018625
    76  H    1.008206
    77  H    0.998883
    78  H    1.004666
    79  H    1.004576
    80  Mg  12.000013
    81  C    5.999848
    82  C    5.999985
    83  C    6.000136
    84  C    6.000031
    85  N    6.999937
    86  C    6.000179
    87  C    5.999974
    88  C    6.000064
    89  C    5.999867
    90  C    6.000009
    91  C    5.999985
    92  C    6.000006
    93  H    1.000003
    94  N    7.000011
    95  C    5.999843
    96  C    5.999875
    97  C    5.999921
    98  C    5.999803
    99  C    6.000072
   100  C    5.999913
   101  O    7.999865
   102  C    6.000034
   103  N    7.000002
   104  C    5.999867
   105  C    6.000054
   106  C    5.999987
   107  C    6.000094
   108  C    6.000007
   109  C    5.999981
   110  C    5.999947
   111  N    7.000014
   112  C    6.000145
   113  C    6.000235
   114  C    5.999959
   115  C    6.000213
   116  C    5.999946
   117  C    6.000095
   118  O    8.000171
   119  C    5.999998
   120  C    6.000012
   121  O    8.000006
   122  O    8.000017
   123  C    5.999998
   124  H    0.999952
   125  H    0.999955
   126  H    1.000064
   127  H    0.999980
   128  H    0.999983
   129  H    0.999931
   130  H    0.999997
   131  H    0.999971
   132  H    1.000014
   133  H    0.999987
   134  H    1.000017
   135  H    1.000035
   136  H    0.999874
   137  H    0.999883
   138  H    0.999875
   139  H    0.999926
   140  H    0.999912
   141  H    0.999983
   142  H    0.999998
   143  H    0.999980
   144  H    1.000022
   145  H    0.999941
   146  H    0.999985
   147  H    1.000057
   148  H    0.999996
   149  H    1.000051
   150  H    1.000071
   151  H    0.999983
   152  H    1.000115
   153  H    1.000086
   154  H    1.000145
   155  H    1.000062
   156  H    1.000025
   157  H    1.000026
   158  H    0.999992
 Sum of Mulliken charges = 624.00000

 Dipole moment (field-independent basis, Debye):
    X=             -4.8326    Y=              0.6828    Z=              9.7435  Tot=             10.8975
 Quadrupole moment (field-independent basis, Debye-Ang):
   XX=            241.9735   YY=              1.0519   ZZ=             -8.9229
   XY=            -13.0936   XZ=           -244.5441   YZ=             -6.5140

 Normal termination of Gaussian 16 at Wed Sep 22 10:14:15 2021.
