 Gaussian 16, Revision A.03,
 Gaussian 16:  ES64L-G16RevA.03 25-Dec-2016

 -----------------------------------
 #p cam-b3lyp/Def2SVP td=(nstates=5)
 -----------------------------------

 --------------------------------
 TDDFT excited states in gaussian
 --------------------------------
 Symbolic Z-matrix:
 Charge =  0 Multiplicity = 1

                         Standard orientation:
 ---------------------------------------------------------------------
 Center     Atomic      Atomic             Coordinates (Angstroms)
 Number     Number       Type             X           Y           Z
 ---------------------------------------------------------------------
      1         12           0       14.328932   -0.161603   -0.034794
      2          6           0       11.217169   -1.270163   -1.276729
      3          6           0       14.352627    2.327383   -2.478575
      4          6           0       16.712788    1.444771    1.795829
      5          6           0       13.826082   -2.444506    2.679125
      6          7           0       12.974383    0.401840   -1.665206
      7          6           0       11.781276   -0.156847   -1.959631
      8          6           0       11.053999    0.636413   -3.093646
      9          6           0       12.270652    1.505096   -3.657429
     10          6           0       13.344129    1.400588   -2.526139
     11          6           0       12.976269    1.118298   -4.976976
     12          6           0        9.888984    1.484048   -2.456084
     13          6           0        8.623895    1.596040   -3.351452
     14          1           0        7.922895    3.015175   -3.369051
     15          7           0       15.566232    1.574884   -0.401789
     16          6           0       15.411138    2.392238   -1.489854
     17          6           0       16.428989    3.369854   -1.409568
     18          6           0       17.113082    3.225887   -0.166017
     19          6           0       16.518299    2.005703    0.475324
     20          6           0       16.675306    4.449628   -2.436636
     21          6           0       18.089785    4.179314    0.433371
     22          8           0       18.352428    5.249464   -0.091550
     23          6           0       18.760898    3.987307    1.692564
     24          7           0       15.064397   -0.431994    2.042180
     25          6           0       16.189314    0.296550    2.456203
     26          6           0       16.724106   -0.247782    3.743834
     27          6           0       15.778540   -1.456995    4.089735
     28          6           0       14.832323   -1.471352    2.901588
     29          6           0       18.196926   -0.630727    3.550404
     30          6           0       15.209112   -1.417133    5.557796
     31          6           0       15.488124   -2.606995    6.425191
     32          7           0       12.844950   -1.636196    0.611849
     33          6           0       12.840590   -2.487923    1.689106
     34          6           0       11.722905   -3.451151    1.580905
     35          6           0       11.049011   -2.924985    0.446940
     36          6           0       11.800395   -1.917048   -0.127694
     37          6           0       11.295156   -4.549895    2.541202
     38          6           0        9.818152   -3.030900   -0.290581
     39          8           0        8.836566   -3.765795   -0.100120
     40          6           0        9.838487   -2.020112   -1.436906
     41          6           0        9.631889   -2.682803   -2.738161
     42          8           0        8.737343   -2.409066   -3.453311
     43          8           0       10.669808   -3.485105   -3.115015
     44          6           0       10.521856   -3.904446   -4.525608
     45          1           0       14.432130    3.069595   -3.276182
     46          1           0       17.545678    1.954452    2.282747
     47          1           0       13.488987   -3.168207    3.424921
     48          1           0       10.663899   -0.084037   -3.812797
     49          1           0       12.143593    2.585150   -3.585485
     50          1           0       12.869578    0.049360   -5.165095
     51          1           0       14.030383    1.383453   -5.059064
     52          1           0       12.428734    1.635728   -5.764020
     53          1           0       10.243565    2.474033   -2.167795
     54          1           0        9.639892    0.954621   -1.536380
     55          1           0        7.953334    0.846297   -2.931165
     56          1           0        8.983912    1.240247   -4.317055
     57          1           0       17.673499    4.887513   -2.448077
     58          1           0       15.931841    5.206764   -2.188894
     59          1           0       16.331514    4.246051   -3.450787
     60          1           0       19.356687    3.078857    1.595123
     61          1           0       18.048105    3.941202    2.516413
     62          1           0       19.412827    4.842860    1.869208
     63          1           0       16.553787    0.456353    4.557906
     64          1           0       16.154415   -2.462648    3.900092
     65          1           0       18.635876   -0.211382    2.644776
     66          1           0       18.325446   -1.709623    3.463409
     67          1           0       18.806004   -0.116891    4.293516
     68          1           0       14.135298   -1.281882    5.428386
     69          1           0       15.649385   -0.640333    6.181904
     70          1           0       14.527422   -2.967319    6.792065
     71          1           0       16.073307   -2.339707    7.305284
     72          1           0       16.105977   -3.360094    5.936015
     73          1           0       10.690328   -4.175231    3.367231
     74          1           0       12.129045   -5.149795    2.907853
     75          1           0       10.605471   -5.112618    1.912215
     76          1           0        8.968301   -1.368828   -1.365807
     77          1           0       11.373315   -4.539160   -4.772456
     78          1           0       10.483575   -3.036550   -5.183788
     79          1           0        9.681351   -4.572680   -4.709796
     80         12           0      -13.557616    0.862383   -0.065348
     81          6           0      -14.023143   -2.517524   -0.373694
     82          6           0      -10.278064    0.474838   -0.607304
     83          6           0      -13.228218    4.168043    0.506720
     84          6           0      -17.014509    1.141866    1.026007
     85          7           0      -12.251949   -0.924441   -0.185255
     86          6           0      -12.652517   -2.182240   -0.406718
     87          6           0      -11.388344   -3.136307   -0.718675
     88          6           0      -10.243939   -2.056596   -0.778180
     89          6           0      -10.934808   -0.714586   -0.462739
     90          6           0       -9.022757   -2.399252    0.097178
     91          6           0      -11.533708   -3.963069   -2.027738
     92          6           0      -10.255481   -4.637317   -2.624765
     93          1           0      -10.079491   -6.188889   -2.412765
     94          7           0      -11.944919    2.147120   -0.005172
     95          6           0      -10.712481    1.836146   -0.349209
     96          6           0       -9.897315    3.040195   -0.294827
     97          6           0      -10.690689    4.145410    0.136830
     98          6           0      -12.023573    3.509639    0.226147
     99          6           0       -8.391234    3.095700   -0.490505
    100          6           0      -10.300442    5.581251    0.471712
    101          8           0      -11.057708    6.312323    1.103465
    102          6           0       -8.974318    6.085892    0.021307
    103          7           0      -14.930596    2.423355    0.710951
    104          6           0      -14.553554    3.693358    0.798983
    105          6           0      -15.733611    4.625691    1.119491
    106          6           0      -16.899599    3.642506    1.056825
    107          6           0      -16.227861    2.323831    0.958852
    108          6           0      -15.666927    5.456488    2.409602
    109          6           0      -17.967958    4.016006    0.060603
    110          6           0      -19.387945    4.332095    0.652004
    111          7           0      -15.177088   -0.354171    0.211870
    112          6           0      -16.545322   -0.117348    0.574964
    113          6           0      -17.332174   -1.325853    0.463455
    114          6           0      -16.333077   -2.260356    0.072931
    115          6           0      -15.087731   -1.630896   -0.047357
    116          6           0      -18.799325   -1.561058    0.543778
    117          6           0      -16.249870   -3.613567   -0.415754
    118          8           0      -17.086801   -4.471356   -0.734501
    119          6           0      -14.787388   -3.926129   -0.611484
    120          6           0      -14.341475   -4.891754    0.508612
    121          8           0      -14.633335   -4.840445    1.713275
    122          8           0      -13.540574   -5.837472   -0.059474
    123          6           0      -13.005738   -6.920227    0.825702
    124          1           0       -9.223499    0.501362   -0.889555
    125          1           0      -13.178807    5.185166    0.901031
    126          1           0      -18.070618    1.326466    1.230665
    127          1           0      -11.306800   -3.755619    0.173843
    128          1           0       -9.922135   -1.979386   -1.816704
    129          1           0       -8.136805   -2.167140   -0.492847
    130          1           0       -8.972887   -3.463114    0.329404
    131          1           0       -9.031910   -1.821570    1.021542
    132          1           0      -11.775975   -3.230602   -2.797720
    133          1           0      -12.266069   -4.757864   -1.886600
    134          1           0       -9.402710   -4.230891   -2.080010
    135          1           0      -10.242675   -4.467568   -3.700839
    136          1           0       -7.983075    2.110783   -0.717213
    137          1           0       -7.918260    3.464354    0.419385
    138          1           0       -8.111243    3.773123   -1.296231
    139          1           0       -8.913147    5.819548   -1.034252
    140          1           0       -8.033288    5.760953    0.464086
    141          1           0       -8.876479    7.166063    0.124252
    142          1           0      -15.819292    5.339459    0.300877
    143          1           0      -17.397404    3.673385    2.025857
    144          1           0      -16.088804    6.419556    2.123226
    145          1           0      -14.646890    5.491218    2.791972
    146          1           0      -16.181252    5.009023    3.260042
    147          1           0      -18.104793    3.104463   -0.520306
    148          1           0      -17.705695    4.870928   -0.561969
    149          1           0      -19.378375    4.200418    1.734307
    150          1           0      -20.081717    3.604935    0.228963
    151          1           0      -19.809915    5.295994    0.367143
    152          1           0      -19.330271   -0.610134    0.579089
    153          1           0      -18.961712   -2.008046    1.523882
    154          1           0      -19.035170   -2.147101   -0.345670
    155          1           0      -14.745442   -4.395210   -1.594674
    156          1           0      -12.586631   -6.580311    1.773069
    157          1           0      -12.283472   -7.578984    0.344680
    158          1           0      -13.875055   -7.511401    1.113126
 ---------------------------------------------------------------------

 SCF Done:  E(RCAM-B3LYP) =  -4069.78785436     A.U. after   19 cycles

 Excitation energies and oscillator strengths:

 Excited State   1:      Singlet-A      1.6803 eV  737.88 nm  f=0.4180  <S**2>=0.000
     309 -> 315        0.17287
     311 -> 313        0.68697
     309 <- 315        0.10659
 This state for optimization and/or second-order correction.
 Total Energy, E(TD-HF/TD-DFT) =  -4069.72610526
 Copying the excited state density for this state as the 1-particle RhoCI density.

 Excited State   2:      Singlet-A      1.7217 eV  720.12 nm  f=0.3952  <S**2>=0.000
     310 -> 316       -0.17577
     312 -> 314        0.68378
     310 <- 316       -0.10317

 Excited State   3:      Singlet-A      2.2018 eV  563.10 nm  f=0.1139  <S**2>=0.000
     309 -> 313        0.64203
     311 -> 315       -0.28118

 Excited State   4:      Singlet-A      2.2688 eV  546.48 nm  f=0.1126  <S**2>=0.000
     310 -> 314        0.63910
     312 -> 316        0.28646

 Excited State   5:      Singlet-A      2.8030 eV  442.33 nm  f=0.0000  <S**2>=0.000
     312 -> 313        0.70707

 The electronic state is 1-A.
 Alpha  occ. eigenvalues --  -46.90928 -46.89100 -19.25535 -19.25218 -19.20027
 Alpha  occ. eigenvalues --  -19.19449 -19.19365 -19.18944 -19.17591 -19.17404
 Alpha  occ. eigenvalues --  -14.43064 -14.42795 -14.41982 -14.41639 -14.39998
 Alpha  occ. eigenvalues --  -14.39996 -14.39392 -14.39190 -10.39467 -10.38839
 Alpha  occ. eigenvalues --  -10.36007 -10.34873 -10.33587 -10.33257 -10.32339
 Alpha  occ. eigenvalues --  -10.32091 -10.32071 -10.31949 -10.31926 -10.31587
 Alpha  occ. eigenvalues --  -10.31154 -10.31084 -10.30874 -10.30406 -10.30298
 Alpha  occ. eigenvalues --  -10.30272 -10.30221 -10.29951 -10.29935 -10.29897
 Alpha  occ. eigenvalues --  -10.29399 -10.29237 -10.29176 -10.29138 -10.29003
 Alpha  occ. eigenvalues --  -10.28899 -10.28715 -10.28609 -10.28542 -10.28505
 Alpha  occ. eigenvalues --  -10.28492 -10.28283 -10.28259 -10.28249 -10.28010
 Alpha  occ. eigenvalues --  -10.27975 -10.27902 -10.27838 -10.27664 -10.27633
 Alpha  occ. eigenvalues --  -10.27569 -10.27449 -10.27406 -10.27131 -10.27046
 Alpha  occ. eigenvalues --  -10.26948 -10.26923 -10.26920 -10.26749 -10.26648
 Alpha  occ. eigenvalues --  -10.26612 -10.26594 -10.26490 -10.26431 -10.26407
 Alpha  occ. eigenvalues --  -10.26186 -10.26167 -10.26150 -10.26060 -10.25822
 Alpha  occ. eigenvalues --  -10.25648 -10.25590 -10.25542 -10.25368 -10.25346
 Alpha  occ. eigenvalues --  -10.24311  -3.19075  -3.17625  -1.93989  -1.93511
 Alpha  occ. eigenvalues --   -1.93370  -1.92516  -1.92073  -1.91938  -1.18081
 Alpha  occ. eigenvalues --   -1.15470  -1.10299  -1.09635  -1.09148  -1.09056
 Alpha  occ. eigenvalues --   -1.07882  -1.06450  -1.05645  -1.05207  -1.04295
 Alpha  occ. eigenvalues --   -1.03845  -1.03786  -1.03524  -1.02865  -1.02627
 Alpha  occ. eigenvalues --   -0.92727  -0.91181  -0.89843  -0.89505  -0.89111
 Alpha  occ. eigenvalues --   -0.88625  -0.88335  -0.88161  -0.88081  -0.87458
 Alpha  occ. eigenvalues --   -0.87107  -0.87064  -0.86916  -0.85913  -0.84971
 Alpha  occ. eigenvalues --   -0.84745  -0.84097  -0.83255  -0.82809  -0.82605
 Alpha  occ. eigenvalues --   -0.82266  -0.82068  -0.81023  -0.81017  -0.80649
 Alpha  occ. eigenvalues --   -0.79950  -0.78747  -0.78445  -0.77709  -0.77473
 Alpha  occ. eigenvalues --   -0.76961  -0.76643  -0.76599  -0.76003  -0.75524
 Alpha  occ. eigenvalues --   -0.75260  -0.73239  -0.72611  -0.72545  -0.71593
 Alpha  occ. eigenvalues --   -0.69464  -0.69365  -0.69352  -0.69017  -0.68059
 Alpha  occ. eigenvalues --   -0.67619  -0.67483  -0.67001  -0.66437  -0.65815
 Alpha  occ. eigenvalues --   -0.65764  -0.65091  -0.64799  -0.64744  -0.64365
 Alpha  occ. eigenvalues --   -0.63848  -0.63413  -0.62549  -0.60639  -0.60172
 Alpha  occ. eigenvalues --   -0.60117  -0.59571  -0.59090  -0.58978  -0.58790
 Alpha  occ. eigenvalues --   -0.58552  -0.58409  -0.57895  -0.57349  -0.57174
 Alpha  occ. eigenvalues --   -0.56606  -0.56219  -0.56178  -0.55650  -0.55567
 Alpha  occ. eigenvalues --   -0.55229  -0.55052  -0.54649  -0.54454  -0.54101
 Alpha  occ. eigenvalues --   -0.53656  -0.53607  -0.53474  -0.53311  -0.53281
 Alpha  occ. eigenvalues --   -0.52925  -0.52741  -0.52706  -0.52493  -0.52362
 Alpha  occ. eigenvalues --   -0.52079  -0.51863  -0.51594  -0.51563  -0.51431
 Alpha  occ. eigenvalues --   -0.51098  -0.51026  -0.50978  -0.50613  -0.50390
 Alpha  occ. eigenvalues --   -0.50138  -0.49943  -0.49865  -0.49703  -0.49664
 Alpha  occ. eigenvalues --   -0.49605  -0.49360  -0.49280  -0.49137  -0.48948
 Alpha  occ. eigenvalues --   -0.48888  -0.48714  -0.48489  -0.48462  -0.48305
 Alpha  occ. eigenvalues --   -0.48078  -0.47701  -0.47627  -0.47565  -0.47419
 Alpha  occ. eigenvalues --   -0.47209  -0.47055  -0.46884  -0.46769  -0.46707
 Alpha  occ. eigenvalues --   -0.46461  -0.46429  -0.46290  -0.46053  -0.45880
 Alpha  occ. eigenvalues --   -0.45847  -0.45229  -0.45182  -0.44955  -0.44898
 Alpha  occ. eigenvalues --   -0.44772  -0.44614  -0.44449  -0.44423  -0.44321
 Alpha  occ. eigenvalues --   -0.44106  -0.44036  -0.43930  -0.43768  -0.43686
 Alpha  occ. eigenvalues --   -0.43505  -0.43424  -0.43092  -0.42977  -0.42833
 Alpha  occ. eigenvalues --   -0.42737  -0.42661  -0.42399  -0.42112  -0.41931
 Alpha  occ. eigenvalues --   -0.41903  -0.41887  -0.41747  -0.41440  -0.41362
 Alpha  occ. eigenvalues --   -0.41115  -0.41008  -0.40883  -0.40751  -0.40335
 Alpha  occ. eigenvalues --   -0.40215  -0.39736  -0.39339  -0.39202  -0.38998
 Alpha  occ. eigenvalues --   -0.38765  -0.38177  -0.38010  -0.37780  -0.37743
 Alpha  occ. eigenvalues --   -0.37332  -0.36991  -0.36964  -0.36583  -0.36494
 Alpha  occ. eigenvalues --   -0.36105  -0.35869  -0.35029  -0.34227  -0.34198
 Alpha  occ. eigenvalues --   -0.33915  -0.33585  -0.33272  -0.31880  -0.31587
 Alpha  occ. eigenvalues --   -0.31074  -0.31019  -0.30501  -0.30484  -0.30091
 Alpha  occ. eigenvalues --   -0.29886  -0.29584  -0.29288  -0.24602  -0.23826
 Alpha  occ. eigenvalues --   -0.21665  -0.21019
 Alpha virt. eigenvalues --   -0.09475  -0.08465  -0.02343  -0.01686   0.00189
 Alpha virt. eigenvalues --    0.00665   0.01126   0.01979   0.02340   0.02636
 Alpha virt. eigenvalues --    0.04573   0.05009   0.05340   0.05765   0.05981

 Mulliken charges:
               1
     1  Mg   0.801235
     2  C    0.004405
     3  C   -0.071619
     4  C   -0.019740
     5  C   -0.048143
     6  N   -0.286869
     7  C   -0.055470
     8  C   -0.042492
     9  C   -0.052400
    10  C    0.058100
    11  C    0.080567
    12  C    0.048774
    13  C   -0.050593
    14  H    0.025873
    15  N   -0.365290
    16  C    0.114200
    17  C   -0.149622
    18  C   -0.022396
    19  C    0.091017
    20  C    0.140525
    21  C   -0.050206
    22  O   -0.214475
    23  C    0.078998
    24  N   -0.287406
    25  C    0.025764
    26  C   -0.009802
    27  C   -0.012915
    28  C    0.028420
    29  C    0.074377
    30  C    0.039523
    31  C   -0.004124
    32  N   -0.281342
    33  C    0.026107
    34  C   -0.154967
    35  C    0.014862
    36  C    0.076297
    37  C    0.107432
    38  C    0.020240
    39  O   -0.190283
    40  C    0.052738
    41  C    0.149223
    42  O   -0.180353
    43  O   -0.336405
    44  C    0.181930
    45  H   -0.017979
    46  H   -0.053224
    47  H   -0.027181
    48  H    0.012469
    49  H    0.009836
    50  H    0.010258
    51  H    0.025175
    52  H    0.017147
    53  H    0.017902
    54  H    0.012935
    55  H    0.042706
    56  H    0.031840
    57  H    0.047279
    58  H    0.015815
    59  H   -0.004946
    60  H    0.030031
    61  H    0.043494
    62  H    0.024877
    63  H    0.021345
    64  H    0.015214
    65  H    0.014967
    66  H    0.018987
    67  H    0.014709
    68  H    0.016920
    69  H    0.016013
    70  H    0.020666
    71  H    0.008746
    72  H    0.012765
    73  H    0.041348
    74  H    0.029956
    75  H    0.041825
    76  H    0.031167
    77  H    0.027622
    78  H    0.035927
    79  H    0.039693
    80  Mg   0.832048
    81  C   -0.058952
    82  C   -0.068315
    83  C   -0.048551
    84  C   -0.064350
    85  N   -0.282678
    86  C   -0.070749
    87  C    0.037279
    88  C   -0.103388
    89  C    0.096649
    90  C    0.074275
    91  C    0.030334
    92  C   -0.078954
    93  H   -0.000394
    94  N   -0.351764
    95  C    0.093655
    96  C   -0.162968
    97  C   -0.023609
    98  C    0.114266
    99  C    0.115674
   100  C    0.042802
   101  O   -0.195870
   102  C    0.027071
   103  N   -0.202744
   104  C   -0.029759
   105  C   -0.063756
   106  C   -0.010464
   107  C   -0.014939
   108  C    0.084012
   109  C    0.049382
   110  C   -0.014677
   111  N   -0.364367
   112  C    0.117913
   113  C   -0.165176
   114  C   -0.033257
   115  C    0.166891
   116  C    0.154758
   117  C    0.031348
   118  O   -0.204302
   119  C    0.011525
   120  C    0.227330
   121  O   -0.237268
   122  O   -0.334623
   123  C    0.179466
   124  H   -0.045075
   125  H    0.005736
   126  H   -0.021826
   127  H    0.012736
   128  H    0.012199
   129  H    0.012593
   130  H    0.020398
   131  H    0.026655
   132  H    0.007693
   133  H    0.051092
   134  H    0.027963
   135  H    0.042488
   136  H    0.007889
   137  H    0.030089
   138  H    0.019508
   139  H    0.028840
   140  H    0.042175
   141  H    0.025741
   142  H    0.012547
   143  H   -0.000671
   144  H    0.024121
   145  H    0.022934
   146  H    0.007959
   147  H    0.006256
   148  H    0.012093
   149  H    0.013223
   150  H    0.012209
   151  H    0.019393
   152  H   -0.002971
   153  H    0.041446
   154  H    0.058580
   155  H    0.040229
   156  H    0.041195
   157  H    0.045412
   158  H    0.038342
 Sum of Mulliken charges =  -0.00000

 Dipole moment (field-independent basis, Debye):
    X=              8.0124    Y=              0.5831    Z=             -0.3631  Tot=              8.0418
 Quadrupole moment (field-independent basis, Debye-Ang):
   XX=           -517.2659   YY=           -544.2993   ZZ=           -483.6001
   XY=           -123.8133   XZ=             53.5939   YZ=             -9.1766

 Normal termination of Gaussian 16 at Wed Sep 15 00:06:52 2021.
