 Gaussian 16, Revision A.03,
 Gaussian 16:  ES64L-G16RevA.03 25-Dec-2016

 ---------------------------------------------------
 #p cam-b3lyp/Def2SVP td=(nstates=5) density=(CIS=1)
 ---------------------------------------------------

 --------------------------------
 TDDFT excited states in gaussian
 --------------------------------
 Symbolic Z-matrix:
 Charge =  0 Multiplicity = 1

                         Standard orientation:
 ---------------------------------------------------------------------
 Center     Atomic      Atomic             Coordinates (Angstroms)
 Number     Number       Type             X           Y           Z
 ---------------------------------------------------------------------
      1         12           0        0.728870    0.048121   -0.249134
      2          6           0       -2.805671    0.198349   -0.269140
      3          6           0        0.519065   -3.396701   -0.219809
      4          6           0        4.100832   -0.064877    0.065070
      5          6           0        0.887103    3.545265   -0.063801
      6          7           0       -0.998981   -1.332135   -0.142167
      7          6           0       -2.346409   -1.073865   -0.382529
      8          6           0       -3.182135   -2.414606   -0.489258
      9          6           0       -2.101340   -3.487165   -0.189236
     10          6           0       -0.764976   -2.714488   -0.122144
     11          6           0       -2.285839   -4.389947    1.087510
     12          6           0       -4.068563   -2.598408   -1.788551
     13          6           0       -5.538048   -2.759366   -1.541426
     14          1           0       -6.297121   -3.761453   -2.498568
     15          7           0        2.042219   -1.507699   -0.095732
     16          6           0        1.803472   -2.865054   -0.168777
     17          6           0        3.057888   -3.585608   -0.017312
     18          6           0        4.136348   -2.660095    0.067210
     19          6           0        3.449906   -1.318218   -0.009448
     20          6           0        3.190235   -5.118528   -0.118839
     21          6           0        5.638429   -2.906487    0.164899
     22          8           0        6.471122   -2.023586    0.142907
     23          6           0        6.305152   -4.342569    0.198586
     24          7           0        2.280383    1.553258    0.068515
     25          6           0        3.568026    1.247609    0.160366
     26          6           0        4.468037    2.526024    0.307835
     27          6           0        3.434823    3.697018    0.068102
     28          6           0        2.098439    2.898659   -0.009258
     29          6           0        5.268728    2.524802    1.642130
     30          6           0        3.785956    4.529617   -1.149033
     31          6           0        3.608133    6.033497   -0.947914
     32          7           0       -0.605791    1.633691   -0.039457
     33          6           0       -0.417857    3.002112   -0.074918
     34          6           0       -1.700290    3.612431    0.096500
     35          6           0       -2.677110    2.592174   -0.015857
     36          6           0       -1.969828    1.360128   -0.094531
     37          6           0       -1.960653    5.061923    0.259484
     38          6           0       -4.122255    2.325994   -0.122642
     39          8           0       -5.113318    3.037675    0.012266
     40          6           0       -4.220501    0.628680   -0.344293
     41          6           0       -5.034409    0.055861    0.682023
     42          8           0       -4.610682   -0.567459    1.631073
     43          8           0       -6.370404    0.190619    0.378826
     44          6           0       -7.255681   -0.340163    1.445248
     45          1           0        0.503810   -4.482738   -0.334368
     46          1           0        5.181645   -0.042380    0.215906
     47          1           0        1.028801    4.628200   -0.094323
     48          1           0       -3.779849   -2.425975    0.421538
     49          1           0       -2.009855   -4.184105   -1.022359
     50          1           0       -1.984837   -5.397957    0.800477
     51          1           0       -3.330510   -4.343237    1.394071
     52          1           0       -1.679851   -4.089212    1.942396
     53          1           0       -3.646458   -3.453794   -2.316220
     54          1           0       -3.949974   -1.689574   -2.378763
     55          1           0       -6.037771   -1.796983   -1.659434
     56          1           0       -5.585056   -3.079916   -0.501069
     57          1           0        3.756168   -5.291132   -1.033590
     58          1           0        2.208643   -5.545482   -0.325847
     59          1           0        3.715658   -5.606498    0.703025
     60          1           0        5.984079   -4.881337   -0.693549
     61          1           0        6.224944   -4.823455    1.173928
     62          1           0        7.374988   -4.141425    0.245446
     63          1           0        5.208087    2.630283   -0.485358
     64          1           0        3.416135    4.269443    0.995717
     65          1           0        5.109416    3.483028    2.137440
     66          1           0        6.324218    2.283720    1.513448
     67          1           0        4.883449    1.745931    2.298132
     68          1           0        3.220236    4.228774   -2.030216
     69          1           0        4.803670    4.382356   -1.513841
     70          1           0        3.088827    6.252400   -0.014849
     71          1           0        2.981118    6.377649   -1.770897
     72          1           0        4.543080    6.582683   -1.060243
     73          1           0       -1.098285    5.728430    0.269216
     74          1           0       -2.692264    5.147865    1.063794
     75          1           0       -2.343746    5.346197   -0.720874
     76          1           0       -4.662057    0.424799   -1.320190
     77          1           0       -7.068390    0.190216    2.379169
     78          1           0       -7.076992   -1.414943    1.476088
     79          1           0       -8.313008   -0.179624    1.238206
 ---------------------------------------------------------------------

 SCF Done:  E(RCAM-B3LYP) =  -2034.90597333     A.U. after   19 cycles

 Excitation energies and oscillator strengths:

 Excited State   1:      Singlet-A      1.7837 eV  695.10 nm  f=0.0000  <S**2>=0.000
     155 ->158         0.17662
     156 ->157         0.68527
     155 <-158         0.10149
 This state for optimization and/or second-order correction.
 Total Energy, E(TD-HF/TD-DFT) =  -2034.84042402
 Copying the excited state density for this state as the 1-particle RhoCI density.

 Excited State   2:      Singlet-A      2.2587 eV  548.93 nm  f=0.0000  <S**2>=0.000
     155 ->157         0.63970
     156 ->158        -0.28416

 Excited State   3:      Singlet-A      3.3903 eV  365.70 nm  f=0.0000  <S**2>=0.000
     152 ->157        -0.19243
     154 ->157         0.66590

 Excited State   4:      Singlet-A      3.5218 eV  352.05 nm  f=0.0000  <S**2>=0.000
     150 ->157         0.18040
     152 ->157         0.29767
     154 ->157         0.10605
     155 ->157         0.21142
     156 ->158         0.54765

 Excited State   5:      Singlet-A      3.5642 eV  347.86 nm  f=0.0000  <S**2>=0.000
     151 ->157         0.53975
     151 ->158        -0.15564
     151 ->159         0.31796
     151 ->160         0.18193
     156 ->158        -0.14265

 The electronic state is 1-A.
 Alpha  occ. eigenvalues --  -46.88228 -19.24327 -19.19879 -19.19381 -19.19219
 Alpha  occ. eigenvalues --  -14.42266 -14.41758 -14.40336 -14.38716 -10.38318
 Alpha  occ. eigenvalues --  -10.36397 -10.35990 -10.32514 -10.31972 -10.31266
 Alpha  occ. eigenvalues --  -10.31263 -10.31123 -10.30182 -10.30165 -10.29805
 Alpha  occ. eigenvalues --  -10.28860 -10.28703 -10.28650 -10.28491 -10.28021
 Alpha  occ. eigenvalues --  -10.27991 -10.27803 -10.27778 -10.27660 -10.27605
 Alpha  occ. eigenvalues --  -10.27360 -10.27120 -10.26902 -10.26773 -10.26716
 Alpha  occ. eigenvalues --  -10.26492 -10.26330 -10.26244 -10.25976 -10.25818
 Alpha  occ. eigenvalues --  -10.25285 -10.25140 -10.24872  -3.16758  -1.91666
 Alpha  occ. eigenvalues --   -1.91207  -1.91065  -1.15871  -1.11510  -1.09260
 Alpha  occ. eigenvalues --   -1.07429  -1.04083  -1.02465  -1.01960  -1.00938
 Alpha  occ. eigenvalues --   -0.91847  -0.89134  -0.88433  -0.88040  -0.87218
 Alpha  occ. eigenvalues --   -0.86891  -0.85606  -0.84377  -0.83638  -0.82504
 Alpha  occ. eigenvalues --   -0.81036  -0.80717  -0.80098  -0.78432  -0.76939
 Alpha  occ. eigenvalues --   -0.76452  -0.75762  -0.74717  -0.72243  -0.71300
 Alpha  occ. eigenvalues --   -0.69054  -0.68847  -0.67423  -0.67236  -0.65628
 Alpha  occ. eigenvalues --   -0.64800  -0.64586  -0.64351  -0.61145  -0.60035
 Alpha  occ. eigenvalues --   -0.59167  -0.58797  -0.58024  -0.57808  -0.57005
 Alpha  occ. eigenvalues --   -0.55945  -0.55766  -0.54737  -0.54242  -0.53695
 Alpha  occ. eigenvalues --   -0.53242  -0.53208  -0.53038  -0.52553  -0.52128
 Alpha  occ. eigenvalues --   -0.51696  -0.51410  -0.51018  -0.50914  -0.50588
 Alpha  occ. eigenvalues --   -0.50144  -0.49577  -0.49515  -0.49466  -0.48647
 Alpha  occ. eigenvalues --   -0.48544  -0.48066  -0.48004  -0.47735  -0.47494
 Alpha  occ. eigenvalues --   -0.46781  -0.46422  -0.46216  -0.45997  -0.45527
 Alpha  occ. eigenvalues --   -0.45142  -0.44846  -0.44678  -0.44470  -0.43994
 Alpha  occ. eigenvalues --   -0.43931  -0.43567  -0.43288  -0.43195  -0.42962
 Alpha  occ. eigenvalues --   -0.42408  -0.42294  -0.41995  -0.41507  -0.41174
 Alpha  occ. eigenvalues --   -0.40562  -0.40284  -0.40025  -0.39676  -0.39431
 Alpha  occ. eigenvalues --   -0.38685  -0.37662  -0.37173  -0.36865  -0.36246
 Alpha  occ. eigenvalues --   -0.35912  -0.34286  -0.33844  -0.33082  -0.31656
 Alpha  occ. eigenvalues --   -0.31481  -0.30645  -0.30229  -0.28658  -0.24063
 Alpha  occ. eigenvalues --   -0.21313
 Alpha virt. eigenvalues --   -0.08516  -0.01775   0.00045   0.02102   0.02964
 Alpha virt. eigenvalues --    0.04540   0.05399   0.05940   0.06753   0.08116
 Alpha virt. eigenvalues --    0.08670   0.09226   0.09463   0.09989   0.10216

 Mulliken charges:
               1
     1  Mg   0.806090
     2  C   -0.011261
     3  C   -0.131744
     4  C   -0.116182
     5  C   -0.080784
     6  N   -0.381020
     7  C    0.016123
     8  C   -0.010833
     9  C   -0.108183
    10  C    0.108462
    11  C    0.071948
    12  C    0.095678
    13  C   -0.079942
    14  H    0.013088
    15  N   -0.432201
    16  C    0.151909
    17  C   -0.206194
    18  C   -0.047169
    19  C    0.178936
    20  C    0.111895
    21  C   -0.020927
    22  O   -0.202139
    23  C    0.041514
    24  N   -0.296155
    25  C    0.044460
    26  C   -0.073905
    27  C   -0.008484
    28  C    0.080004
    29  C    0.066600
    30  C    0.047726
    31  C    0.000324
    32  N   -0.380016
    33  C    0.226819
    34  C   -0.148531
    35  C    0.008689
    36  C    0.210187
    37  C    0.136563
    38  C    0.069775
    39  O   -0.165534
    40  C   -0.090430
    41  C    0.201742
    42  O   -0.221869
    43  O   -0.341910
    44  C    0.191538
    45  H   -0.034773
    46  H   -0.007672
    47  H   -0.044760
    48  H    0.034190
    49  H    0.008066
    50  H    0.015438
    51  H    0.021232
    52  H    0.028718
    53  H    0.014852
    54  H    0.010103
    55  H    0.043767
    56  H    0.030182
    57  H    0.028325
    58  H    0.009679
    59  H    0.041886
    60  H    0.040908
    61  H    0.032728
    62  H    0.021187
    63  H    0.016056
    64  H    0.012366
    65  H    0.013233
    66  H    0.029020
    67  H    0.019754
    68  H    0.006335
    69  H    0.004653
    70  H    0.022252
    71  H    0.008790
    72  H    0.018165
    73  H   -0.003035
    74  H    0.048948
    75  H    0.025481
    76  H    0.051394
    77  H    0.042337
    78  H    0.032262
    79  H    0.033273
 Sum of Mulliken charges =  -0.00000

 Dipole moment (field-independent basis, Debye):
    X=             -1.3303    Y=              1.9914    Z=             -1.4579  Tot=              2.8037
 Quadrupole moment (field-independent basis, Debye-Ang):
   XX=           -278.5345   YY=           -227.9640   ZZ=           -256.7654
   XY=             26.4469   XZ=             -1.5789   YZ=             -0.4079

 Normal termination of Gaussian 16 at Fri Oct  8 19:46:36 2021.
