 Gaussian 16, Revision A.03,
 Gaussian 16:  ES64L-G16RevA.03 25-Dec-2016

 -----------------------------------------------------
 #p cam-b3lyp/Def2SVP td=(nstates=5) density=(current)
 -----------------------------------------------------

 --------------------------------
 TDDFT excited states in gaussian
 --------------------------------
 Symbolic Z-matrix:
 Charge =  0 Multiplicity = 1

                         Standard orientation:
 ---------------------------------------------------------------------
 Center     Atomic      Atomic             Coordinates (Angstroms)
 Number     Number       Type             X           Y           Z
 ---------------------------------------------------------------------
      1         12           0       -0.749939    0.246736   -0.012557
      2          6           0        2.825619   -0.019547   -0.263605
      3          6           0       -0.800715   -3.295571   -0.155272
      4          6           0       -4.240715    0.277709    0.086625
      5          6           0       -0.606229    3.573381   -0.282893
      6          7           0        0.918468   -1.462688   -0.405852
      7          6           0        2.257260   -1.296648   -0.347783
      8          6           0        2.977363   -2.677030   -0.557978
      9          6           0        1.735562   -3.623648   -0.726770
     10          6           0        0.508792   -2.771230   -0.328831
     11          6           0        1.639554   -4.229772   -2.170364
     12          6           0        3.873372   -3.078563    0.613435
     13          6           0        5.212120   -3.637906    0.259187
     14          1           0        6.198039   -3.967433    1.389352
     15          7           0       -2.284040   -1.234977    0.175090
     16          6           0       -2.078129   -2.607472    0.082943
     17          6           0       -3.357607   -3.266660    0.254394
     18          6           0       -4.338676   -2.304160    0.426052
     19          6           0       -3.648786   -0.998707    0.151771
     20          6           0       -3.584908   -4.743950    0.109278
     21          6           0       -5.903335   -2.434871    0.631401
     22          8           0       -6.705249   -1.544345    0.772856
     23          6           0       -6.491570   -3.812941    0.843883
     24          7           0       -2.206490    1.635979   -0.232853
     25          6           0       -3.568130    1.495793   -0.164480
     26          6           0       -4.309422    2.802754   -0.530802
     27          6           0       -3.165366    3.896340   -0.402051
     28          6           0       -1.901413    2.964571   -0.264629
     29          6           0       -5.020204    2.733227   -1.920231
     30          6           0       -3.332482    4.869160    0.804730
     31          6           0       -3.162760    4.243897    2.187499
     32          7           0        0.714541    1.548018   -0.255255
     33          6           0        0.656336    2.969217   -0.288395
     34          6           0        1.996326    3.534887   -0.428627
     35          6           0        2.847738    2.417097   -0.367431
     36          6           0        2.056138    1.243892   -0.251317
     37          6           0        2.325227    4.951760   -0.530159
     38          6           0        4.263165    2.063741   -0.404898
     39          8           0        5.243212    2.788938   -0.437739
     40          6           0        4.320833    0.442435   -0.429293
     41          6           0        5.263567    0.203138    0.752520
     42          8           0        5.030590    0.339685    1.967099
     43          8           0        6.454353   -0.129633    0.285522
     44          6           0        7.493822   -0.696694    1.237294
     45          1           0       -0.798463   -4.386870   -0.125158
     46          1           0       -5.327867    0.386638    0.107623
     47          1           0       -0.628758    4.664835   -0.292011
     48          1           0        3.629602   -2.508776   -1.414275
     49          1           0        1.756799   -4.447193   -0.011770
     50          1           0        1.592552   -5.317136   -2.229763
     51          1           0        2.356331   -3.810723   -2.876826
     52          1           0        0.704731   -4.054486   -2.703267
     53          1           0        3.411780   -4.019901    0.912148
     54          1           0        3.865115   -2.354691    1.429070
     55          1           0        5.834349   -3.134083   -0.482247
     56          1           0        4.961375   -4.597794   -0.192437
     57          1           0       -2.642202   -5.285819    0.037694
     58          1           0       -4.191362   -5.038261   -0.748696
     59          1           0       -4.081083   -5.229218    0.949929
     60          1           0       -6.078796   -4.309938    1.721717
     61          1           0       -6.260833   -4.294033   -0.106650
     62          1           0       -7.565599   -3.627480    0.829744
     63          1           0       -5.124400    2.845934    0.192584
     64          1           0       -2.850726    4.403072   -1.314637
     65          1           0       -6.106965    2.730992   -1.836690
     66          1           0       -4.715474    1.952178   -2.615914
     67          1           0       -4.665302    3.657066   -2.377390
     68          1           0       -4.208187    5.487089    0.605726
     69          1           0       -2.526483    5.600173    0.743118
     70          1           0       -3.051908    3.160393    2.210034
     71          1           0       -4.079995    4.479554    2.726599
     72          1           0       -2.253399    4.515728    2.722241
     73          1           0        3.387540    5.172219   -0.636915
     74          1           0        1.937464    5.396281    0.386349
     75          1           0        1.757583    5.360235   -1.367443
     76          1           0        4.869699    0.060393   -1.290025
     77          1           0        8.236132   -1.183847    0.604646
     78          1           0        7.097468   -1.483261    1.878695
     79          1           0        7.925832    0.050061    1.904509
 ---------------------------------------------------------------------

 SCF Done:  E(RCAM-B3LYP) =  -2034.89039340     A.U. after   16 cycles

 Excitation energies and oscillator strengths:

 Excited State   1:      Singlet-A      1.6510 eV  750.98 nm  f=0.3690  <S**2>=0.000
     155 ->158         0.18405
     156 ->157         0.68516
     155 <-158         0.11256
 This state for optimization and/or second-order correction.
 Total Energy, E(TD-HF/TD-DFT) =  -2034.82972164
 Copying the excited state density for this state as the 1-particle RhoCI density.

 Excited State   2:      Singlet-A      2.2173 eV  559.17 nm  f=0.0914  <S**2>=0.000
     155 ->157         0.62572
     156 ->158        -0.32043

 Excited State   3:      Singlet-A      3.4401 eV  360.41 nm  f=0.5454  <S**2>=0.000
     152 ->157         0.13058
     153 ->157         0.25241
     155 ->157         0.27185
     156 ->158         0.57308
     155 <-157        -0.10545

 Excited State   4:      Singlet-A      3.4614 eV  358.19 nm  f=0.0161  <S**2>=0.000
     153 ->157        -0.10372
     154 ->157         0.67200

 Excited State   5:      Singlet-A      3.6112 eV  343.33 nm  f=0.0237  <S**2>=0.000
     150 ->157        -0.12929
     151 ->157        -0.25762
     151 ->159         0.14999
     152 ->157         0.48377
     152 ->159        -0.25321
     152 ->160         0.15541
     153 ->157        -0.11113

 The electronic state is 1-A.
 Alpha  occ. eigenvalues --  -46.88290 -19.24937 -19.19513 -19.19361 -19.17997
 Alpha  occ. eigenvalues --  -14.42456 -14.41547 -14.40101 -14.39675 -10.38461
 Alpha  occ. eigenvalues --  -10.35588 -10.35388 -10.32201 -10.31401 -10.31368
 Alpha  occ. eigenvalues --  -10.31235 -10.31084 -10.31036 -10.30625 -10.29999
 Alpha  occ. eigenvalues --  -10.29910 -10.28865 -10.28773 -10.28739 -10.28595
 Alpha  occ. eigenvalues --  -10.28412 -10.28408 -10.28364 -10.28355 -10.28285
 Alpha  occ. eigenvalues --  -10.28135 -10.27530 -10.27283 -10.26887 -10.26831
 Alpha  occ. eigenvalues --  -10.26612 -10.26219 -10.26092 -10.26067 -10.26015
 Alpha  occ. eigenvalues --  -10.25707 -10.25418 -10.25398  -3.16981  -1.91867
 Alpha  occ. eigenvalues --   -1.91453  -1.91286  -1.15939  -1.11451  -1.10032
 Alpha  occ. eigenvalues --   -1.05281  -1.03786  -1.03124  -1.02214  -1.01699
 Alpha  occ. eigenvalues --   -0.90860  -0.89251  -0.88746  -0.87993  -0.87352
 Alpha  occ. eigenvalues --   -0.86952  -0.86446  -0.84118  -0.83579  -0.82363
 Alpha  occ. eigenvalues --   -0.81505  -0.81026  -0.80163  -0.78131  -0.77301
 Alpha  occ. eigenvalues --   -0.76952  -0.75975  -0.75123  -0.72591  -0.71644
 Alpha  occ. eigenvalues --   -0.70064  -0.68749  -0.67534  -0.66275  -0.65477
 Alpha  occ. eigenvalues --   -0.65116  -0.64566  -0.64054  -0.61775  -0.59592
 Alpha  occ. eigenvalues --   -0.59276  -0.58937  -0.57701  -0.57360  -0.56237
 Alpha  occ. eigenvalues --   -0.55640  -0.55488  -0.55022  -0.54663  -0.53962
 Alpha  occ. eigenvalues --   -0.53328  -0.53212  -0.52891  -0.52716  -0.52423
 Alpha  occ. eigenvalues --   -0.52117  -0.51517  -0.50964  -0.50890  -0.50109
 Alpha  occ. eigenvalues --   -0.49797  -0.49603  -0.49286  -0.49224  -0.48949
 Alpha  occ. eigenvalues --   -0.48650  -0.48435  -0.48130  -0.47519  -0.47449
 Alpha  occ. eigenvalues --   -0.46723  -0.46652  -0.46338  -0.46182  -0.45827
 Alpha  occ. eigenvalues --   -0.45500  -0.45235  -0.44909  -0.44409  -0.44157
 Alpha  occ. eigenvalues --   -0.43964  -0.43638  -0.43527  -0.43153  -0.42987
 Alpha  occ. eigenvalues --   -0.42965  -0.42495  -0.42143  -0.41811  -0.41405
 Alpha  occ. eigenvalues --   -0.40908  -0.40363  -0.40184  -0.39578  -0.39198
 Alpha  occ. eigenvalues --   -0.38630  -0.38046  -0.37517  -0.36620  -0.36053
 Alpha  occ. eigenvalues --   -0.35633  -0.33902  -0.33123  -0.32724  -0.31436
 Alpha  occ. eigenvalues --   -0.30983  -0.30795  -0.30353  -0.29979  -0.24104
 Alpha  occ. eigenvalues --   -0.20954
 Alpha virt. eigenvalues --   -0.08696  -0.02029   0.00658   0.02394   0.03414
 Alpha virt. eigenvalues --    0.05158   0.05269   0.06291   0.06398   0.07884
 Alpha virt. eigenvalues --    0.08555   0.08881   0.09406   0.10128   0.10298

 Mulliken charges:
               1
     1  Mg   0.835567
     2  C    0.035019
     3  C   -0.065658
     4  C   -0.057097
     5  C   -0.106972
     6  N   -0.260606
     7  C   -0.039996
     8  C   -0.043940
     9  C   -0.034335
    10  C    0.035904
    11  C    0.062302
    12  C    0.091974
    13  C   -0.097768
    14  H    0.017038
    15  N   -0.372646
    16  C    0.163861
    17  C   -0.136169
    18  C   -0.049756
    19  C    0.120103
    20  C    0.101688
    21  C    0.004455
    22  O   -0.189392
    23  C    0.056480
    24  N   -0.334620
    25  C    0.032442
    26  C   -0.036066
    27  C   -0.032228
    28  C    0.054803
    29  C    0.075195
    30  C    0.042098
    31  C    0.002331
    32  N   -0.438540
    33  C    0.158654
    34  C   -0.153349
    35  C    0.009146
    36  C    0.132593
    37  C    0.129422
    38  C    0.050528
    39  O   -0.166409
    40  C   -0.065360
    41  C    0.185785
    42  O   -0.259766
    43  O   -0.310106
    44  C    0.186914
    45  H   -0.028442
    46  H   -0.006339
    47  H   -0.031418
    48  H    0.017597
    49  H    0.012199
    50  H    0.012235
    51  H    0.016901
    52  H    0.006169
    53  H    0.000398
    54  H    0.047250
    55  H    0.027601
    56  H    0.015957
    57  H   -0.003281
    58  H    0.031731
    59  H    0.014698
    60  H    0.053490
    61  H    0.013019
    62  H    0.024567
    63  H    0.018718
    64  H    0.020571
    65  H    0.028594
    66  H    0.027991
    67  H    0.004169
    68  H    0.015660
    69  H    0.000448
    70  H    0.022467
    71  H    0.024281
    72  H    0.021352
    73  H    0.041133
    74  H    0.028775
    75  H    0.021311
    76  H    0.036218
    77  H    0.039158
    78  H    0.037206
    79  H    0.054091
 Sum of Mulliken charges =  -0.00000

 Dipole moment (field-independent basis, Debye):
    X=             -1.6946    Y=             -2.4119    Z=             -2.2291  Tot=              3.6957
 Quadrupole moment (field-independent basis, Debye-Ang):
   XX=           -273.8413   YY=           -223.6368   ZZ=           -260.8543
   XY=            -26.5586   XZ=              2.1823   YZ=              0.6470

 Normal termination of Gaussian 16 at Fri Oct  8 13:47:34 2021.
