 Gaussian 16, Revision A.03,
 Gaussian 16:  ES64L-G16RevA.03 25-Dec-2016

 -----------------------------------
 #p cam-b3lyp/Def2SVP td=(nstates=5)
 -----------------------------------

 --------------------------------
 TDDFT excited states in gaussian
 --------------------------------
 Symbolic Z-matrix:
 Charge =  0 Multiplicity = 1

                         Standard orientation:
 ---------------------------------------------------------------------
 Center     Atomic      Atomic             Coordinates (Angstroms)
 Number     Number       Type             X           Y           Z
 ---------------------------------------------------------------------
      1         12           0      -16.270695    0.597152    0.230734
      2          6           0      -15.856760   -2.237254   -1.666269
      3          6           0      -13.892028    2.216380   -1.862031
      4          6           0      -16.155006    3.271407    2.295835
      5          6           0      -18.252892   -1.031210    2.391747
      6          7           0      -15.013922    0.036577   -1.564377
      7          6           0      -15.032279   -1.208736   -2.132903
      8          6           0      -14.166619   -1.250354   -3.394188
      9          6           0      -13.410516    0.153227   -3.281802
     10          6           0      -14.137745    0.853732   -2.171579
     11          6           0      -11.853404    0.033279   -3.095490
     12          6           0      -15.007689   -1.382070   -4.745125
     13          6           0      -14.605815   -2.308521   -5.867433
     14          1           0      -13.185898   -2.309097   -6.310599
     15          7           0      -15.215411    2.536795    0.218939
     16          6           0      -14.463326    3.053638   -0.777522
     17          6           0      -14.162273    4.426490   -0.544940
     18          6           0      -14.843398    4.782119    0.661807
     19          6           0      -15.382784    3.472877    1.136451
     20          6           0      -13.250081    5.130714   -1.496777
     21          6           0      -14.816588    6.100430    1.416305
     22          8           0      -15.211637    6.203693    2.581789
     23          6           0      -14.272292    7.352056    0.750420
     24          7           0      -16.977143    1.020284    2.194882
     25          6           0      -16.903901    2.250233    2.768363
     26          6           0      -17.767336    2.311326    4.027242
     27          6           0      -18.577526    0.962388    3.939302
     28          6           0      -17.909449    0.268090    2.768925
     29          6           0      -17.141203    2.602792    5.423021
     30          6           0      -20.155116    1.082864    3.833925
     31          6           0      -20.833707    1.107916    2.480694
     32          7           0      -16.856420   -1.252188    0.429269
     33          6           0      -17.788957   -1.812439    1.264955
     34          6           0      -17.996707   -3.195002    1.031320
     35          6           0      -17.293634   -3.407448   -0.150385
     36          6           0      -16.639623   -2.193826   -0.485017
     37          6           0      -18.845769   -4.253733    1.722785
     38          6           0      -16.929184   -4.343825   -1.121214
     39          8           0      -17.210159   -5.527284   -1.168409
     40          6           0      -15.922643   -3.655481   -2.203707
     41          6           0      -14.660909   -4.384523   -2.166614
     42          8           0      -13.876113   -4.439994   -1.199142
     43          8           0      -14.404782   -5.080828   -3.305652
     44          6           0      -13.347627   -6.098170   -3.291702
     45          1           0      -13.221792    2.630500   -2.617678
     46          1           0      -16.364016    4.202654    2.826058
     47          1           0      -19.148435   -1.470874    2.834113
     48          1           0      -13.542524   -2.143947   -3.352603
     49          1           0      -13.501050    0.728332   -4.203455
     50          1           0      -11.380601    0.546576   -3.932095
     51          1           0      -11.670199   -1.038118   -3.012147
     52          1           0      -11.442704    0.575035   -2.242936
     53          1           0      -14.980564   -0.354759   -5.108864
     54          1           0      -16.072510   -1.475253   -4.534271
     55          1           0      -15.284814   -2.187338   -6.711427
     56          1           0      -14.720535   -3.314380   -5.465084
     57          1           0      -13.732922    6.088827   -1.685600
     58          1           0      -13.214085    4.611231   -2.454670
     59          1           0      -12.225312    5.286723   -1.157994
     60          1           0      -14.587410    7.476446   -0.286017
     61          1           0      -13.205551    7.443587    0.959389
     62          1           0      -14.753699    8.168467    1.289620
     63          1           0      -18.365201    3.209091    3.868696
     64          1           0      -18.528423    0.380353    4.858821
     65          1           0      -17.163721    1.705692    6.041565
     66          1           0      -17.769579    3.364576    5.884162
     67          1           0      -16.128892    2.952649    5.223722
     68          1           0      -20.428010    2.000248    4.353721
     69          1           0      -20.623382    0.252090    4.362275
     70          1           0      -21.505391    1.960693    2.379357
     71          1           0      -21.400569    0.202586    2.259529
     72          1           0      -20.016979    1.186350    1.763103
     73          1           0      -19.402141   -3.787662    2.536910
     74          1           0      -18.196243   -5.048190    2.091146
     75          1           0      -19.536215   -4.673495    0.991763
     76          1           0      -16.447502   -3.894348   -3.129130
     77          1           0      -13.462029   -6.868305   -4.054653
     78          1           0      -13.125961   -6.532739   -2.317426
     79          1           0      -12.461579   -5.582648   -3.662511
     80         12           0       16.112916    0.437082   -0.670084
     81          6           0       15.375426   -2.798700    0.830174
     82          6           0       12.726782    0.871162   -1.037834
     83          6           0       16.607906    3.743682   -0.608526
     84          6           0       19.431213   -0.223242   -0.355089
     85          7           0       14.252785   -0.781341    0.038694
     86          6           0       14.210395   -2.122040    0.566576
     87          6           0       12.764545   -2.626222    0.556826
     88          6           0       12.010585   -1.623304   -0.365423
     89          6           0       13.022383   -0.403366   -0.513445
     90          6           0       11.645611   -2.224128   -1.804691
     91          6           0       12.136003   -2.936410    1.883885
     92          6           0       12.811095   -2.353300    3.147737
     93          1           0       12.313343   -2.476994    4.599425
     94          7           0       14.838157    2.104299   -0.947137
     95          6           0       13.466163    2.061338   -1.061023
     96          6           0       12.980008    3.448701   -1.339578
     97          6           0       14.092604    4.249496   -1.094574
     98          6           0       15.257138    3.413459   -0.812653
     99          6           0       11.549029    3.709360   -1.651861
    100          6           0       14.076845    5.805855   -1.107677
    101          8           0       13.003754    6.362345   -1.258936
    102          6           0       15.255325    6.668836   -0.799655
    103          7           0       17.808659    1.546607   -0.340797
    104          6           0       17.736950    2.927633   -0.519752
    105          6           0       19.131403    3.554014   -0.513981
    106          6           0       20.066448    2.310583   -0.737224
    107          6           0       19.075116    1.166154   -0.514793
    108          6           0       19.434950    4.693315   -1.520729
    109          6           0       21.336663    2.233249    0.169220
    110          6           0       22.728572    2.540622   -0.550801
    111          7           0       17.238402   -1.196860    0.000963
    112          6           0       18.618575   -1.336372   -0.014159
    113          6           0       18.957662   -2.697899    0.319649
    114          6           0       17.723583   -3.228916    0.718695
    115          6           0       16.716882   -2.262564    0.473756
    116          6           0       20.399963   -3.230939    0.371198
    117          6           0       17.051875   -4.400887    1.190396
    118          8           0       17.598635   -5.498053    1.422109
    119          6           0       15.465916   -4.255628    1.162335
    120          6           0       15.036756   -4.669299    2.513197
    121          8           0       15.504427   -4.279843    3.588425
    122          8           0       13.948677   -5.460252    2.346007
    123          6           0       13.443496   -6.160394    3.568413
    124          1           0       11.649320    1.014536   -1.137981
    125          1           0       16.755187    4.825933   -0.604319
    126          1           0       20.499796   -0.444613   -0.384091
    127          1           0       12.945244   -3.548310    0.004319
    128          1           0       11.154523   -1.157114    0.122674
    129          1           0       10.557984   -2.279030   -1.780547
    130          1           0       12.146925   -3.183534   -1.934695
    131          1           0       11.964677   -1.469662   -2.524653
    132          1           0       12.022737   -4.019872    1.916290
    133          1           0       11.140816   -2.514632    1.739205
    134          1           0       12.905393   -1.286820    2.940790
    135          1           0       13.813294   -2.769950    3.250209
    136          1           0       11.150429    4.247723   -0.792482
    137          1           0       11.055287    2.750303   -1.805543
    138          1           0       11.478832    4.258347   -2.591551
    139          1           0       15.670690    6.633318    0.206756
    140          1           0       15.023846    7.732032   -0.856856
    141          1           0       15.925818    6.381683   -1.609525
    142          1           0       19.105803    3.923814    0.511707
    143          1           0       20.313215    2.344285   -1.798621
    144          1           0       19.384782    5.689123   -1.079164
    145          1           0       18.678561    4.696818   -2.304854
    146          1           0       20.403275    4.477942   -1.973780
    147          1           0       21.457630    1.283580    0.691118
    148          1           0       21.132123    2.949276    0.965289
    149          1           0       23.219364    3.184487    0.178606
    150          1           0       22.647448    3.042584   -1.515053
    151          1           0       23.188069    1.576789   -0.766947
    152          1           0       20.511696   -4.293965    0.156535
    153          1           0       20.641577   -3.056522    1.419114
    154          1           0       20.997677   -2.776120   -0.418422
    155          1           0       15.061891   -4.886656    0.369346
    156          1           0       12.567872   -6.754893    3.305439
    157          1           0       13.138683   -5.446825    4.334161
    158          1           0       14.303298   -6.766205    3.851005
 ---------------------------------------------------------------------

 SCF Done:  E(RCAM-B3LYP) =  -4069.79855238     A.U. after   19 cycles

 Excitation energies and oscillator strengths:

 Excited State   1:      Singlet-A      1.6560 eV  748.69 nm  f=0.3526  <S**2>=0.000
     309 -> 315       -0.15656
     312 -> 314        0.69055
     309 <- 315       -0.10156
 This state for optimization and/or second-order correction.
 Total Energy, E(TD-HF/TD-DFT) =  -4069.73769496
 Copying the excited state density for this state as the 1-particle RhoCI density.

 Excited State   2:      Singlet-A      1.7200 eV  720.84 nm  f=0.4211  <S**2>=0.000
     310 -> 316       -0.17811
     311 -> 313        0.68641
     310 <- 316       -0.10693

 Excited State   3:      Singlet-A      2.1905 eV  566.01 nm  f=0.1750  <S**2>=0.000
     310 -> 313        0.66247
     311 -> 316        0.23747

 Excited State   4:      Singlet-A      2.2758 eV  544.78 nm  f=0.0763  <S**2>=0.000
     309 -> 314        0.61915
     312 -> 315        0.32529

 Excited State   5:      Singlet-A      2.8833 eV  430.01 nm  f=0.0000  <S**2>=0.000
     312 -> 313        0.70710

 The electronic state is 1-A.
 Alpha  occ. eigenvalues --  -46.89309 -46.89125 -19.25358 -19.25103 -19.19420
 Alpha  occ. eigenvalues --  -19.19085 -19.18888 -19.18617 -19.18555 -19.17077
 Alpha  occ. eigenvalues --  -14.42474 -14.42153 -14.41559 -14.41550 -14.39731
 Alpha  occ. eigenvalues --  -14.39597 -14.39519 -14.38746 -10.39133 -10.38966
 Alpha  occ. eigenvalues --  -10.35511 -10.35378 -10.34545 -10.33536 -10.32121
 Alpha  occ. eigenvalues --  -10.31937 -10.31657 -10.31653 -10.31093 -10.31010
 Alpha  occ. eigenvalues --  -10.30895 -10.30879 -10.30816 -10.30504 -10.30444
 Alpha  occ. eigenvalues --  -10.30145 -10.30091 -10.30070 -10.29900 -10.29028
 Alpha  occ. eigenvalues --  -10.29013 -10.28841 -10.28718 -10.28604 -10.28522
 Alpha  occ. eigenvalues --  -10.28482 -10.28477 -10.28398 -10.28375 -10.28294
 Alpha  occ. eigenvalues --  -10.28024 -10.28022 -10.27993 -10.27879 -10.27861
 Alpha  occ. eigenvalues --  -10.27701 -10.27679 -10.27637 -10.27614 -10.27552
 Alpha  occ. eigenvalues --  -10.27515 -10.27475 -10.27330 -10.27304 -10.27241
 Alpha  occ. eigenvalues --  -10.27172 -10.27126 -10.26930 -10.26929 -10.26896
 Alpha  occ. eigenvalues --  -10.26889 -10.26796 -10.26623 -10.26435 -10.26397
 Alpha  occ. eigenvalues --  -10.26267 -10.26246 -10.26192 -10.26089 -10.26036
 Alpha  occ. eigenvalues --  -10.25939 -10.25725 -10.25224 -10.25055 -10.24639
 Alpha  occ. eigenvalues --  -10.23981  -3.17797  -3.17734  -1.92670  -1.92616
 Alpha  occ. eigenvalues --   -1.92274  -1.92149  -1.92083  -1.92079  -1.16078
 Alpha  occ. eigenvalues --   -1.15886  -1.10695  -1.09910  -1.09473  -1.07479
 Alpha  occ. eigenvalues --   -1.06678  -1.05879  -1.05393  -1.04842  -1.04660
 Alpha  occ. eigenvalues --   -1.04173  -1.04026  -1.03499  -1.02826  -1.00354
 Alpha  occ. eigenvalues --   -0.92634  -0.91938  -0.89351  -0.89039  -0.88976
 Alpha  occ. eigenvalues --   -0.88609  -0.88275  -0.88221  -0.87801  -0.87436
 Alpha  occ. eigenvalues --   -0.86827  -0.86653  -0.86442  -0.86089  -0.84378
 Alpha  occ. eigenvalues --   -0.84305  -0.83785  -0.83702  -0.82737  -0.82703
 Alpha  occ. eigenvalues --   -0.82354  -0.81859  -0.81187  -0.80966  -0.80342
 Alpha  occ. eigenvalues --   -0.80170  -0.78408  -0.78027  -0.77760  -0.77497
 Alpha  occ. eigenvalues --   -0.77122  -0.76490  -0.76274  -0.76001  -0.75513
 Alpha  occ. eigenvalues --   -0.75251  -0.73562  -0.73034  -0.71684  -0.71566
 Alpha  occ. eigenvalues --   -0.69651  -0.69641  -0.69234  -0.69013  -0.68151
 Alpha  occ. eigenvalues --   -0.67609  -0.67149  -0.66914  -0.66191  -0.65657
 Alpha  occ. eigenvalues --   -0.65370  -0.65141  -0.64788  -0.64666  -0.64231
 Alpha  occ. eigenvalues --   -0.63542  -0.62267  -0.62118  -0.60198  -0.59856
 Alpha  occ. eigenvalues --   -0.59630  -0.59121  -0.59089  -0.59048  -0.58317
 Alpha  occ. eigenvalues --   -0.58024  -0.57934  -0.57503  -0.57311  -0.57200
 Alpha  occ. eigenvalues --   -0.56775  -0.56279  -0.56263  -0.55429  -0.55175
 Alpha  occ. eigenvalues --   -0.55001  -0.54897  -0.54571  -0.54242  -0.54098
 Alpha  occ. eigenvalues --   -0.53668  -0.53463  -0.53324  -0.53151  -0.52861
 Alpha  occ. eigenvalues --   -0.52809  -0.52613  -0.52551  -0.52295  -0.52242
 Alpha  occ. eigenvalues --   -0.52106  -0.51836  -0.51458  -0.51384  -0.51210
 Alpha  occ. eigenvalues --   -0.51047  -0.50778  -0.50652  -0.50584  -0.50294
 Alpha  occ. eigenvalues --   -0.49978  -0.49861  -0.49662  -0.49559  -0.49539
 Alpha  occ. eigenvalues --   -0.49254  -0.49113  -0.48947  -0.48819  -0.48780
 Alpha  occ. eigenvalues --   -0.48779  -0.48584  -0.48348  -0.48232  -0.48117
 Alpha  occ. eigenvalues --   -0.47846  -0.47758  -0.47608  -0.47565  -0.47164
 Alpha  occ. eigenvalues --   -0.47155  -0.46911  -0.46874  -0.46797  -0.46547
 Alpha  occ. eigenvalues --   -0.46543  -0.46237  -0.46188  -0.45977  -0.45908
 Alpha  occ. eigenvalues --   -0.45716  -0.45463  -0.45337  -0.45189  -0.45012
 Alpha  occ. eigenvalues --   -0.44954  -0.44508  -0.44446  -0.43991  -0.43962
 Alpha  occ. eigenvalues --   -0.43945  -0.43943  -0.43644  -0.43480  -0.43418
 Alpha  occ. eigenvalues --   -0.43392  -0.43232  -0.42985  -0.42828  -0.42733
 Alpha  occ. eigenvalues --   -0.42560  -0.42283  -0.42251  -0.42123  -0.41926
 Alpha  occ. eigenvalues --   -0.41900  -0.41844  -0.41745  -0.41542  -0.41341
 Alpha  occ. eigenvalues --   -0.41135  -0.41077  -0.40765  -0.40644  -0.40007
 Alpha  occ. eigenvalues --   -0.39921  -0.39854  -0.39546  -0.39351  -0.39087
 Alpha  occ. eigenvalues --   -0.38530  -0.38503  -0.38253  -0.37409  -0.37365
 Alpha  occ. eigenvalues --   -0.37098  -0.36629  -0.36578  -0.36345  -0.36050
 Alpha  occ. eigenvalues --   -0.35834  -0.35696  -0.34574  -0.34375  -0.33827
 Alpha  occ. eigenvalues --   -0.33464  -0.32902  -0.32694  -0.31530  -0.31353
 Alpha  occ. eigenvalues --   -0.31238  -0.31179  -0.30909  -0.30438  -0.30112
 Alpha  occ. eigenvalues --   -0.30109  -0.29434  -0.29234  -0.24456  -0.23854
 Alpha  occ. eigenvalues --   -0.21485  -0.20757
 Alpha virt. eigenvalues --   -0.09104  -0.08589  -0.01796  -0.01211   0.00208
 Alpha virt. eigenvalues --    0.00921   0.01465   0.01827   0.02456   0.02495
 Alpha virt. eigenvalues --    0.04736   0.04888   0.05405   0.06115   0.06131

 Mulliken charges:
               1
     1  Mg   0.838592
     2  C    0.011592
     3  C   -0.053571
     4  C   -0.054103
     5  C   -0.074692
     6  N   -0.259019
     7  C   -0.044621
     8  C   -0.039948
     9  C   -0.067773
    10  C    0.025088
    11  C    0.071341
    12  C    0.050793
    13  C   -0.046886
    14  H    0.016554
    15  N   -0.276134
    16  C    0.108845
    17  C   -0.140179
    18  C   -0.038863
    19  C    0.073805
    20  C    0.126617
    21  C   -0.001522
    22  O   -0.216437
    23  C    0.046146
    24  N   -0.278508
    25  C    0.028278
    26  C   -0.031845
    27  C    0.005459
    28  C    0.043841
    29  C    0.083012
    30  C   -0.011474
    31  C    0.012519
    32  N   -0.385135
    33  C    0.091404
    34  C   -0.180230
    35  C    0.092692
    36  C    0.102440
    37  C    0.138699
    38  C   -0.042513
    39  O   -0.171699
    40  C    0.016086
    41  C    0.193098
    42  O   -0.252925
    43  O   -0.327419
    44  C    0.186395
    45  H   -0.035472
    46  H   -0.008313
    47  H   -0.023960
    48  H    0.024546
    49  H    0.018088
    50  H    0.010003
    51  H    0.028574
    52  H    0.019047
    53  H   -0.011560
    54  H    0.007835
    55  H    0.032249
    56  H    0.033344
    57  H    0.009184
    58  H    0.014662
    59  H    0.039617
    60  H    0.033210
    61  H    0.047655
    62  H    0.024877
    63  H    0.009836
    64  H    0.009952
    65  H    0.015188
    66  H    0.018562
    67  H    0.029854
    68  H    0.004432
    69  H    0.004811
    70  H    0.014820
    71  H    0.015390
    72  H    0.016046
    73  H    0.004420
    74  H    0.043826
    75  H    0.038564
    76  H    0.030555
    77  H    0.035050
    78  H    0.058259
    79  H    0.019045
    80  Mg   0.820290
    81  C   -0.030326
    82  C   -0.063605
    83  C   -0.071106
    84  C   -0.075637
    85  N   -0.309259
    86  C   -0.098344
    87  C    0.032382
    88  C   -0.088958
    89  C    0.018013
    90  C    0.083155
    91  C    0.077546
    92  C   -0.047021
    93  H    0.019894
    94  N   -0.391638
    95  C    0.125440
    96  C   -0.145368
    97  C   -0.034507
    98  C    0.142924
    99  C    0.154415
   100  C   -0.013517
   101  O   -0.198172
   102  C    0.066676
   103  N   -0.314441
   104  C    0.069812
   105  C   -0.078983
   106  C    0.038573
   107  C   -0.001219
   108  C    0.080947
   109  C    0.022890
   110  C   -0.006874
   111  N   -0.284796
   112  C    0.084278
   113  C   -0.172564
   114  C    0.043301
   115  C    0.082288
   116  C    0.114719
   117  C    0.003105
   118  O   -0.216367
   119  C    0.045254
   120  C    0.197740
   121  O   -0.231844
   122  O   -0.339265
   123  C    0.180665
   124  H   -0.019410
   125  H   -0.063804
   126  H   -0.033483
   127  H    0.001494
   128  H    0.014783
   129  H    0.026237
   130  H    0.029011
   131  H    0.019887
   132  H    0.006757
   133  H   -0.007969
   134  H    0.024273
   135  H    0.048659
   136  H    0.049567
   137  H   -0.000667
   138  H    0.036156
   139  H    0.054931
   140  H    0.021070
   141  H    0.037881
   142  H    0.025859
   143  H    0.005538
   144  H    0.018944
   145  H    0.015406
   146  H    0.020805
   147  H    0.021168
   148  H   -0.000047
   149  H    0.029359
   150  H    0.015063
   151  H    0.025949
   152  H    0.027735
   153  H    0.049133
   154  H    0.018918
   155  H    0.043785
   156  H    0.041349
   157  H    0.050569
   158  H    0.054600
 Sum of Mulliken charges =  -0.00000

 Dipole moment (field-independent basis, Debye):
    X=             -0.5149    Y=              5.7247    Z=             -6.5893  Tot=              8.7439
 Quadrupole moment (field-independent basis, Debye-Ang):
   XX=           -447.3753   YY=           -542.5223   ZZ=           -504.2951
   XY=             33.0962   XZ=            -39.8496   YZ=             -2.2534

 Normal termination of Gaussian 16 at Fri Sep  3 02:47:07 2021.
