 Gaussian 16, Revision A.03,
 Gaussian 16:  ES64L-G16RevA.03 25-Dec-2016

 ----------------------------------------------------------
 #p cam-b3lyp/Def2SVP td=(nstates=5) density=(transition=1)
 ----------------------------------------------------------

 --------------------------------
 TDDFT excited states in gaussian
 --------------------------------
 Symbolic Z-matrix:
 Charge =  0 Multiplicity = 1

                         Standard orientation:
 ---------------------------------------------------------------------
 Center     Atomic      Atomic             Coordinates (Angstroms)
 Number     Number       Type             X           Y           Z
 ---------------------------------------------------------------------
      1         12           0       16.313751    0.621978   -0.063308
      2          6           0       15.176962   -2.331623    1.421985
      3          6           0       13.706614    2.271891    1.481799
      4          6           0       16.935972    3.355286   -2.010852
      5          6           0       18.440769   -1.274681   -2.030910
      6          7           0       14.744768    0.012559    1.334451
      7          6           0       14.620147   -1.170442    1.949506
      8          6           0       13.660627   -1.172255    3.148550
      9          6           0       13.039807    0.273964    3.051386
     10          6           0       13.954362    0.993031    1.910484
     11          6           0       11.532152    0.376154    2.734799
     12          6           0       14.319951   -1.483187    4.492403
     13          6           0       13.350946   -2.100768    5.516952
     14          1           0       11.881284   -2.313430    5.127381
     15          7           0       15.537642    2.576970   -0.180644
     16          6           0       14.482740    3.100281    0.602106
     17          6           0       14.309806    4.497029    0.256835
     18          6           0       15.211892    4.823113   -0.823548
     19          6           0       15.969992    3.590108   -1.030009
     20          6           0       13.376872    5.379011    1.040171
     21          6           0       15.507622    6.216279   -1.540474
     22          8           0       16.395132    6.384382   -2.341199
     23          6           0       14.588982    7.363625   -1.180263
     24          7           0       17.431510    0.961974   -1.816385
     25          6           0       17.577890    2.174345   -2.424514
     26          6           0       18.589047    2.119628   -3.628367
     27          6           0       19.075094    0.673757   -3.542422
     28          6           0       18.261622    0.092986   -2.401114
     29          6           0       18.177616    2.605059   -5.076569
     30          6           0       20.596522    0.609242   -3.271485
     31          6           0       21.103454    0.761495   -1.820194
     32          7           0       16.895511   -1.383961   -0.223305
     33          6           0       17.771574   -2.017309   -1.066248
     34          6           0       17.829724   -3.414772   -0.795980
     35          6           0       16.784203   -3.615069    0.213460
     36          6           0       16.276865   -2.401919    0.473760
     37          6           0       18.657120   -4.482529   -1.361805
     38          6           0       16.016575   -4.602572    0.959494
     39          8           0       16.185380   -5.821639    1.069917
     40          6           0       14.941116   -3.840649    1.788630
     41          6           0       13.594040   -4.306148    1.475068
     42          8           0       12.938297   -4.004536    0.483466
     43          8           0       13.253520   -5.313977    2.342041
     44          6           0       12.147900   -6.230074    2.000798
     45          1           0       12.842347    2.703317    1.991489
     46          1           0       17.271829    4.264886   -2.513070
     47          1           0       19.179076   -1.861389   -2.581414
     48          1           0       12.809120   -1.831085    2.979826
     49          1           0       13.271096    0.902669    3.910490
     50          1           0       11.205389    1.014474    3.555505
     51          1           0       11.059399   -0.604138    2.790162
     52          1           0       11.377820    0.800225    1.742531
     53          1           0       14.791559   -0.604276    4.930288
     54          1           0       15.136407   -2.192584    4.354653
     55          1           0       13.441897   -1.383185    6.332630
     56          1           0       13.746115   -3.022353    5.946683
     57          1           0       12.807962    4.703737    1.679374
     58          1           0       12.734258    5.921238    0.346203
     59          1           0       13.898526    6.126259    1.640048
     60          1           0       13.585766    7.350137   -1.607506
     61          1           0       15.106580    8.290816   -1.426228
     62          1           0       14.537338    7.273354   -0.095291
     63          1           0       19.341263    2.832345   -3.291041
     64          1           0       18.831660    0.212137   -4.498687
     65          1           0       18.428924    1.911143   -5.877841
     66          1           0       18.737684    3.512822   -5.298788
     67          1           0       17.118340    2.862310   -5.049289
     68          1           0       21.032735    1.379384   -3.906493
     69          1           0       20.906817   -0.353624   -3.678389
     70          1           0       21.984486    1.396948   -1.906412
     71          1           0       21.433806   -0.177773   -1.377231
     72          1           0       20.357901    1.137668   -1.120548
     73          1           0       18.970942   -5.125873   -0.540521
     74          1           0       19.535750   -4.154147   -1.917114
     75          1           0       18.037098   -5.160722   -1.948367
     76          1           0       15.222460   -4.034463    2.823598
     77          1           0       11.656804   -5.953270    1.067248
     78          1           0       11.403943   -6.159850    2.794713
     79          1           0       12.680536   -7.178476    1.940012
     80         12           0      -16.070157    0.465568    0.352040
     81          6           0      -15.271637   -2.618503   -1.042334
     82          6           0      -12.891543    0.539373    1.735749
     83          6           0      -16.484151    3.613705    1.270218
     84          6           0      -19.005952    0.504371   -1.480480
     85          7           0      -14.240967   -0.790173    0.219833
     86          6           0      -14.193938   -2.071327   -0.290390
     87          6           0      -12.913536   -2.781518    0.035959
     88          6           0      -12.351288   -1.893714    1.232192
     89          6           0      -13.160532   -0.616007    1.053739
     90          6           0      -12.203721   -2.467621    2.720799
     91          6           0      -11.921411   -3.006682   -1.197329
     92          6           0      -11.910011   -1.930983   -2.323909
     93          1           0      -10.533739   -1.589547   -2.842462
     94          7           0      -14.815433    1.936619    1.264839
     95          6           0      -13.526083    1.753260    1.779789
     96          6           0      -12.987470    2.979083    2.302181
     97          6           0      -14.027356    3.928337    2.158535
     98          6           0      -15.175167    3.214994    1.523219
     99          6           0      -11.675454    2.971569    3.088307
    100          6           0      -13.872609    5.385717    2.649685
    101          8           0      -12.806116    5.815775    3.100691
    102          6           0      -15.087029    6.213900    2.600382
    103          7           0      -17.505505    1.853490   -0.183569
    104          6           0      -17.582760    3.011109    0.572362
    105          6           0      -18.890156    3.798903    0.336130
    106          6           0      -19.540852    2.841464   -0.744652
    107          6           0      -18.632899    1.698745   -0.857893
    108          6           0      -19.797796    4.081100    1.491550
    109          6           0      -19.699037    3.540198   -2.188666
    110          6           0      -21.067743    3.289149   -2.765813
    111          7           0      -17.110261   -0.868640   -0.864649
    112          6           0      -18.303704   -0.707726   -1.543842
    113          6           0      -18.604910   -1.926486   -2.329151
    114          6           0      -17.418682   -2.720867   -2.154147
    115          6           0      -16.578411   -2.024608   -1.277525
    116          6           0      -19.669308   -2.191324   -3.314934
    117          6           0      -16.673550   -3.936857   -2.543907
    118          8           0      -16.964192   -4.787409   -3.352903
    119          6           0      -15.290974   -3.935527   -1.815678
    120          6           0      -15.129555   -5.159364   -1.029753
    121          8           0      -14.296847   -6.060798   -1.129893
    122          8           0      -16.311627   -5.309395   -0.258122
    123          6           0      -16.327128   -6.468283    0.660053
    124          1           0      -11.999115    0.412017    2.352868
    125          1           0      -16.813616    4.570121    1.681240
    126          1           0      -19.985303    0.585831   -1.955350
    127          1           0      -13.121384   -3.794745    0.379687
    128          1           0      -11.343385   -1.693528    0.867787
    129          1           0      -12.422175   -3.528185    2.844361
    130          1           0      -12.881676   -2.006242    3.438739
    131          1           0      -11.152867   -2.444500    3.010672
    132          1           0      -12.062394   -3.998371   -1.625929
    133          1           0      -10.921359   -3.071929   -0.768747
    134          1           0      -12.413445   -1.021898   -1.993528
    135          1           0      -12.468096   -2.294842   -3.186167
    136          1           0      -11.105938    3.897593    3.003265
    137          1           0      -11.007385    2.224728    2.660140
    138          1           0      -11.957051    2.817016    4.130168
    139          1           0      -15.782307    5.853008    3.357719
    140          1           0      -15.511131    6.186030    1.596168
    141          1           0      -14.750996    7.219288    2.853945
    142          1           0      -18.632311    4.691189   -0.234823
    143          1           0      -20.417223    2.461136   -0.219878
    144          1           0      -20.727330    4.446594    1.054798
    145          1           0      -19.378072    4.934284    2.024510
    146          1           0      -19.903337    3.195966    2.119966
    147          1           0      -18.893097    3.147360   -2.808402
    148          1           0      -19.475185    4.605838   -2.251953
    149          1           0      -20.951877    2.620367   -3.618356
    150          1           0      -21.468187    4.163326   -3.280270
    151          1           0      -21.681488    2.754308   -2.041280
    152          1           0      -20.385474   -1.383058   -3.470259
    153          1           0      -20.244346   -3.025184   -2.913807
    154          1           0      -19.078642   -2.236614   -4.229680
    155          1           0      -14.559819   -3.881474   -2.621931
    156          1           0      -16.715720   -6.022512    1.576404
    157          1           0      -15.410160   -7.003993    0.905743
    158          1           0      -17.162977   -7.075441    0.311972
 ---------------------------------------------------------------------

 SCF Done:  E(RCAM-B3LYP) =  -4069.82378495     A.U. after   19 cycles

 Excitation energies and oscillator strengths:

 Excited State   1:      Singlet-A      1.7167 eV  722.23 nm  f=0.2289  <S**2>=0.000
     309 -> 315        0.12674
     310 -> 316       -0.12969
     311 -> 313        0.48953
     312 -> 314       -0.47756
 This state for optimization and/or second-order correction.
 Total Energy, E(TD-HF/TD-DFT) =  -4069.76069757
 Copying the excited state density for this state as the 1-particle RhoCI density.

 Excited State   2:      Singlet-A      1.7188 eV  721.33 nm  f=0.5522  <S**2>=0.000
     309 -> 315       -0.13027
     310 -> 316       -0.12701
     311 -> 313        0.47770
     312 -> 314        0.48913

 Excited State   3:      Singlet-A      2.1355 eV  580.60 nm  f=0.1579  <S**2>=0.000
     310 -> 313        0.65932
     311 -> 316        0.23565

 Excited State   4:      Singlet-A      2.2042 eV  562.49 nm  f=0.0884  <S**2>=0.000
     309 -> 314        0.62978
     312 -> 315        0.30493

 Excited State   5:      Singlet-A      3.0692 eV  403.97 nm  f=0.0000  <S**2>=0.000
     312 -> 313        0.70709

 The electronic state is 1-A.
 Alpha  occ. eigenvalues --  -46.89117 -46.88211 -19.24350 -19.23841 -19.20546
 Alpha  occ. eigenvalues --  -19.19910 -19.19041 -19.18953 -19.18831 -19.18673
 Alpha  occ. eigenvalues --  -14.42247 -14.42247 -14.42218 -14.41859 -14.39657
 Alpha  occ. eigenvalues --  -14.39397 -14.39196 -14.38131 -10.39740 -10.38650
 Alpha  occ. eigenvalues --  -10.36154 -10.35128 -10.35123 -10.35053 -10.31635
 Alpha  occ. eigenvalues --  -10.31306 -10.31194 -10.31135 -10.30853 -10.30846
 Alpha  occ. eigenvalues --  -10.30692 -10.30677 -10.30644 -10.30639 -10.30285
 Alpha  occ. eigenvalues --  -10.30205 -10.30091 -10.29838 -10.29365 -10.28971
 Alpha  occ. eigenvalues --  -10.28845 -10.28820 -10.28690 -10.28552 -10.28543
 Alpha  occ. eigenvalues --  -10.28435 -10.28424 -10.28350 -10.28239 -10.28217
 Alpha  occ. eigenvalues --  -10.28174 -10.28120 -10.28087 -10.28078 -10.27743
 Alpha  occ. eigenvalues --  -10.27684 -10.27630 -10.27542 -10.27537 -10.27390
 Alpha  occ. eigenvalues --  -10.27313 -10.27174 -10.27150 -10.27140 -10.27092
 Alpha  occ. eigenvalues --  -10.26980 -10.26971 -10.26914 -10.26913 -10.26881
 Alpha  occ. eigenvalues --  -10.26741 -10.26559 -10.26315 -10.26288 -10.26226
 Alpha  occ. eigenvalues --  -10.26068 -10.26039 -10.25979 -10.25950 -10.25885
 Alpha  occ. eigenvalues --  -10.25814 -10.25766 -10.25764 -10.25442 -10.25398
 Alpha  occ. eigenvalues --  -10.24726  -3.17643  -3.16736  -1.92527  -1.92113
 Alpha  occ. eigenvalues --   -1.91936  -1.91637  -1.91188  -1.91042  -1.15056
 Alpha  occ. eigenvalues --   -1.14826  -1.11549  -1.10371  -1.09389  -1.08834
 Alpha  occ. eigenvalues --   -1.06908  -1.06611  -1.05084  -1.04417  -1.03729
 Alpha  occ. eigenvalues --   -1.03296  -1.03196  -1.02415  -1.02355  -1.00988
 Alpha  occ. eigenvalues --   -0.92475  -0.92042  -0.89668  -0.89234  -0.89151
 Alpha  occ. eigenvalues --   -0.88777  -0.88107  -0.87997  -0.87679  -0.87063
 Alpha  occ. eigenvalues --   -0.86891  -0.86426  -0.86199  -0.86055  -0.84845
 Alpha  occ. eigenvalues --   -0.84467  -0.84169  -0.83407  -0.82735  -0.82397
 Alpha  occ. eigenvalues --   -0.82308  -0.81932  -0.80969  -0.80854  -0.80163
 Alpha  occ. eigenvalues --   -0.80139  -0.78332  -0.78095  -0.77515  -0.77108
 Alpha  occ. eigenvalues --   -0.76859  -0.76808  -0.76227  -0.75869  -0.75762
 Alpha  occ. eigenvalues --   -0.74981  -0.72656  -0.72400  -0.72152  -0.71061
 Alpha  occ. eigenvalues --   -0.69789  -0.69436  -0.69375  -0.68417  -0.68100
 Alpha  occ. eigenvalues --   -0.67656  -0.66841  -0.66426  -0.66047  -0.64915
 Alpha  occ. eigenvalues --   -0.64735  -0.64670  -0.64519  -0.64411  -0.64011
 Alpha  occ. eigenvalues --   -0.63694  -0.62553  -0.61369  -0.60289  -0.59740
 Alpha  occ. eigenvalues --   -0.59391  -0.59060  -0.59051  -0.58954  -0.58297
 Alpha  occ. eigenvalues --   -0.58285  -0.57636  -0.57538  -0.57379  -0.57262
 Alpha  occ. eigenvalues --   -0.56337  -0.55836  -0.55825  -0.55405  -0.55362
 Alpha  occ. eigenvalues --   -0.55139  -0.55109  -0.54631  -0.54620  -0.53900
 Alpha  occ. eigenvalues --   -0.53674  -0.53317  -0.52919  -0.52837  -0.52730
 Alpha  occ. eigenvalues --   -0.52648  -0.52636  -0.52295  -0.52187  -0.52103
 Alpha  occ. eigenvalues --   -0.51996  -0.51945  -0.51628  -0.51580  -0.51122
 Alpha  occ. eigenvalues --   -0.50862  -0.50772  -0.50605  -0.50483  -0.50292
 Alpha  occ. eigenvalues --   -0.50192  -0.49645  -0.49637  -0.49564  -0.49550
 Alpha  occ. eigenvalues --   -0.49335  -0.49285  -0.49029  -0.48970  -0.48833
 Alpha  occ. eigenvalues --   -0.48575  -0.48510  -0.48309  -0.48199  -0.48184
 Alpha  occ. eigenvalues --   -0.48098  -0.47752  -0.47591  -0.47265  -0.47082
 Alpha  occ. eigenvalues --   -0.46928  -0.46715  -0.46515  -0.46286  -0.46225
 Alpha  occ. eigenvalues --   -0.46220  -0.46094  -0.45795  -0.45742  -0.45615
 Alpha  occ. eigenvalues --   -0.45400  -0.45215  -0.45132  -0.45004  -0.44997
 Alpha  occ. eigenvalues --   -0.44987  -0.44702  -0.44658  -0.44611  -0.44236
 Alpha  occ. eigenvalues --   -0.43938  -0.43934  -0.43610  -0.43432  -0.43375
 Alpha  occ. eigenvalues --   -0.43233  -0.43155  -0.43120  -0.43024  -0.42761
 Alpha  occ. eigenvalues --   -0.42757  -0.42641  -0.42491  -0.42331  -0.42144
 Alpha  occ. eigenvalues --   -0.41977  -0.41896  -0.41724  -0.41696  -0.41468
 Alpha  occ. eigenvalues --   -0.41234  -0.41066  -0.40854  -0.40583  -0.40469
 Alpha  occ. eigenvalues --   -0.40200  -0.40005  -0.39884  -0.39115  -0.38521
 Alpha  occ. eigenvalues --   -0.38483  -0.38361  -0.37989  -0.37810  -0.37657
 Alpha  occ. eigenvalues --   -0.37444  -0.36908  -0.36596  -0.36569  -0.36090
 Alpha  occ. eigenvalues --   -0.35663  -0.35640  -0.35166  -0.34808  -0.34287
 Alpha  occ. eigenvalues --   -0.33767  -0.33332  -0.33242  -0.31570  -0.31286
 Alpha  occ. eigenvalues --   -0.31222  -0.30851  -0.30822  -0.30785  -0.29971
 Alpha  occ. eigenvalues --   -0.29667  -0.29572  -0.28622  -0.24108  -0.23481
 Alpha  occ. eigenvalues --   -0.21285  -0.21227
 Alpha virt. eigenvalues --   -0.08880  -0.08678  -0.02260  -0.01279   0.00619
 Alpha virt. eigenvalues --    0.00636   0.01701   0.02515   0.02525   0.02642
 Alpha virt. eigenvalues --    0.04076   0.04938   0.05172   0.05364   0.05942

 Mulliken charges:
               1
     1  Mg  11.997809
     2  C    6.015282
     3  C    5.985142
     4  C    5.983187
     5  C    6.004385
     6  N    7.004511
     7  C    5.974648
     8  C    6.010535
     9  C    5.998058
    10  C    6.020598
    11  C    5.997859
    12  C    6.001667
    13  C    6.000879
    14  H    0.996753
    15  N    6.996060
    16  C    6.033030
    17  C    6.013259
    18  C    6.015019
    19  C    6.025368
    20  C    5.995523
    21  C    6.010085
    22  O    8.018747
    23  C    5.996725
    24  N    6.994354
    25  C    6.028455
    26  C    5.992896
    27  C    6.008392
    28  C    5.977176
    29  C    6.001086
    30  C    6.003600
    31  C    6.004872
    32  N    7.000588
    33  C    5.978520
    34  C    5.971976
    35  C    5.998427
    36  C    5.981784
    37  C    6.005438
    38  C    5.990391
    39  O    7.980916
    40  C    5.998277
    41  C    5.996271
    42  O    7.995206
    43  O    7.999674
    44  C    6.001289
    45  H    1.007557
    46  H    1.004220
    47  H    0.992000
    48  H    0.998734
    49  H    0.999374
    50  H    1.001087
    51  H    1.009280
    52  H    0.997804
    53  H    0.993628
    54  H    1.005650
    55  H    0.996690
    56  H    1.001613
    57  H    1.013571
    58  H    1.014402
    59  H    1.015908
    60  H    1.007590
    61  H    1.010958
    62  H    1.001491
    63  H    0.999030
    64  H    0.997026
    65  H    1.007430
    66  H    0.999980
    67  H    0.997134
    68  H    0.991031
    69  H    1.002204
    70  H    0.993627
    71  H    1.003976
    72  H    0.994625
    73  H    0.984406
    74  H    0.984503
    75  H    0.981198
    76  H    0.994737
    77  H    0.997490
    78  H    0.995517
    79  H    0.999814
    80  Mg  12.001550
    81  C    5.980462
    82  C    6.012175
    83  C    6.025704
    84  C    5.990160
    85  N    6.995440
    86  C    6.025616
    87  C    5.991528
    88  C    6.009133
    89  C    5.975627
    90  C    6.003133
    91  C    5.998162
    92  C    5.996585
    93  H    1.005652
    94  N    7.006830
    95  C    5.967138
    96  C    5.986822
    97  C    5.990768
    98  C    5.967421
    99  C    6.002777
   100  C    5.991083
   101  O    7.986438
   102  C    6.003559
   103  N    7.001874
   104  C    5.967513
   105  C    6.013204
   106  C    5.990765
   107  C    6.025102
   108  C    6.002136
   109  C    5.996370
   110  C    6.000064
   111  N    6.997127
   112  C    6.028572
   113  C    6.021522
   114  C    6.003849
   115  C    6.023509
   116  C    5.997208
   117  C    6.010433
   118  O    8.019613
   119  C    6.001783
   120  C    6.005561
   121  O    8.006326
   122  O    7.995410
   123  C    5.998150
   124  H    0.990987
   125  H    0.996450
   126  H    1.008540
   127  H    1.000001
   128  H    0.995848
   129  H    0.989723
   130  H    1.000065
   131  H    0.997547
   132  H    0.997184
   133  H    1.006393
   134  H    1.005442
   135  H    0.994989
   136  H    0.988183
   137  H    0.988573
   138  H    0.986694
   139  H    0.993572
   140  H    0.992691
   141  H    0.990751
   142  H    0.998029
   143  H    1.001033
   144  H    0.993090
   145  H    1.003459
   146  H    0.996530
   147  H    0.999824
   148  H    1.009475
   149  H    0.997152
   150  H    1.004153
   151  H    1.000420
   152  H    1.014057
   153  H    1.013590
   154  H    1.012293
   155  H    1.004609
   156  H    1.003515
   157  H    1.004742
   158  H    1.000539
 Sum of Mulliken charges = 624.00000

 Dipole moment (field-independent basis, Debye):
    X=             -6.7202    Y=              3.0310    Z=             -3.9952  Tot=              8.3851
 Quadrupole moment (field-independent basis, Debye-Ang):
   XX=             46.6302   YY=              4.7289   ZZ=             -0.0933
   XY=            190.1120   XZ=             70.8672   YZ=             -4.9994

 Normal termination of Gaussian 16 at Wed Sep 22 16:22:03 2021.
