 Gaussian 16, Revision A.03,
 Gaussian 16:  ES64L-G16RevA.03 25-Dec-2016

 -----------------------------------
 #p cam-b3lyp/Def2SVP td=(nstates=5)
 -----------------------------------

 --------------------------------
 TDDFT excited states in gaussian
 --------------------------------
 Symbolic Z-matrix:
 Charge =  0 Multiplicity = 1

                         Standard orientation:
 ---------------------------------------------------------------------
 Center     Atomic      Atomic             Coordinates (Angstroms)
 Number     Number       Type             X           Y           Z
 ---------------------------------------------------------------------
      1         12           0       -4.470904   -0.426196    1.318275
      2          6           0       -5.510966    2.341113   -0.624578
      3          6           0       -2.302458    1.575718    2.754717
      4          6           0       -2.917905   -3.189515    2.258642
      5          6           0       -6.411936   -2.402737   -0.907497
      6          7           0       -4.148361    1.808699    1.137487
      7          6           0       -4.687752    2.715496    0.407371
      8          6           0       -4.279582    4.123434    0.887580
      9          6           0       -2.884835    3.854443    1.651684
     10          6           0       -3.055055    2.286823    1.815297
     11          6           0       -1.566534    4.256875    0.879468
     12          6           0       -5.363845    4.708654    1.934851
     13          6           0       -5.652765    6.243287    2.002338
     14          1           0       -4.462992    7.192405    1.604253
     15          7           0       -2.952141   -0.769594    2.538262
     16          6           0       -2.196740    0.252344    3.093384
     17          6           0       -1.147718   -0.364902    3.979280
     18          6           0       -1.371042   -1.798952    3.847014
     19          6           0       -2.427627   -2.055376    2.864507
     20          6           0       -0.136088    0.492667    4.715892
     21          6           0       -0.649354   -2.903865    4.586663
     22          8           0       -0.844790   -4.114283    4.409195
     23          6           0        0.334437   -2.537031    5.622553
     24          7           0       -4.721527   -2.587825    0.811624
     25          6           0       -3.894408   -3.476047    1.332512
     26          6           0       -4.450616   -4.948982    1.088486
     27          6           0       -5.610849   -4.634227   -0.003244
     28          6           0       -5.609885   -3.107914   -0.009298
     29          6           0       -3.356342   -5.973759    0.641288
     30          6           0       -7.041749   -5.208480    0.259066
     31          6           0       -7.522801   -6.296397   -0.666385
     32          7           0       -5.905115   -0.136766   -0.303702
     33          6           0       -6.579178   -1.065228   -1.071808
     34          6           0       -7.272463   -0.420593   -2.107653
     35          6           0       -6.844672    0.915490   -1.990743
     36          6           0       -5.995038    1.071399   -0.921200
     37          6           0       -8.137181   -1.005339   -3.107420
     38          6           0       -7.079548    2.183097   -2.565354
     39          8           0       -7.843820    2.645686   -3.455343
     40          6           0       -6.000555    3.125052   -1.864269
     41          6           0       -6.598008    4.447214   -1.549179
     42          8           0       -7.526148    4.692908   -0.781510
     43          8           0       -5.813116    5.434304   -2.224594
     44          6           0       -6.222359    6.836017   -2.069344
     45          1           0       -1.698012    2.303652    3.300669
     46          1           0       -2.433433   -4.095401    2.627182
     47          1           0       -7.066552   -3.011254   -1.535963
     48          1           0       -3.968914    4.682232    0.005165
     49          1           0       -2.853463    4.491512    2.534907
     50          1           0       -1.758260    4.464761   -0.172987
     51          1           0       -0.841629    3.443097    0.871023
     52          1           0       -1.192717    5.149943    1.380136
     53          1           0       -5.149167    4.366946    2.947518
     54          1           0       -6.313580    4.207114    1.747888
     55          1           0       -5.969289    6.587351    2.987511
     56          1           0       -6.344990    6.463943    1.188839
     57          1           0       -0.006432    0.177145    5.751763
     58          1           0       -0.387233    1.553345    4.709895
     59          1           0        0.789263    0.529730    4.141572
     60          1           0        1.129491   -1.916597    5.208008
     61          1           0        0.763646   -3.438544    6.059867
     62          1           0       -0.065290   -2.002887    6.484536
     63          1           0       -4.965508   -5.353378    1.959875
     64          1           0       -5.282504   -4.842113   -1.022679
     65          1           0       -2.405914   -5.466052    0.475927
     66          1           0       -3.853734   -6.439310   -0.209813
     67          1           0       -3.328602   -6.753047    1.401792
     68          1           0       -7.744478   -4.380735    0.161095
     69          1           0       -7.108038   -5.558320    1.289464
     70          1           0       -6.631518   -6.546226   -1.240445
     71          1           0       -8.250396   -5.853772   -1.347659
     72          1           0       -7.856209   -7.193026   -0.145363
     73          1           0       -8.868726   -1.610494   -2.572612
     74          1           0       -7.695776   -1.790788   -3.720949
     75          1           0       -8.646194   -0.214805   -3.659151
     76          1           0       -5.162238    3.247647   -2.550794
     77          1           0       -5.611678    7.487866   -2.694600
     78          1           0       -5.955422    7.163576   -1.064408
     79          1           0       -7.256956    6.944300   -2.393182
     80         12           0        4.268365   -0.762256   -1.149178
     81          6           0        6.503798    1.797470   -0.320749
     82          6           0        1.762093    1.352326   -1.019227
     83          6           0        2.083621   -3.413164   -1.207317
     84          6           0        6.880183   -3.109719   -0.784012
     85          7           0        4.213399    1.318386   -0.818665
     86          6           0        5.215461    2.227167   -0.558451
     87          6           0        4.704879    3.661419   -0.607821
     88          6           0        3.157908    3.442305   -0.607202
     89          6           0        3.029744    1.994808   -0.932322
     90          6           0        2.335293    3.911309    0.573415
     91          6           0        5.274389    4.521781   -1.780714
     92          6           0        4.786655    5.974103   -1.821279
     93          1           0        5.869338    7.039734   -1.909168
     94          7           0        2.099603   -1.004116   -1.052267
     95          6           0        1.249892    0.039620   -1.148845
     96          6           0       -0.091884   -0.454598   -1.287932
     97          6           0       -0.021085   -1.857312   -1.234051
     98          6           0        1.437114   -2.141483   -1.145958
     99          6           0       -1.312139    0.435405   -1.394895
    100          6           0       -1.107590   -2.875078   -1.354968
    101          8           0       -0.993277   -4.113977   -1.155168
    102          6           0       -2.503576   -2.454444   -1.797986
    103          7           0        4.458726   -2.905211   -0.987749
    104          6           0        3.404332   -3.753544   -0.972516
    105          6           0        3.936592   -5.283375   -1.070701
    106          6           0        5.456107   -5.077313   -1.403268
    107          6           0        5.638213   -3.620505   -1.120921
    108          6           0        3.639629   -6.020205    0.293566
    109          6           0        5.724558   -5.279403   -2.939369
    110          6           0        4.878266   -4.520596   -3.949695
    111          7           0        6.363649   -0.711999   -0.699949
    112          6           0        7.240679   -1.757298   -0.603814
    113          6           0        8.484771   -1.217768   -0.303117
    114          6           0        8.323179    0.188415   -0.141709
    115          6           0        7.002355    0.450699   -0.394377
    116          6           0        9.772896   -1.918335   -0.049598
    117          6           0        8.953188    1.486561    0.189789
    118          8           0       10.080464    1.811836    0.544464
    119          6           0        7.789706    2.603413   -0.018716
    120          6           0        7.770932    3.556891    1.122470
    121          8           0        8.008849    3.247622    2.327745
    122          8           0        7.635030    4.771655    0.608008
    123          6           0        8.052924    5.839955    1.495574
    124          1           0        0.906419    2.025904   -1.101756
    125          1           0        1.404426   -4.267298   -1.261499
    126          1           0        7.683569   -3.847656   -0.807383
    127          1           0        5.127276    4.121484    0.285702
    128          1           0        2.658948    3.932768   -1.443723
    129          1           0        2.787166    4.662905    1.220698
    130          1           0        2.035381    3.045496    1.164383
    131          1           0        1.350285    4.174425    0.187379
    132          1           0        5.064199    4.030017   -2.730845
    133          1           0        6.361848    4.533801   -1.714964
    134          1           0        4.456846    6.309180   -0.838052
    135          1           0        4.011163    6.111041   -2.575488
    136          1           0       -1.121136    1.496265   -1.233478
    137          1           0       -2.063559    0.305976   -0.616357
    138          1           0       -1.829675    0.349526   -2.350840
    139          1           0       -2.942822   -1.861523   -0.996214
    140          1           0       -3.203569   -3.289613   -1.788515
    141          1           0       -2.521782   -1.996225   -2.787487
    142          1           0        3.379807   -5.814456   -1.842756
    143          1           0        5.986441   -5.699326   -0.682224
    144          1           0        2.942391   -5.482119    0.936009
    145          1           0        4.520195   -6.177262    0.916705
    146          1           0        3.150469   -6.985344    0.170002
    147          1           0        5.550451   -6.353771   -2.999588
    148          1           0        6.753744   -5.100568   -3.249181
    149          1           0        4.021781   -4.063622   -3.453540
    150          1           0        4.583319   -5.068025   -4.844260
    151          1           0        5.586700   -3.791421   -4.342873
    152          1           0       10.080796   -2.595127   -0.847019
    153          1           0        9.590188   -2.529324    0.833903
    154          1           0       10.585936   -1.230132    0.179292
    155          1           0        8.114069    3.146967   -0.905719
    156          1           0        8.631653    6.580308    0.941845
    157          1           0        8.696467    5.553502    2.327036
    158          1           0        7.134038    6.302411    1.857442
 ---------------------------------------------------------------------

 SCF Done:  E(RCAM-B3LYP) =  -4069.79251499     A.U. after   19 cycles

 Excitation energies and oscillator strengths:

 Excited State   1:      Singlet-A      1.7025 eV  728.23 nm  f=0.4883  <S**2>=0.000
     310 -> 316       -0.16237
     311 -> 313        0.35245
     312 -> 313        0.58983
     310 <- 316       -0.10195
 This state for optimization and/or second-order correction.
 Total Energy, E(TD-HF/TD-DFT) =  -4069.72994785
 Copying the excited state density for this state as the 1-particle RhoCI density.

 Excited State   2:      Singlet-A      1.7937 eV  691.24 nm  f=0.2988  <S**2>=0.000
     309 -> 315       -0.20888
     311 -> 314        0.56368
     312 -> 314       -0.36900
     309 <- 315       -0.10925

 Excited State   3:      Singlet-A      2.1412 eV  579.05 nm  f=0.1155  <S**2>=0.000
     310 -> 313        0.65899
     311 -> 316        0.11796
     312 -> 316        0.18928

 Excited State   4:      Singlet-A      2.2301 eV  555.96 nm  f=0.0426  <S**2>=0.000
     309 -> 314        0.43201
     311 -> 313        0.43375
     311 -> 315        0.18104
     312 -> 313       -0.26027
     312 -> 315       -0.11621

 Excited State   5:      Singlet-A      2.2341 eV  554.96 nm  f=0.0472  <S**2>=0.000
     309 -> 314        0.44946
     311 -> 313       -0.41783
     311 -> 315        0.18473
     312 -> 313        0.25278
     312 -> 315       -0.11849

 The electronic state is 1-A.
 Alpha  occ. eigenvalues --  -46.89835 -46.89583 -19.26899 -19.24357 -19.20614
 Alpha  occ. eigenvalues --  -19.19485 -19.19296 -19.19054 -19.18803 -19.18648
 Alpha  occ. eigenvalues --  -14.43116 -14.42640 -14.42036 -14.42012 -14.40360
 Alpha  occ. eigenvalues --  -14.39963 -14.38989 -14.38224 -10.39696 -10.39480
 Alpha  occ. eigenvalues --  -10.36058 -10.35178 -10.35024 -10.34855 -10.32352
 Alpha  occ. eigenvalues --  -10.32256 -10.32013 -10.31480 -10.31290 -10.31258
 Alpha  occ. eigenvalues --  -10.31231 -10.31151 -10.31131 -10.30967 -10.30832
 Alpha  occ. eigenvalues --  -10.30831 -10.30536 -10.30532 -10.30269 -10.29951
 Alpha  occ. eigenvalues --  -10.29723 -10.29460 -10.29267 -10.29188 -10.28895
 Alpha  occ. eigenvalues --  -10.28776 -10.28768 -10.28642 -10.28591 -10.28455
 Alpha  occ. eigenvalues --  -10.28416 -10.28406 -10.28351 -10.28271 -10.28139
 Alpha  occ. eigenvalues --  -10.28083 -10.28075 -10.28025 -10.27950 -10.27916
 Alpha  occ. eigenvalues --  -10.27910 -10.27894 -10.27886 -10.27777 -10.27553
 Alpha  occ. eigenvalues --  -10.27400 -10.27282 -10.27274 -10.26907 -10.26702
 Alpha  occ. eigenvalues --  -10.26669 -10.26654 -10.26599 -10.26329 -10.26234
 Alpha  occ. eigenvalues --  -10.26220 -10.26195 -10.26147 -10.25789 -10.25683
 Alpha  occ. eigenvalues --  -10.25530 -10.25365 -10.25056 -10.24986 -10.24706
 Alpha  occ. eigenvalues --  -10.24467  -3.18308  -3.17972  -1.93222  -1.92881
 Alpha  occ. eigenvalues --   -1.92770  -1.92587  -1.92397  -1.92286  -1.18337
 Alpha  occ. eigenvalues --   -1.14370  -1.09459  -1.08993  -1.08717  -1.07655
 Alpha  occ. eigenvalues --   -1.07123  -1.06257  -1.06167  -1.05612  -1.05495
 Alpha  occ. eigenvalues --   -1.04585  -1.03865  -1.03523  -1.02645  -1.01828
 Alpha  occ. eigenvalues --   -0.93352  -0.92066  -0.89864  -0.89742  -0.89442
 Alpha  occ. eigenvalues --   -0.88890  -0.88558  -0.88245  -0.88184  -0.87805
 Alpha  occ. eigenvalues --   -0.87701  -0.87307  -0.87102  -0.85871  -0.85025
 Alpha  occ. eigenvalues --   -0.84635  -0.83955  -0.83939  -0.83051  -0.82832
 Alpha  occ. eigenvalues --   -0.82392  -0.82025  -0.81766  -0.81519  -0.81017
 Alpha  occ. eigenvalues --   -0.80828  -0.79207  -0.79020  -0.77844  -0.77741
 Alpha  occ. eigenvalues --   -0.77632  -0.77349  -0.76373  -0.76314  -0.75396
 Alpha  occ. eigenvalues --   -0.75236  -0.73539  -0.72942  -0.72561  -0.71964
 Alpha  occ. eigenvalues --   -0.70095  -0.69322  -0.69228  -0.68569  -0.68512
 Alpha  occ. eigenvalues --   -0.68301  -0.67871  -0.67484  -0.66286  -0.66052
 Alpha  occ. eigenvalues --   -0.65783  -0.65736  -0.65407  -0.64876  -0.64850
 Alpha  occ. eigenvalues --   -0.64715  -0.62941  -0.61630  -0.61184  -0.60775
 Alpha  occ. eigenvalues --   -0.60442  -0.60031  -0.59662  -0.59426  -0.58754
 Alpha  occ. eigenvalues --   -0.58709  -0.57936  -0.57828  -0.57638  -0.57434
 Alpha  occ. eigenvalues --   -0.57343  -0.56402  -0.56268  -0.56030  -0.55990
 Alpha  occ. eigenvalues --   -0.55740  -0.55600  -0.55536  -0.54769  -0.54651
 Alpha  occ. eigenvalues --   -0.54136  -0.54065  -0.53670  -0.53410  -0.53290
 Alpha  occ. eigenvalues --   -0.53172  -0.53065  -0.52811  -0.52739  -0.52591
 Alpha  occ. eigenvalues --   -0.52392  -0.51938  -0.51895  -0.51761  -0.51422
 Alpha  occ. eigenvalues --   -0.51230  -0.51161  -0.50774  -0.50657  -0.50529
 Alpha  occ. eigenvalues --   -0.50348  -0.50306  -0.50151  -0.49863  -0.49830
 Alpha  occ. eigenvalues --   -0.49529  -0.49367  -0.49117  -0.49067  -0.48983
 Alpha  occ. eigenvalues --   -0.48723  -0.48672  -0.48576  -0.48506  -0.48358
 Alpha  occ. eigenvalues --   -0.48108  -0.47965  -0.47752  -0.47527  -0.47432
 Alpha  occ. eigenvalues --   -0.47302  -0.47059  -0.47011  -0.46952  -0.46680
 Alpha  occ. eigenvalues --   -0.46606  -0.46553  -0.46373  -0.46165  -0.46027
 Alpha  occ. eigenvalues --   -0.45873  -0.45652  -0.45559  -0.45352  -0.45115
 Alpha  occ. eigenvalues --   -0.44903  -0.44627  -0.44596  -0.44507  -0.44227
 Alpha  occ. eigenvalues --   -0.44135  -0.44037  -0.43904  -0.43801  -0.43580
 Alpha  occ. eigenvalues --   -0.43422  -0.43420  -0.43237  -0.43049  -0.42990
 Alpha  occ. eigenvalues --   -0.42771  -0.42475  -0.42410  -0.42288  -0.42169
 Alpha  occ. eigenvalues --   -0.42004  -0.41660  -0.41616  -0.41565  -0.41419
 Alpha  occ. eigenvalues --   -0.41122  -0.41042  -0.40732  -0.40711  -0.40696
 Alpha  occ. eigenvalues --   -0.40283  -0.40034  -0.39871  -0.39494  -0.39388
 Alpha  occ. eigenvalues --   -0.38808  -0.38472  -0.38138  -0.38083  -0.37711
 Alpha  occ. eigenvalues --   -0.37509  -0.37099  -0.36792  -0.36701  -0.36529
 Alpha  occ. eigenvalues --   -0.36506  -0.36067  -0.34862  -0.34297  -0.34252
 Alpha  occ. eigenvalues --   -0.34149  -0.33827  -0.33114  -0.32199  -0.32036
 Alpha  occ. eigenvalues --   -0.31447  -0.31351  -0.30996  -0.30807  -0.30580
 Alpha  occ. eigenvalues --   -0.30303  -0.29670  -0.28704  -0.24547  -0.24269
 Alpha  occ. eigenvalues --   -0.22035  -0.21934
 Alpha virt. eigenvalues --   -0.09571  -0.08942  -0.02985  -0.01498  -0.00514
 Alpha virt. eigenvalues --   -0.00304   0.01614   0.01914   0.02038   0.02290
 Alpha virt. eigenvalues --    0.04176   0.04183   0.04405   0.05015   0.05088

 Mulliken charges:
               1
     1  Mg   0.784609
     2  C    0.017151
     3  C   -0.073520
     4  C   -0.028554
     5  C   -0.093083
     6  N   -0.227224
     7  C   -0.128200
     8  C    0.026619
     9  C   -0.099721
    10  C    0.015114
    11  C    0.045398
    12  C    0.059972
    13  C   -0.072339
    14  H   -0.017486
    15  N   -0.485510
    16  C    0.211087
    17  C   -0.137036
    18  C   -0.014906
    19  C    0.149889
    20  C    0.114788
    21  C    0.008659
    22  O   -0.207982
    23  C    0.031649
    24  N   -0.213308
    25  C    0.004496
    26  C   -0.070535
    27  C   -0.029753
    28  C   -0.021285
    29  C    0.085737
    30  C    0.029751
    31  C    0.020025
    32  N   -0.330391
    33  C    0.140085
    34  C   -0.143488
    35  C    0.021565
    36  C    0.102833
    37  C    0.141304
    38  C    0.059425
    39  O   -0.215723
    40  C   -0.028902
    41  C    0.225932
    42  O   -0.217433
    43  O   -0.380430
    44  C    0.184608
    45  H   -0.030332
    46  H   -0.002906
    47  H   -0.038663
    48  H   -0.001177
    49  H    0.020068
    50  H    0.015569
    51  H    0.020454
    52  H    0.027304
    53  H    0.006278
    54  H    0.034492
    55  H    0.043441
    56  H    0.060916
    57  H    0.036122
    58  H    0.007122
    59  H    0.041500
    60  H    0.035479
    61  H    0.025442
    62  H    0.038373
    63  H    0.020231
    64  H    0.011123
    65  H    0.062434
    66  H    0.001246
    67  H    0.007376
    68  H    0.008440
    69  H    0.000295
    70  H    0.005312
    71  H    0.017459
    72  H    0.023800
    73  H    0.008532
    74  H    0.021594
    75  H    0.047057
    76  H    0.048131
    77  H    0.024854
    78  H    0.027305
    79  H    0.049800
    80  Mg   0.806866
    81  C    0.044808
    82  C   -0.065014
    83  C   -0.045486
    84  C   -0.073099
    85  N   -0.323074
    86  C   -0.058568
    87  C    0.013574
    88  C   -0.036716
    89  C    0.075660
    90  C    0.087805
    91  C    0.063932
    92  C   -0.073881
    93  H    0.014500
    94  N   -0.300419
    95  C    0.074643
    96  C   -0.093324
    97  C    0.002038
    98  C    0.074269
    99  C    0.112401
   100  C    0.000641
   101  O   -0.232147
   102  C    0.058946
   103  N   -0.284447
   104  C    0.051866
   105  C   -0.096867
   106  C    0.025616
   107  C    0.020569
   108  C    0.056558
   109  C    0.029469
   110  C    0.003937
   111  N   -0.330813
   112  C    0.139639
   113  C   -0.184738
   114  C    0.005520
   115  C    0.046562
   116  C    0.122820
   117  C    0.080674
   118  O   -0.164977
   119  C   -0.061860
   120  C    0.198902
   121  O   -0.251772
   122  O   -0.299607
   123  C    0.166014
   124  H   -0.050912
   125  H   -0.000849
   126  H   -0.027564
   127  H    0.003736
   128  H    0.005279
   129  H    0.031277
   130  H    0.010602
   131  H    0.008812
   132  H   -0.000791
   133  H    0.022526
   134  H    0.024094
   135  H    0.040750
   136  H   -0.004399
   137  H    0.031998
   138  H    0.032873
   139  H    0.041224
   140  H    0.010709
   141  H    0.043751
   142  H    0.018084
   143  H    0.003978
   144  H    0.025889
   145  H    0.011417
   146  H    0.018746
   147  H    0.004544
   148  H    0.005216
   149  H    0.037160
   150  H    0.019968
   151  H    0.012046
   152  H    0.013555
   153  H    0.020255
   154  H    0.033618
   155  H    0.053204
   156  H    0.036295
   157  H    0.061898
   158  H    0.031233
 Sum of Mulliken charges =  -0.00000

 Dipole moment (field-independent basis, Debye):
    X=             -0.9689    Y=              1.2939    Z=             -0.3624  Tot=              1.6565
 Quadrupole moment (field-independent basis, Debye-Ang):
   XX=           -608.7817   YY=           -475.4982   ZZ=           -511.4047
   XY=             17.5755   XZ=            -40.7774   YZ=             22.0340

 Normal termination of Gaussian 16 at Wed Sep 15 01:44:59 2021.
