 Gaussian 16, Revision A.03,
 Gaussian 16:  ES64L-G16RevA.03 25-Dec-2016

 -----------------------------------
 #p cam-b3lyp/Def2SVP td=(nstates=5)
 -----------------------------------

 --------------------------------
 TDDFT excited states in gaussian
 --------------------------------
 Symbolic Z-matrix:
 Charge =  0 Multiplicity = 1

                         Standard orientation:
 ---------------------------------------------------------------------
 Center     Atomic      Atomic             Coordinates (Angstroms)
 Number     Number       Type             X           Y           Z
 ---------------------------------------------------------------------
      1         12           0        8.413990    0.578674    0.065034
      2          6           0        6.399658   -1.906394   -1.254224
      3          6           0        6.413282    2.963943   -1.442089
      4          6           0        9.931830    2.914118    1.972046
      5          6           0       10.108309   -1.992814    1.783863
      6          7           0        6.431772    0.529560   -0.977406
      7          6           0        5.966156   -0.592176   -1.533940
      8          6           0        4.653215   -0.292873   -2.321525
      9          6           0        4.821579    1.273554   -2.608588
     10          6           0        6.029770    1.640768   -1.664619
     11          6           0        4.977311    1.597366   -4.114045
     12          6           0        3.445279   -0.538477   -1.446321
     13          6           0        2.264663   -1.208417   -2.131841
     14          1           0        0.768245   -0.832471   -1.814784
     15          7           0        8.283325    2.709736    0.080950
     16          6           0        7.382821    3.502218   -0.525536
     17          6           0        7.711690    4.852456   -0.201710
     18          6           0        8.852082    4.884055    0.657004
     19          6           0        9.115369    3.466044    0.931539
     20          6           0        7.050265    5.997393   -0.875472
     21          6           0        9.409868    6.124452    1.259258
     22          8           0        8.957121    7.213884    0.949292
     23          6           0       10.595124    6.084461    2.216416
     24          7           0        9.945818    0.448490    1.659730
     25          6           0       10.312724    1.594373    2.298941
     26          6           0       11.109272    1.282965    3.524152
     27          6           0       11.150453   -0.316531    3.451495
     28          6           0       10.419286   -0.705686    2.190648
     29          6           0       12.478887    1.983354    3.599717
     30          6           0       10.610403   -1.087296    4.736488
     31          6           0       11.468047   -2.181104    5.415198
     32          7           0        8.329317   -1.481663    0.234086
     33          6           0        9.111614   -2.374141    0.897219
     34          6           0        8.899214   -3.660399    0.399264
     35          6           0        7.839400   -3.569257   -0.492312
     36          6           0        7.481599   -2.244395   -0.502131
     37          6           0        9.640980   -4.934437    0.899662
     38          6           0        7.013924   -4.259968   -1.368079
     39          8           0        6.941898   -5.471494   -1.541774
     40          6           0        5.926196   -3.231106   -1.944610
     41          6           0        6.053431   -3.054342   -3.346207
     42          8           0        6.873907   -2.414627   -4.008538
     43          8           0        5.003296   -3.765737   -3.918389
     44          6           0        4.828765   -3.803826   -5.360241
     45          1           0        5.886439    3.713236   -2.036218
     46          1           0       10.502990    3.548962    2.653317
     47          1           0       10.756234   -2.704455    2.300034
     48          1           0        4.633829   -0.942784   -3.195923
     49          1           0        4.028678    1.890076   -2.186381
     50          1           0        5.052802    0.692617   -4.716909
     51          1           0        5.862174    2.217002   -4.262999
     52          1           0        4.122619    2.206600   -4.407144
     53          1           0        3.038041    0.310622   -0.897048
     54          1           0        3.833335   -1.118704   -0.609172
     55          1           0        2.413411   -2.282215   -2.019391
     56          1           0        2.468884   -0.971794   -3.176052
     57          1           0        7.763761    6.257898   -1.657017
     58          1           0        6.873482    6.821445   -0.183985
     59          1           0        6.085947    5.739472   -1.313405
     60          1           0       10.180741    5.802786    3.184547
     61          1           0       10.903657    7.121919    2.342886
     62          1           0       11.363585    5.402504    1.852637
     63          1           0       10.425840    1.649639    4.289350
     64          1           0       12.174133   -0.689942    3.423639
     65          1           0       12.370175    2.767715    4.349486
     66          1           0       12.805416    2.383637    2.639341
     67          1           0       13.221520    1.282267    3.979825
     68          1           0        9.673996   -1.577272    4.470106
     69          1           0       10.418192   -0.422846    5.579189
     70          1           0       11.119299   -3.051384    4.859391
     71          1           0       11.180446   -2.294373    6.459650
     72          1           0       12.541629   -2.227873    5.233097
     73          1           0        9.251379   -5.195150    1.882875
     74          1           0       10.712566   -4.830109    1.070822
     75          1           0        9.468597   -5.774755    0.226595
     76          1           0        4.958069   -3.616061   -1.623862
     77          1           0        4.380550   -4.767574   -5.599919
     78          1           0        5.720429   -3.570494   -5.942735
     79          1           0        4.049698   -3.084720   -5.613705
     80         12           0       -8.436459    0.227894   -0.022315
     81          6           0       -6.168903   -2.328825   -0.260935
     82          6           0       -6.555655    2.105276   -2.056371
     83          6           0      -10.631762    2.730285    0.508573
     84          6           0      -10.145832   -1.658754    2.573427
     85          7           0       -6.390206   -0.020130   -0.836696
     86          6           0       -5.703929   -1.166745   -0.913231
     87          6           0       -4.389440   -0.983854   -1.832123
     88          6           0       -4.631823    0.479104   -2.361261
     89          6           0       -5.938085    0.943943   -1.686430
     90          6           0       -3.419175    1.412571   -2.179403
     91          6           0       -4.262310   -2.042774   -2.963865
     92          6           0       -3.252082   -1.768986   -4.125500
     93          1           0       -1.884237   -2.551221   -4.105581
     94          7           0       -8.546519    2.188505   -0.653863
     95          6           0       -7.758278    2.743148   -1.551091
     96          6           0       -8.235906    4.091233   -1.818899
     97          6           0       -9.374954    4.373855   -1.006515
     98          6           0       -9.567987    3.067930   -0.338636
     99          6           0       -7.535462    5.118073   -2.693330
    100          6           0      -10.167038    5.663099   -0.815391
    101          8           0      -10.930057    5.802332    0.136158
    102          6           0       -9.996175    6.761331   -1.805758
    103          7           0      -10.125282    0.505435    1.390199
    104          6           0      -10.878064    1.598718    1.360720
    105          6           0      -12.127696    1.464044    2.246600
    106          6           0      -12.012395    0.005942    2.683350
    107          6           0      -10.662107   -0.385116    2.210561
    108          6           0      -12.306506    2.463956    3.398669
    109          6           0      -13.207136   -0.841151    2.325047
    110          6           0      -14.017699   -1.441726    3.528511
    111          7           0       -8.270587   -1.582043    0.913719
    112          6           0       -9.067910   -2.272315    1.887261
    113          6           0       -8.590640   -3.622383    2.091188
    114          6           0       -7.459787   -3.639446    1.228123
    115          6           0       -7.319170   -2.409268    0.573550
    116          6           0       -9.169276   -4.773459    2.835841
    117          6           0       -6.528759   -4.595649    0.684268
    118          8           0       -6.419236   -5.829261    0.747987
    119          6           0       -5.566411   -3.831070   -0.189898
    120          6           0       -4.205605   -3.752231    0.536653
    121          8           0       -4.001092   -3.523054    1.738601
    122          8           0       -3.231573   -3.974688   -0.390880
    123          6           0       -1.810420   -3.985491    0.080453
    124          1           0       -6.103977    2.768071   -2.797428
    125          1           0      -11.262464    3.536587    0.888773
    126          1           0      -10.787831   -2.215641    3.258294
    127          1           0       -3.568479   -1.018722   -1.116867
    128          1           0       -4.864588    0.407235   -3.423667
    129          1           0       -3.319844    1.983756   -3.101790
    130          1           0       -2.490386    0.855489   -2.055991
    131          1           0       -3.564227    2.077978   -1.328261
    132          1           0       -5.216494   -2.008643   -3.489642
    133          1           0       -3.992399   -3.009971   -2.540012
    134          1           0       -2.927972   -0.732944   -4.021928
    135          1           0       -3.734982   -2.012034   -5.071359
    136          1           0       -6.628271    4.709116   -3.138088
    137          1           0       -7.264441    5.985523   -2.092009
    138          1           0       -8.178476    5.472232   -3.498063
    139          1           0      -10.108216    6.284622   -2.779966
    140          1           0       -9.091661    7.365037   -1.873366
    141          1           0      -10.746736    7.544136   -1.701775
    142          1           0      -12.999503    1.580102    1.603623
    143          1           0      -11.981048   -0.000881    3.772734
    144          1           0      -13.374911    2.678421    3.396097
    145          1           0      -11.658501    3.329329    3.260437
    146          1           0      -11.952687    2.104945    4.365068
    147          1           0      -12.767329   -1.704604    1.826941
    148          1           0      -13.936301   -0.326647    1.699848
    149          1           0      -13.550226   -1.156933    4.471471
    150          1           0      -13.967295   -2.527422    3.440372
    151          1           0      -15.086293   -1.226297    3.527366
    152          1           0      -10.179748   -4.535914    3.167390
    153          1           0       -8.583712   -4.841891    3.751922
    154          1           0       -9.137658   -5.604456    2.129702
    155          1           0       -5.507522   -4.424730   -1.102345
    156          1           0       -1.533567   -3.161438    0.738471
    157          1           0       -1.072081   -4.053512   -0.717820
    158          1           0       -1.723196   -4.871887    0.708547
 ---------------------------------------------------------------------

 SCF Done:  E(RCAM-B3LYP) =  -4069.79057213     A.U. after   19 cycles

 Excitation energies and oscillator strengths:

 Excited State   1:      Singlet-A      1.6970 eV  730.63 nm  f=0.2058  <S**2>=0.000
     309 -> 315        0.17756
     311 -> 313        0.65882
     312 -> 314        0.18777
     309 <- 315        0.10575
 This state for optimization and/or second-order correction.
 Total Energy, E(TD-HF/TD-DFT) =  -4069.72821000
 Copying the excited state density for this state as the 1-particle RhoCI density.

 Excited State   2:      Singlet-A      1.7234 eV  719.40 nm  f=0.5730  <S**2>=0.000
     310 -> 316        0.16960
     311 -> 313       -0.18707
     312 -> 314        0.65756

 Excited State   3:      Singlet-A      2.2282 eV  556.43 nm  f=0.1113  <S**2>=0.000
     309 -> 313        0.63523
     311 -> 315       -0.29314

 Excited State   4:      Singlet-A      2.2690 eV  546.42 nm  f=0.1135  <S**2>=0.000
     310 -> 314        0.63751
     312 -> 316       -0.28594

 Excited State   5:      Singlet-A      2.6658 eV  465.09 nm  f=0.0000  <S**2>=0.000
     312 -> 313        0.70697

 The electronic state is 1-A.
 Alpha  occ. eigenvalues --  -46.89808 -46.89188 -19.25563 -19.24796 -19.20340
 Alpha  occ. eigenvalues --  -19.19535 -19.19408 -19.19363 -19.18454 -19.17661
 Alpha  occ. eigenvalues --  -14.42486 -14.42131 -14.42066 -14.41734 -14.40087
 Alpha  occ. eigenvalues --  -14.39924 -14.39317 -14.39275 -10.39772 -10.39511
 Alpha  occ. eigenvalues --  -10.36093 -10.35353 -10.34720 -10.33326 -10.32075
 Alpha  occ. eigenvalues --  -10.31730 -10.31695 -10.31683 -10.31540 -10.31422
 Alpha  occ. eigenvalues --  -10.31248 -10.31007 -10.30975 -10.30485 -10.30380
 Alpha  occ. eigenvalues --  -10.30308 -10.30021 -10.29985 -10.29899 -10.29547
 Alpha  occ. eigenvalues --  -10.29367 -10.29286 -10.28872 -10.28801 -10.28624
 Alpha  occ. eigenvalues --  -10.28579 -10.28438 -10.28413 -10.28399 -10.28399
 Alpha  occ. eigenvalues --  -10.28394 -10.28374 -10.28076 -10.28060 -10.27986
 Alpha  occ. eigenvalues --  -10.27931 -10.27924 -10.27876 -10.27797 -10.27536
 Alpha  occ. eigenvalues --  -10.27505 -10.27491 -10.27147 -10.27032 -10.27021
 Alpha  occ. eigenvalues --  -10.26928 -10.26851 -10.26759 -10.26718 -10.26714
 Alpha  occ. eigenvalues --  -10.26606 -10.26523 -10.26490 -10.26374 -10.26254
 Alpha  occ. eigenvalues --  -10.26240 -10.26235 -10.26224 -10.26115 -10.26050
 Alpha  occ. eigenvalues --  -10.25938 -10.25709 -10.25659 -10.25028 -10.24963
 Alpha  occ. eigenvalues --  -10.24393  -3.18130  -3.17712  -1.93043  -1.92604
 Alpha  occ. eigenvalues --   -1.92580  -1.92423  -1.92161  -1.92026  -1.15901
 Alpha  occ. eigenvalues --   -1.15502  -1.10384  -1.10151  -1.10088  -1.07947
 Alpha  occ. eigenvalues --   -1.07675  -1.06490  -1.05727  -1.05630  -1.04385
 Alpha  occ. eigenvalues --   -1.04226  -1.03970  -1.03875  -1.02956  -1.02731
 Alpha  occ. eigenvalues --   -0.94032  -0.91260  -0.89916  -0.89594  -0.89399
 Alpha  occ. eigenvalues --   -0.88745  -0.88485  -0.88169  -0.88025  -0.87551
 Alpha  occ. eigenvalues --   -0.87158  -0.86997  -0.86992  -0.86312  -0.85568
 Alpha  occ. eigenvalues --   -0.84770  -0.84192  -0.83322  -0.83189  -0.82415
 Alpha  occ. eigenvalues --   -0.82356  -0.82166  -0.81601  -0.81074  -0.80926
 Alpha  occ. eigenvalues --   -0.80031  -0.78533  -0.78285  -0.77731  -0.77548
 Alpha  occ. eigenvalues --   -0.76760  -0.76737  -0.76646  -0.76086  -0.75354
 Alpha  occ. eigenvalues --   -0.75319  -0.73637  -0.72630  -0.72522  -0.71688
 Alpha  occ. eigenvalues --   -0.69950  -0.69443  -0.69348  -0.69115  -0.68324
 Alpha  occ. eigenvalues --   -0.67705  -0.67634  -0.67575  -0.66305  -0.66075
 Alpha  occ. eigenvalues --   -0.65840  -0.65612  -0.64998  -0.64877  -0.64459
 Alpha  occ. eigenvalues --   -0.63945  -0.62850  -0.62602  -0.60728  -0.60634
 Alpha  occ. eigenvalues --   -0.60024  -0.59654  -0.59271  -0.59232  -0.58877
 Alpha  occ. eigenvalues --   -0.58637  -0.58331  -0.58118  -0.57982  -0.57413
 Alpha  occ. eigenvalues --   -0.56480  -0.56309  -0.56287  -0.55660  -0.55598
 Alpha  occ. eigenvalues --   -0.55115  -0.54982  -0.54534  -0.54502  -0.54159
 Alpha  occ. eigenvalues --   -0.53718  -0.53716  -0.53563  -0.53393  -0.52798
 Alpha  occ. eigenvalues --   -0.52770  -0.52573  -0.52448  -0.52208  -0.52198
 Alpha  occ. eigenvalues --   -0.52153  -0.51958  -0.51709  -0.51679  -0.51524
 Alpha  occ. eigenvalues --   -0.51174  -0.51106  -0.50706  -0.50478  -0.50470
 Alpha  occ. eigenvalues --   -0.50280  -0.50144  -0.49988  -0.49787  -0.49743
 Alpha  occ. eigenvalues --   -0.49657  -0.49565  -0.49364  -0.49157  -0.49093
 Alpha  occ. eigenvalues --   -0.49041  -0.48965  -0.48594  -0.48551  -0.48437
 Alpha  occ. eigenvalues --   -0.48159  -0.47786  -0.47650  -0.47614  -0.47291
 Alpha  occ. eigenvalues --   -0.46982  -0.46865  -0.46845  -0.46783  -0.46721
 Alpha  occ. eigenvalues --   -0.46389  -0.46257  -0.46143  -0.46118  -0.45946
 Alpha  occ. eigenvalues --   -0.45921  -0.45671  -0.45429  -0.45239  -0.44980
 Alpha  occ. eigenvalues --   -0.44896  -0.44694  -0.44671  -0.44520  -0.44397
 Alpha  occ. eigenvalues --   -0.44131  -0.44036  -0.44005  -0.43864  -0.43748
 Alpha  occ. eigenvalues --   -0.43563  -0.43513  -0.43339  -0.42990  -0.42920
 Alpha  occ. eigenvalues --   -0.42765  -0.42334  -0.42228  -0.42214  -0.42058
 Alpha  occ. eigenvalues --   -0.42018  -0.41981  -0.41971  -0.41831  -0.41528
 Alpha  occ. eigenvalues --   -0.41519  -0.41202  -0.41081  -0.40841  -0.40419
 Alpha  occ. eigenvalues --   -0.40324  -0.39937  -0.39275  -0.39100  -0.38625
 Alpha  occ. eigenvalues --   -0.38348  -0.38272  -0.38075  -0.37868  -0.37574
 Alpha  occ. eigenvalues --   -0.37468  -0.37038  -0.36662  -0.36432  -0.36185
 Alpha  occ. eigenvalues --   -0.35958  -0.35840  -0.35070  -0.34499  -0.34282
 Alpha  occ. eigenvalues --   -0.33975  -0.33746  -0.33354  -0.31965  -0.31953
 Alpha  occ. eigenvalues --   -0.31330  -0.31107  -0.30819  -0.30611  -0.30590
 Alpha  occ. eigenvalues --   -0.29954  -0.29663  -0.29563  -0.24676  -0.23913
 Alpha  occ. eigenvalues --   -0.21669  -0.21106
 Alpha virt. eigenvalues --   -0.09303  -0.08551  -0.02395  -0.01773  -0.00312
 Alpha virt. eigenvalues --    0.00572   0.01893   0.02196   0.02401   0.02544
 Alpha virt. eigenvalues --    0.03182   0.03928   0.05087   0.05393   0.05716

 Mulliken charges:
               1
     1  Mg   0.803796
     2  C   -0.053743
     3  C   -0.077797
     4  C   -0.031164
     5  C   -0.113407
     6  N   -0.266414
     7  C   -0.028480
     8  C   -0.078489
     9  C   -0.057009
    10  C    0.065723
    11  C    0.083145
    12  C    0.065514
    13  C   -0.061512
    14  H    0.024901
    15  N   -0.375730
    16  C    0.137359
    17  C   -0.161437
    18  C   -0.018775
    19  C    0.178090
    20  C    0.123861
    21  C   -0.042773
    22  O   -0.204950
    23  C    0.067935
    24  N   -0.281895
    25  C   -0.040049
    26  C   -0.032414
    27  C   -0.000524
    28  C    0.029926
    29  C    0.073717
    30  C   -0.008689
    31  C   -0.012593
    32  N   -0.343841
    33  C    0.184263
    34  C   -0.180208
    35  C    0.103203
    36  C    0.132080
    37  C    0.117850
    38  C   -0.022072
    39  O   -0.170706
    40  C   -0.002940
    41  C    0.228127
    42  O   -0.227542
    43  O   -0.357984
    44  C    0.177668
    45  H   -0.025553
    46  H   -0.050286
    47  H   -0.029031
    48  H    0.016226
    49  H    0.019702
    50  H    0.027089
    51  H    0.013428
    52  H    0.013064
    53  H    0.013407
    54  H    0.003394
    55  H    0.031886
    56  H    0.025643
    57  H    0.036690
    58  H    0.042291
    59  H    0.001858
    60  H    0.037163
    61  H    0.025216
    62  H    0.043490
    63  H    0.026834
    64  H   -0.001050
    65  H    0.020907
    66  H    0.031726
    67  H    0.017926
    68  H    0.019720
    69  H    0.006615
    70  H    0.003120
    71  H    0.024973
    72  H    0.019148
    73  H    0.025039
    74  H    0.016895
    75  H    0.038053
    76  H    0.051106
    77  H    0.039128
    78  H    0.052182
    79  H    0.018685
    80  Mg   0.832067
    81  C   -0.058895
    82  C   -0.068436
    83  C   -0.048454
    84  C   -0.064220
    85  N   -0.282627
    86  C   -0.070731
    87  C    0.036981
    88  C   -0.103395
    89  C    0.096671
    90  C    0.074596
    91  C    0.030605
    92  C   -0.079766
    93  H    0.000906
    94  N   -0.351732
    95  C    0.093592
    96  C   -0.163102
    97  C   -0.023577
    98  C    0.114168
    99  C    0.115811
   100  C    0.042807
   101  O   -0.195731
   102  C    0.027064
   103  N   -0.202759
   104  C   -0.029783
   105  C   -0.063761
   106  C   -0.010490
   107  C   -0.014877
   108  C    0.083988
   109  C    0.049310
   110  C   -0.014704
   111  N   -0.364387
   112  C    0.117957
   113  C   -0.165034
   114  C   -0.033109
   115  C    0.166848
   116  C    0.154780
   117  C    0.031444
   118  O   -0.203807
   119  C    0.011470
   120  C    0.227397
   121  O   -0.237281
   122  O   -0.334808
   123  C    0.178518
   124  H   -0.045654
   125  H    0.005827
   126  H   -0.021614
   127  H    0.012729
   128  H    0.011993
   129  H    0.011759
   130  H    0.019055
   131  H    0.026781
   132  H    0.007714
   133  H    0.051629
   134  H    0.027144
   135  H    0.042182
   136  H    0.007277
   137  H    0.029970
   138  H    0.019362
   139  H    0.028762
   140  H    0.042004
   141  H    0.025861
   142  H    0.012607
   143  H   -0.000584
   144  H    0.024232
   145  H    0.022915
   146  H    0.008023
   147  H    0.006274
   148  H    0.012173
   149  H    0.013267
   150  H    0.012291
   151  H    0.019510
   152  H   -0.002887
   153  H    0.041618
   154  H    0.058753
   155  H    0.040341
   156  H    0.040993
   157  H    0.046794
   158  H    0.038684
 Sum of Mulliken charges =  -0.00000

 Dipole moment (field-independent basis, Debye):
    X=              0.5345    Y=              3.5044    Z=             -1.2775  Tot=              3.7681
 Quadrupole moment (field-independent basis, Debye-Ang):
   XX=           -439.3870   YY=           -586.0006   ZZ=           -481.8619
   XY=            -16.2324   XZ=             53.2615   YZ=            -14.7446

 Normal termination of Gaussian 16 at Wed Sep  1 08:02:49 2021.
