 Gaussian 16, Revision A.03,
 Gaussian 16:  ES64L-G16RevA.03 25-Dec-2016

 -----------------------------------
 #p cam-b3lyp/Def2SVP td=(nstates=5)
 -----------------------------------

 --------------------------------
 TDDFT excited states in gaussian
 --------------------------------
 Symbolic Z-matrix:
 Charge =  0 Multiplicity = 1

                         Standard orientation:
 ---------------------------------------------------------------------
 Center     Atomic      Atomic             Coordinates (Angstroms)
 Number     Number       Type             X           Y           Z
 ---------------------------------------------------------------------
      1         12           0       30.468811   -0.351595    0.121243
      2          6           0       27.134529    0.134270    1.119592
      3          6           0       29.439329   -3.046642   -1.749328
      4          6           0       33.436688   -0.264325   -1.338084
      5          6           0       31.352535    2.603375    1.883351
      6          7           0       28.497333   -1.163859   -0.455997
      7          6           0       27.231120   -0.815264    0.080930
      8          6           0       26.198221   -1.831786   -0.183322
      9          6           0       26.997691   -2.909299   -1.035740
     10          6           0       28.419465   -2.370879   -1.063050
     11          6           0       26.801414   -4.350524   -0.506246
     12          6           0       25.053004   -1.357104   -1.024797
     13          6           0       25.388126   -0.377060   -2.158979
     14          1           0       24.616259   -0.416687   -3.535147
     15          7           0       31.377415   -1.519506   -1.337469
     16          6           0       30.821073   -2.627100   -1.864137
     17          6           0       31.807093   -3.286174   -2.683494
     18          6           0       33.006831   -2.548262   -2.531305
     19          6           0       32.670594   -1.393865   -1.682564
     20          6           0       31.572005   -4.496619   -3.546525
     21          6           0       34.357890   -2.906057   -3.149875
     22          8           0       34.484819   -3.889221   -3.853255
     23          6           0       35.624865   -2.104628   -3.098719
     24          7           0       32.055992    1.104720    0.050195
     25          6           0       33.235664    0.875724   -0.606534
     26          6           0       34.346239    1.880864   -0.156189
     27          6           0       33.522052    2.944370    0.630770
     28          6           0       32.243859    2.177695    0.890840
     29          6           0       35.463117    1.283987    0.733775
     30          6           0       33.057266    4.231156   -0.201435
     31          6           0       33.259720    5.555146    0.441767
     32          7           0       29.559726    1.002650    1.317163
     33          6           0       30.078478    1.981368    2.070970
     34          6           0       29.106612    2.365464    3.163135
     35          6           0       27.952850    1.592215    2.817641
     36          6           0       28.231976    0.895566    1.607913
     37          6           0       29.251354    3.348833    4.315654
     38          6           0       26.568417    1.416309    3.149470
     39          8           0       25.886023    1.938951    4.016493
     40          6           0       25.992056    0.424822    2.059771
     41          6           0       24.990667    1.208499    1.236856
     42          8           0       25.209082    2.099541    0.484307
     43          8           0       23.750866    0.633755    1.419301
     44          6           0       22.738088    1.103010    0.468299
     45          1           0       29.144054   -4.007268   -2.176047
     46          1           0       34.474427   -0.318516   -1.671316
     47          1           0       31.735754    3.418439    2.500801
     48          1           0       25.820352   -2.175497    0.779573
     49          1           0       26.798452   -2.915401   -2.107310
     50          1           0       26.570458   -4.870744   -1.436003
     51          1           0       25.974746   -4.317851    0.203531
     52          1           0       27.714172   -4.782303   -0.095227
     53          1           0       24.184431   -1.036221   -0.449104
     54          1           0       24.537483   -2.142344   -1.578170
     55          1           0       26.456925   -0.507810   -2.331673
     56          1           0       25.273080    0.587427   -1.664066
     57          1           0       32.002843   -4.359624   -4.538902
     58          1           0       30.508090   -4.732048   -3.571234
     59          1           0       32.106413   -5.294655   -3.030557
     60          1           0       35.595606   -1.147783   -3.618967
     61          1           0       36.279963   -2.713733   -3.721746
     62          1           0       36.107856   -2.126450   -2.121229
     63          1           0       34.815821    2.279102   -1.055542
     64          1           0       33.987467    3.245654    1.569592
     65          1           0       35.372079    1.707852    1.733688
     66          1           0       36.431951    1.302865    0.234939
     67          1           0       35.276795    0.217066    0.851181
     68          1           0       32.017683    4.139743   -0.515250
     69          1           0       33.660875    4.183103   -1.107934
     70          1           0       33.852674    6.238241   -0.166064
     71          1           0       33.704485    5.493360    1.435246
     72          1           0       32.317335    6.083154    0.584903
     73          1           0       28.456616    4.084609    4.192554
     74          1           0       30.289439    3.682724    4.338397
     75          1           0       28.984289    2.786840    5.210516
     76          1           0       25.543269   -0.463226    2.504252
     77          1           0       23.158909    1.392166   -0.494619
     78          1           0       22.304333    1.968550    0.969192
     79          1           0       21.953823    0.346553    0.476460
     80         12           0      -30.282085    0.403987   -0.170755
     81          6           0      -27.595987   -0.478151    1.848448
     82          6           0      -31.841113   -2.480921    0.839139
     83          6           0      -32.844256    1.128557   -2.367383
     84          6           0      -28.431434    3.000885   -1.578517
     85          7           0      -29.795435   -1.218879    1.262666
     86          6           0      -28.715293   -1.330840    2.054491
     87          6           0      -28.785444   -2.476643    3.090755
     88          6           0      -30.068615   -3.263742    2.583002
     89          6           0      -30.622726   -2.290923    1.435018
     90          6           0      -29.634289   -4.692898    2.098397
     91          6           0      -28.948082   -1.791164    4.543310
     92          6           0      -27.917277   -2.213509    5.631274
     93          1           0      -27.206232   -3.584725    5.341581
     94          7           0      -32.060507   -0.538539   -0.775329
     95          6           0      -32.561838   -1.701117   -0.154218
     96          6           0      -33.920943   -1.917315   -0.602567
     97          6           0      -34.212371   -0.932307   -1.554696
     98          6           0      -33.036872    0.015201   -1.556382
     99          6           0      -34.664619   -3.222996   -0.287412
    100          6           0      -35.494844   -0.784396   -2.415671
    101          8           0      -35.700331    0.120628   -3.245920
    102          6           0      -36.643042   -1.781774   -2.184349
    103          7           0      -30.513453    1.828996   -1.792729
    104          6           0      -31.746045    1.932439   -2.506621
    105          6           0      -31.612850    2.945634   -3.662699
    106          6           0      -30.295179    3.731762   -3.210234
    107          6           0      -29.724847    2.823325   -2.089576
    108          6           0      -31.577357    2.201645   -4.987446
    109          6           0      -30.643684    5.170251   -2.638093
    110          6           0      -31.684606    5.465427   -1.504982
    111          7           0      -28.403446    1.091990   -0.008108
    112          6           0      -27.752217    2.151509   -0.647208
    113          6           0      -26.424756    2.258889   -0.134905
    114          6           0      -26.325283    1.300778    0.857766
    115          6           0      -27.514001    0.529984    0.844811
    116          6           0      -25.325395    3.185313   -0.612932
    117          6           0      -25.460914    0.769257    1.835508
    118          8           0      -24.321840    1.057558    2.022269
    119          6           0      -26.218315   -0.487208    2.434749
    120          6           0      -25.424877   -1.691454    2.008799
    121          8           0      -25.774340   -2.461192    1.138470
    122          8           0      -24.297645   -1.704061    2.730053
    123          6           0      -23.260510   -2.512633    2.137441
    124          1           0      -32.380321   -3.352949    1.214364
    125          1           0      -33.540366    1.198407   -3.205045
    126          1           0      -27.834162    3.803356   -2.017613
    127          1           0      -27.901646   -3.112503    3.138895
    128          1           0      -30.865701   -3.364698    3.319949
    129          1           0      -30.089561   -5.022749    1.164272
    130          1           0      -29.985828   -5.268755    2.954030
    131          1           0      -28.544945   -4.712787    2.120014
    132          1           0      -29.987135   -1.922891    4.844438
    133          1           0      -28.849056   -0.716099    4.391220
    134          1           0      -28.558001   -2.265529    6.510872
    135          1           0      -27.128896   -1.486947    5.825667
    136          1           0      -34.957756   -3.660586   -1.242046
    137          1           0      -35.593239   -2.991434    0.235992
    138          1           0      -34.025773   -3.880803    0.301066
    139          1           0      -36.323485   -2.733038   -2.611893
    140          1           0      -37.460256   -1.437250   -2.817820
    141          1           0      -36.996390   -1.698762   -1.156849
    142          1           0      -32.456392    3.623889   -3.530953
    143          1           0      -29.668359    3.932085   -4.078429
    144          1           0      -32.120624    1.256859   -4.962769
    145          1           0      -30.549331    1.991113   -5.281418
    146          1           0      -32.077727    2.776161   -5.766701
    147          1           0      -30.881556    5.812407   -3.486180
    148          1           0      -29.705382    5.469039   -2.170674
    149          1           0      -32.662669    5.598849   -1.967467
    150          1           0      -31.349620    6.394502   -1.042296
    151          1           0      -31.699092    4.763517   -0.670574
    152          1           0      -25.600355    4.235911   -0.517713
    153          1           0      -25.217405    2.934583   -1.667996
    154          1           0      -24.410040    3.178746   -0.019508
    155          1           0      -26.305316   -0.558837    3.519057
    156          1           0      -22.250943   -2.159278    2.345923
    157          1           0      -23.313023   -2.840957    1.099488
    158          1           0      -23.215817   -3.524237    2.541457
 ---------------------------------------------------------------------

 SCF Done:  E(RCAM-B3LYP) =  -4069.80419215     A.U. after   18 cycles

 Excitation energies and oscillator strengths:

 Excited State   1:      Singlet-A      1.6651 eV  744.61 nm  f=0.3747  <S**2>=0.000
     309 -> 315        0.17251
     311 -> 313        0.68782
     309 <- 315        0.10780
 This state for optimization and/or second-order correction.
 Total Energy, E(TD-HF/TD-DFT) =  -4069.74300129
 Copying the excited state density for this state as the 1-particle RhoCI density.

 Excited State   2:      Singlet-A      1.7043 eV  727.49 nm  f=0.3901  <S**2>=0.000
     310 -> 316        0.17575
     312 -> 314        0.68646
     310 <- 316        0.10653

 Excited State   3:      Singlet-A      2.2267 eV  556.81 nm  f=0.1273  <S**2>=0.000
     310 -> 314        0.64629
     312 -> 316       -0.27557

 Excited State   4:      Singlet-A      2.2662 eV  547.11 nm  f=0.1010  <S**2>=0.000
     309 -> 313        0.62924
     311 -> 315       -0.31016

 Excited State   5:      Singlet-A      3.1605 eV  392.30 nm  f=0.0000  <S**2>=0.000
     312 -> 313        0.70711

 The electronic state is 1-A.
 Alpha  occ. eigenvalues --  -46.88583 -46.88066 -19.26141 -19.24606 -19.20429
 Alpha  occ. eigenvalues --  -19.20054 -19.19348 -19.19126 -19.18601 -19.18251
 Alpha  occ. eigenvalues --  -14.42377 -14.42231 -14.41887 -14.41421 -14.39596
 Alpha  occ. eigenvalues --  -14.39543 -14.39535 -14.39046 -10.39312 -10.39246
 Alpha  occ. eigenvalues --  -10.35109 -10.34994 -10.34816 -10.34607 -10.31587
 Alpha  occ. eigenvalues --  -10.31438 -10.31342 -10.31211 -10.30948 -10.30819
 Alpha  occ. eigenvalues --  -10.30659 -10.30653 -10.30584 -10.30470 -10.30336
 Alpha  occ. eigenvalues --  -10.30143 -10.29950 -10.29887 -10.29816 -10.29649
 Alpha  occ. eigenvalues --  -10.29624 -10.29319 -10.28871 -10.28717 -10.28518
 Alpha  occ. eigenvalues --  -10.28508 -10.28507 -10.28386 -10.28336 -10.28290
 Alpha  occ. eigenvalues --  -10.28129 -10.28127 -10.28125 -10.28049 -10.27842
 Alpha  occ. eigenvalues --  -10.27823 -10.27746 -10.27652 -10.27649 -10.27582
 Alpha  occ. eigenvalues --  -10.27437 -10.27053 -10.27043 -10.26997 -10.26753
 Alpha  occ. eigenvalues --  -10.26719 -10.26702 -10.26674 -10.26622 -10.26564
 Alpha  occ. eigenvalues --  -10.26517 -10.26510 -10.26490 -10.26392 -10.26241
 Alpha  occ. eigenvalues --  -10.26004 -10.25803 -10.25775 -10.25596 -10.25514
 Alpha  occ. eigenvalues --  -10.25492 -10.25371 -10.25246 -10.25191 -10.25131
 Alpha  occ. eigenvalues --  -10.24669  -3.17227  -3.16668  -1.92089  -1.91688
 Alpha  occ. eigenvalues --   -1.91569  -1.91546  -1.91102  -1.90990  -1.18147
 Alpha  occ. eigenvalues --   -1.17267  -1.12003  -1.10411  -1.09953  -1.09070
 Alpha  occ. eigenvalues --   -1.08963  -1.08320  -1.04585  -1.04141  -1.03996
 Alpha  occ. eigenvalues --   -1.03340  -1.03306  -1.02697  -1.02629  -1.01150
 Alpha  occ. eigenvalues --   -0.93185  -0.92786  -0.89870  -0.89433  -0.88521
 Alpha  occ. eigenvalues --   -0.88389  -0.88119  -0.87741  -0.87528  -0.87065
 Alpha  occ. eigenvalues --   -0.86486  -0.86337  -0.86004  -0.85808  -0.84747
 Alpha  occ. eigenvalues --   -0.84171  -0.83919  -0.83386  -0.82716  -0.82273
 Alpha  occ. eigenvalues --   -0.81693  -0.81186  -0.80895  -0.80878  -0.80517
 Alpha  occ. eigenvalues --   -0.79923  -0.77949  -0.77701  -0.77510  -0.77096
 Alpha  occ. eigenvalues --   -0.76850  -0.76722  -0.76049  -0.75846  -0.75138
 Alpha  occ. eigenvalues --   -0.74945  -0.72946  -0.72706  -0.71694  -0.71169
 Alpha  occ. eigenvalues --   -0.69633  -0.68878  -0.68812  -0.68687  -0.68633
 Alpha  occ. eigenvalues --   -0.67959  -0.67088  -0.66356  -0.65868  -0.65840
 Alpha  occ. eigenvalues --   -0.65083  -0.64542  -0.64536  -0.64466  -0.64382
 Alpha  occ. eigenvalues --   -0.63925  -0.62372  -0.62103  -0.60009  -0.59986
 Alpha  occ. eigenvalues --   -0.59418  -0.59389  -0.59069  -0.58946  -0.58944
 Alpha  occ. eigenvalues --   -0.58406  -0.58140  -0.57986  -0.57383  -0.57241
 Alpha  occ. eigenvalues --   -0.56564  -0.56252  -0.56107  -0.55668  -0.55421
 Alpha  occ. eigenvalues --   -0.55103  -0.54890  -0.54607  -0.54372  -0.54076
 Alpha  occ. eigenvalues --   -0.53956  -0.53355  -0.53111  -0.53045  -0.52856
 Alpha  occ. eigenvalues --   -0.52576  -0.52376  -0.52287  -0.52196  -0.52128
 Alpha  occ. eigenvalues --   -0.51980  -0.51843  -0.51723  -0.51621  -0.51425
 Alpha  occ. eigenvalues --   -0.51163  -0.50942  -0.50932  -0.50603  -0.50136
 Alpha  occ. eigenvalues --   -0.49892  -0.49800  -0.49608  -0.49496  -0.49407
 Alpha  occ. eigenvalues --   -0.49255  -0.49152  -0.48941  -0.48830  -0.48770
 Alpha  occ. eigenvalues --   -0.48602  -0.48581  -0.48367  -0.48317  -0.47934
 Alpha  occ. eigenvalues --   -0.47724  -0.47558  -0.47465  -0.47200  -0.47118
 Alpha  occ. eigenvalues --   -0.47109  -0.46907  -0.46784  -0.46641  -0.46380
 Alpha  occ. eigenvalues --   -0.46254  -0.46157  -0.46007  -0.45884  -0.45712
 Alpha  occ. eigenvalues --   -0.45561  -0.45505  -0.45231  -0.45170  -0.44921
 Alpha  occ. eigenvalues --   -0.44678  -0.44619  -0.44536  -0.44375  -0.44310
 Alpha  occ. eigenvalues --   -0.44051  -0.43906  -0.43741  -0.43603  -0.43589
 Alpha  occ. eigenvalues --   -0.43398  -0.43234  -0.43040  -0.43000  -0.42807
 Alpha  occ. eigenvalues --   -0.42640  -0.42525  -0.42383  -0.42367  -0.42201
 Alpha  occ. eigenvalues --   -0.42130  -0.41911  -0.41904  -0.41736  -0.41303
 Alpha  occ. eigenvalues --   -0.41121  -0.40793  -0.40775  -0.40662  -0.40403
 Alpha  occ. eigenvalues --   -0.40263  -0.39825  -0.39548  -0.39157  -0.39135
 Alpha  occ. eigenvalues --   -0.38458  -0.37882  -0.37666  -0.37446  -0.37335
 Alpha  occ. eigenvalues --   -0.37080  -0.37049  -0.37040  -0.36450  -0.36445
 Alpha  occ. eigenvalues --   -0.36102  -0.35767  -0.35107  -0.34789  -0.34231
 Alpha  occ. eigenvalues --   -0.34080  -0.33027  -0.32651  -0.31631  -0.31381
 Alpha  occ. eigenvalues --   -0.31104  -0.30947  -0.30539  -0.30430  -0.30255
 Alpha  occ. eigenvalues --   -0.29906  -0.29656  -0.29571  -0.24312  -0.23753
 Alpha  occ. eigenvalues --   -0.21049  -0.20962
 Alpha virt. eigenvalues --   -0.08782  -0.08535  -0.01791  -0.01326   0.00215
 Alpha virt. eigenvalues --    0.00574   0.01378   0.02495   0.02521   0.02575
 Alpha virt. eigenvalues --    0.04546   0.05050   0.05427   0.05888   0.06141

 Mulliken charges:
               1
     1  Mg   0.832767
     2  C   -0.065648
     3  C   -0.081987
     4  C   -0.051828
     5  C   -0.084128
     6  N   -0.298303
     7  C   -0.025755
     8  C    0.018455
     9  C   -0.084320
    10  C    0.035854
    11  C    0.085083
    12  C    0.008054
    13  C   -0.055355
    14  H    0.025489
    15  N   -0.351562
    16  C    0.137571
    17  C   -0.183566
    18  C   -0.001194
    19  C    0.138257
    20  C    0.160173
    21  C   -0.032210
    22  O   -0.207993
    23  C    0.057949
    24  N   -0.289651
    25  C    0.015910
    26  C   -0.027191
    27  C   -0.062492
    28  C    0.016114
    29  C    0.089644
    30  C    0.056730
    31  C    0.010154
    32  N   -0.344925
    33  C    0.137321
    34  C   -0.195333
    35  C   -0.004420
    36  C    0.133872
    37  C    0.146234
    38  C    0.051131
    39  O   -0.169722
    40  C    0.007143
    41  C    0.187084
    42  O   -0.181060
    43  O   -0.345676
    44  C    0.175654
    45  H   -0.026732
    46  H   -0.055791
    47  H   -0.024800
    48  H    0.014639
    49  H    0.028491
    50  H    0.016092
    51  H    0.023436
    52  H    0.024304
    53  H   -0.006931
    54  H   -0.001137
    55  H    0.031149
    56  H    0.037565
    57  H    0.042143
    58  H   -0.001156
    59  H    0.032074
    60  H    0.043737
    61  H    0.018238
    62  H    0.031567
    63  H    0.006931
    64  H    0.007277
    65  H    0.018880
    66  H    0.023713
    67  H    0.006583
    68  H    0.033382
    69  H   -0.000396
    70  H    0.016115
    71  H    0.005064
    72  H    0.013764
    73  H    0.046471
    74  H    0.016172
    75  H    0.034356
    76  H    0.034135
    77  H    0.056368
    78  H    0.035430
    79  H    0.036544
    80  Mg   0.826332
    81  C   -0.012268
    82  C   -0.055203
    83  C   -0.055308
    84  C   -0.101743
    85  N   -0.262885
    86  C   -0.021615
    87  C   -0.037415
    88  C   -0.073743
    89  C    0.047855
    90  C    0.074578
    91  C    0.036468
    92  C   -0.072632
    93  H    0.021619
    94  N   -0.381516
    95  C    0.116829
    96  C   -0.159372
    97  C   -0.046565
    98  C    0.112347
    99  C    0.135764
   100  C    0.005265
   101  O   -0.221311
   102  C    0.048244
   103  N   -0.269123
   104  C    0.003971
   105  C   -0.013049
   106  C   -0.018905
   107  C    0.072181
   108  C    0.091481
   109  C   -0.014723
   110  C    0.000576
   111  N   -0.397774
   112  C    0.133568
   113  C   -0.171118
   114  C    0.038079
   115  C    0.109019
   116  C    0.123567
   117  C    0.021066
   118  O   -0.126738
   119  C   -0.025987
   120  C    0.176004
   121  O   -0.208521
   122  O   -0.277522
   123  C    0.182026
   124  H   -0.037515
   125  H    0.007426
   126  H   -0.023665
   127  H    0.021961
   128  H    0.013742
   129  H    0.030041
   130  H    0.010715
   131  H    0.027828
   132  H    0.008556
   133  H    0.018910
   134  H    0.034144
   135  H    0.048650
   136  H    0.023678
   137  H    0.016882
   138  H    0.018132
   139  H    0.040357
   140  H    0.017706
   141  H    0.042660
   142  H    0.008197
   143  H    0.001961
   144  H    0.024899
   145  H    0.013010
   146  H    0.014146
   147  H    0.012836
   148  H   -0.002235
   149  H    0.027130
   150  H    0.014291
   151  H    0.022611
   152  H    0.015015
   153  H    0.034284
   154  H    0.032747
   155  H    0.026017
   156  H    0.038662
   157  H    0.037260
   158  H    0.007154
 Sum of Mulliken charges =  -0.00000

 Dipole moment (field-independent basis, Debye):
    X=              1.2406    Y=             -1.0670    Z=              3.0196  Tot=              3.4345
 Quadrupole moment (field-independent basis, Debye-Ang):
   XX=           -364.1463   YY=           -495.8331   ZZ=           -525.0378
   XY=             47.8404   XZ=            -33.9264   YZ=            -24.9667

 Normal termination of Gaussian 16 at Tue Sep 14 19:06:55 2021.
