 Gaussian 16, Revision A.03,
 Gaussian 16:  ES64L-G16RevA.03 25-Dec-2016

 -----------------------------------
 #p cam-b3lyp/Def2SVP td=(nstates=5)
 -----------------------------------

 --------------------------------
 TDDFT excited states in gaussian
 --------------------------------
 Symbolic Z-matrix:
 Charge =  0 Multiplicity = 1

                         Standard orientation:
 ---------------------------------------------------------------------
 Center     Atomic      Atomic             Coordinates (Angstroms)
 Number     Number       Type             X           Y           Z
 ---------------------------------------------------------------------
      1         12           0      -26.915787    0.627811    0.318720
      2          6           0      -24.708266   -1.780069    1.554825
      3          6           0      -28.409974   -1.949872   -1.529897
      4          6           0      -28.734612    2.872190   -1.370546
      5          6           0      -24.729316    3.075192    1.354562
      6          7           0      -26.672758   -1.692554    0.103623
      7          6           0      -25.641289   -2.352092    0.694816
      8          6           0      -25.663498   -3.882197    0.300998
      9          6           0      -26.728237   -3.855941   -0.908448
     10          6           0      -27.286556   -2.425080   -0.830104
     11          6           0      -25.917421   -3.984868   -2.246714
     12          6           0      -26.230267   -4.675434    1.535337
     13          6           0      -26.477222   -6.197971    1.354483
     14          1           0      -27.654999   -7.020032    1.786237
     15          7           0      -28.477452    0.442054   -1.060450
     16          6           0      -29.003634   -0.694603   -1.696715
     17          6           0      -30.021131   -0.269145   -2.563090
     18          6           0      -30.258232    1.088411   -2.393774
     19          6           0      -29.141546    1.525499   -1.572227
     20          6           0      -30.806162   -1.269076   -3.347221
     21          6           0      -31.319429    2.032676   -3.049067
     22          8           0      -31.439708    3.228397   -2.804680
     23          6           0      -32.463007    1.494184   -3.913124
     24          7           0      -26.664885    2.654378   -0.045979
     25          6           0      -27.638244    3.369524   -0.652921
     26          6           0      -27.461336    4.894465   -0.516436
     27          6           0      -26.103141    4.959960    0.235749
     28          6           0      -25.846652    3.522565    0.651570
     29          6           0      -27.622512    5.690225   -1.854123
     30          6           0      -25.985810    5.977157    1.403796
     31          6           0      -26.661029    5.616338    2.658497
     32          7           0      -25.138494    0.704871    1.341593
     33          6           0      -24.383469    1.721730    1.687320
     34          6           0      -23.250634    1.305809    2.520583
     35          6           0      -23.383994   -0.118790    2.475624
     36          6           0      -24.502612   -0.434903    1.729697
     37          6           0      -22.484679    2.083486    3.485781
     38          6           0      -22.778178   -1.343168    2.969084
     39          8           0      -21.864448   -1.515320    3.743630
     40          6           0      -23.599619   -2.456941    2.308502
     41          6           0      -22.718029   -3.399803    1.482835
     42          8           0      -22.298822   -3.148123    0.383077
     43          8           0      -22.431417   -4.520482    2.225112
     44          6           0      -21.586481   -5.488104    1.487975
     45          1           0      -28.947079   -2.776800   -1.997286
     46          1           0      -29.428893    3.635583   -1.728566
     47          1           0      -24.297465    4.024003    1.677636
     48          1           0      -24.701362   -4.231374   -0.074661
     49          1           0      -27.495438   -4.629415   -0.855561
     50          1           0      -25.812964   -3.078522   -2.842281
     51          1           0      -26.472020   -4.549912   -2.996280
     52          1           0      -24.917193   -4.398570   -2.119889
     53          1           0      -27.151702   -4.180159    1.840344
     54          1           0      -25.547556   -4.496110    2.366349
     55          1           0      -25.559011   -6.653717    1.726162
     56          1           0      -26.525973   -6.259161    0.267996
     57          1           0      -30.486993   -2.306556   -3.244343
     58          1           0      -30.888048   -0.899695   -4.370368
     59          1           0      -31.798467   -1.222494   -2.897757
     60          1           0      -32.134705    1.069851   -4.862007
     61          1           0      -33.286567    2.192198   -4.064392
     62          1           0      -32.949768    0.717937   -3.322399
     63          1           0      -28.318219    5.073607    0.132396
     64          1           0      -25.380794    5.191258   -0.547080
     65          1           0      -28.305743    5.179694   -2.532031
     66          1           0      -26.651531    5.767966   -2.343962
     67          1           0      -28.043916    6.684673   -1.705726
     68          1           0      -26.450966    6.859117    0.964605
     69          1           0      -24.938893    6.238498    1.559170
     70          1           0      -26.015997    4.958942    3.241260
     71          1           0      -27.641128    5.180512    2.465665
     72          1           0      -26.801007    6.480710    3.308306
     73          1           0      -23.150510    2.896773    3.775424
     74          1           0      -21.589171    2.616159    3.165353
     75          1           0      -22.232573    1.403635    4.298941
     76          1           0      -24.098903   -3.013796    3.102111
     77          1           0      -20.918382   -5.971773    2.200333
     78          1           0      -20.850235   -5.061259    0.806583
     79          1           0      -22.193719   -6.272103    1.036697
     80         12           0       26.681308    0.645576   -0.100917
     81          6           0       25.263483   -2.266289   -1.491251
     82          6           0       27.468935   -1.267885    2.667283
     83          6           0       27.984026    3.409395    1.421850
     84          6           0       25.556920    2.453124   -2.696643
     85          7           0       26.424038   -1.557391    0.507035
     86          6           0       25.940832   -2.606455   -0.265739
     87          6           0       26.252630   -3.935642    0.392143
     88          6           0       26.624133   -3.538721    1.867130
     89          6           0       26.863759   -2.060122    1.659621
     90          6           0       25.555177   -3.912406    2.967560
     91          6           0       27.431380   -4.672721   -0.260868
     92          6           0       27.299707   -6.198187   -0.323987
     93          1           0       27.378855   -7.004441    1.002196
     94          7           0       27.674074    1.010706    1.729584
     95          6           0       27.829379    0.074669    2.694058
     96          6           0       28.404643    0.696373    3.842297
     97          6           0       28.728812    2.058493    3.515830
     98          6           0       28.085672    2.214041    2.223061
     99          6           0       28.649102   -0.055529    5.121152
    100          6           0       29.405149    3.167727    4.321675
    101          8           0       29.747818    4.248714    3.793854
    102          6           0       29.634689    3.066767    5.825399
    103          7           0       26.835519    2.602774   -0.609452
    104          6           0       27.352054    3.614689    0.194179
    105          6           0       27.157326    4.927789   -0.491878
    106          6           0       26.438513    4.695072   -1.869344
    107          6           0       26.287458    3.167724   -1.782287
    108          6           0       26.541082    6.045035    0.402836
    109          6           0       27.233928    5.132208   -3.118495
    110          6           0       26.853336    6.535053   -3.629993
    111          7           0       25.610067    0.263055   -1.718653
    112          6           0       25.241757    1.077050   -2.788923
    113          6           0       24.536355    0.313837   -3.884230
    114          6           0       24.525412   -0.981429   -3.341730
    115          6           0       25.216201   -0.981635   -2.087437
    116          6           0       24.007304    0.875520   -5.191291
    117          6           0       24.074502   -2.331543   -3.643793
    118          8           0       23.438652   -2.776040   -4.600436
    119          6           0       24.665973   -3.229380   -2.475694
    120          6           0       23.467930   -4.038883   -1.941667
    121          8           0       22.337111   -3.630102   -1.776357
    122          8           0       23.848612   -5.375109   -1.833902
    123          6           0       22.774981   -6.236607   -1.338340
    124          1           0       27.773592   -1.917379    3.490336
    125          1           0       28.374447    4.352242    1.809939
    126          1           0       25.122357    3.128141   -3.436419
    127          1           0       25.411976   -4.627460    0.438890
    128          1           0       27.528547   -4.010556    2.251290
    129          1           0       24.709625   -4.506288    2.619313
    130          1           0       25.059502   -3.081062    3.468262
    131          1           0       26.000891   -4.538801    3.740281
    132          1           0       28.369281   -4.448679    0.246792
    133          1           0       27.539406   -4.378036   -1.304895
    134          1           0       27.999957   -6.637852   -1.034095
    135          1           0       26.353493   -6.494466   -0.776279
    136          1           0       27.685987   -0.541113    5.279079
    137          1           0       28.847789    0.525524    6.021593
    138          1           0       29.413460   -0.829698    5.057919
    139          1           0       28.719774    2.770715    6.338875
    140          1           0       29.951728    4.079913    6.072200
    141          1           0       30.387813    2.313988    6.058236
    142          1           0       28.148704    5.367577   -0.604927
    143          1           0       25.429720    5.103730   -1.940750
    144          1           0       26.308890    5.602277    1.371663
    145          1           0       25.611757    6.386281   -0.052457
    146          1           0       27.333885    6.790384    0.474519
    147          1           0       27.152758    4.328859   -3.850378
    148          1           0       28.287978    5.271967   -2.877612
    149          1           0       26.425673    7.120783   -2.816046
    150          1           0       26.073288    6.582996   -4.390041
    151          1           0       27.769394    7.037364   -3.942250
    152          1           0       24.870841    1.093125   -5.820069
    153          1           0       23.444959    1.805630   -5.111459
    154          1           0       23.399764    0.082250   -5.626570
    155          1           0       25.457143   -3.920487   -2.765807
    156          1           0       22.736012   -6.341387   -0.253669
    157          1           0       22.961988   -7.190453   -1.831406
    158          1           0       21.739322   -5.971560   -1.551028
 ---------------------------------------------------------------------

 SCF Done:  E(RCAM-B3LYP) =  -4069.85578136     A.U. after   17 cycles

 Excitation energies and oscillator strengths:

 Excited State   1:      Singlet-A      1.7014 eV  728.71 nm  f=0.3761  <S**2>=0.000
     309 -> 315       -0.18653
     312 -> 313        0.68387
     309 <- 315       -0.10956
 This state for optimization and/or second-order correction.
 Total Energy, E(TD-HF/TD-DFT) =  -4069.79325494
 Copying the excited state density for this state as the 1-particle RhoCI density.

 Excited State   2:      Singlet-A      1.7450 eV  710.50 nm  f=0.3899  <S**2>=0.000
     310 -> 316        0.18611
     311 -> 314        0.68384
     310 <- 316        0.10700

 Excited State   3:      Singlet-A      2.2323 eV  555.40 nm  f=0.0988  <S**2>=0.000
     309 -> 313        0.63577
     312 -> 315        0.29945

 Excited State   4:      Singlet-A      2.2617 eV  548.19 nm  f=0.1159  <S**2>=0.000
     310 -> 314        0.64504
     311 -> 316       -0.27672

 Excited State   5:      Singlet-A      3.2269 eV  384.22 nm  f=0.0000  <S**2>=0.000
     311 -> 313        0.70711

 The electronic state is 1-A.
 Alpha  occ. eigenvalues --  -46.88700 -46.87632 -19.25778 -19.25747 -19.20407
 Alpha  occ. eigenvalues --  -19.20394 -19.19426 -19.19190 -19.19081 -19.18827
 Alpha  occ. eigenvalues --  -14.42659 -14.42238 -14.41260 -14.41054 -14.39878
 Alpha  occ. eigenvalues --  -14.39465 -14.39139 -14.39131 -10.39773 -10.39668
 Alpha  occ. eigenvalues --  -10.36161 -10.35830 -10.35063 -10.34503 -10.31806
 Alpha  occ. eigenvalues --  -10.31461 -10.31423 -10.31070 -10.30858 -10.30728
 Alpha  occ. eigenvalues --  -10.30711 -10.30624 -10.30568 -10.30352 -10.30309
 Alpha  occ. eigenvalues --  -10.30261 -10.29954 -10.29643 -10.29610 -10.29569
 Alpha  occ. eigenvalues --  -10.29205 -10.29089 -10.28727 -10.28723 -10.28697
 Alpha  occ. eigenvalues --  -10.28691 -10.28669 -10.28612 -10.28551 -10.28543
 Alpha  occ. eigenvalues --  -10.28388 -10.28362 -10.27955 -10.27839 -10.27731
 Alpha  occ. eigenvalues --  -10.27637 -10.27591 -10.27531 -10.27499 -10.27418
 Alpha  occ. eigenvalues --  -10.27356 -10.27267 -10.27187 -10.27093 -10.27050
 Alpha  occ. eigenvalues --  -10.27030 -10.27028 -10.26953 -10.26586 -10.26409
 Alpha  occ. eigenvalues --  -10.26388 -10.26345 -10.26320 -10.26185 -10.25993
 Alpha  occ. eigenvalues --  -10.25984 -10.25983 -10.25974 -10.25827 -10.25677
 Alpha  occ. eigenvalues --  -10.25646 -10.25546 -10.25282 -10.25264 -10.25123
 Alpha  occ. eigenvalues --  -10.24289  -3.17262  -3.16415  -1.92150  -1.91732
 Alpha  occ. eigenvalues --   -1.91550  -1.91313  -1.90846  -1.90759  -1.16825
 Alpha  occ. eigenvalues --   -1.16285  -1.10392  -1.10293  -1.09216  -1.08913
 Alpha  occ. eigenvalues --   -1.08762  -1.08158  -1.04964  -1.04699  -1.03776
 Alpha  occ. eigenvalues --   -1.03651  -1.03341  -1.03058  -1.02434  -1.01441
 Alpha  occ. eigenvalues --   -0.93815  -0.92558  -0.89428  -0.89419  -0.89006
 Alpha  occ. eigenvalues --   -0.88558  -0.88282  -0.88240  -0.87477  -0.87468
 Alpha  occ. eigenvalues --   -0.87215  -0.86999  -0.86193  -0.86131  -0.84400
 Alpha  occ. eigenvalues --   -0.84060  -0.83618  -0.83534  -0.82398  -0.82285
 Alpha  occ. eigenvalues --   -0.81715  -0.81532  -0.80973  -0.80919  -0.80405
 Alpha  occ. eigenvalues --   -0.80071  -0.78505  -0.78441  -0.77588  -0.77453
 Alpha  occ. eigenvalues --   -0.77273  -0.76577  -0.76146  -0.76138  -0.75045
 Alpha  occ. eigenvalues --   -0.74856  -0.72667  -0.72475  -0.71793  -0.71649
 Alpha  occ. eigenvalues --   -0.70044  -0.69371  -0.69156  -0.68803  -0.68349
 Alpha  occ. eigenvalues --   -0.68173  -0.67302  -0.66999  -0.65774  -0.65491
 Alpha  occ. eigenvalues --   -0.65365  -0.64821  -0.64478  -0.64434  -0.64149
 Alpha  occ. eigenvalues --   -0.64004  -0.62562  -0.62482  -0.60360  -0.60138
 Alpha  occ. eigenvalues --   -0.60064  -0.59442  -0.59371  -0.58921  -0.58627
 Alpha  occ. eigenvalues --   -0.58486  -0.58235  -0.57736  -0.57485  -0.57343
 Alpha  occ. eigenvalues --   -0.56546  -0.56007  -0.55721  -0.55498  -0.55437
 Alpha  occ. eigenvalues --   -0.55228  -0.55101  -0.54679  -0.54590  -0.54007
 Alpha  occ. eigenvalues --   -0.53790  -0.53483  -0.53242  -0.53133  -0.53122
 Alpha  occ. eigenvalues --   -0.52866  -0.52683  -0.52554  -0.52540  -0.52137
 Alpha  occ. eigenvalues --   -0.52089  -0.51841  -0.51737  -0.51210  -0.51125
 Alpha  occ. eigenvalues --   -0.51008  -0.50593  -0.50471  -0.50278  -0.50202
 Alpha  occ. eigenvalues --   -0.50029  -0.49916  -0.49782  -0.49622  -0.49448
 Alpha  occ. eigenvalues --   -0.49354  -0.49212  -0.49057  -0.48967  -0.48889
 Alpha  occ. eigenvalues --   -0.48815  -0.48490  -0.48481  -0.48228  -0.48072
 Alpha  occ. eigenvalues --   -0.47895  -0.47606  -0.47492  -0.47389  -0.47089
 Alpha  occ. eigenvalues --   -0.46841  -0.46652  -0.46647  -0.46513  -0.46262
 Alpha  occ. eigenvalues --   -0.46109  -0.45994  -0.45892  -0.45730  -0.45502
 Alpha  occ. eigenvalues --   -0.45362  -0.45069  -0.44962  -0.44908  -0.44728
 Alpha  occ. eigenvalues --   -0.44612  -0.44518  -0.44419  -0.44341  -0.44330
 Alpha  occ. eigenvalues --   -0.44202  -0.44072  -0.43848  -0.43660  -0.43577
 Alpha  occ. eigenvalues --   -0.43483  -0.43330  -0.43237  -0.43174  -0.43000
 Alpha  occ. eigenvalues --   -0.42894  -0.42672  -0.42567  -0.42398  -0.42385
 Alpha  occ. eigenvalues --   -0.42344  -0.41925  -0.41841  -0.41738  -0.41652
 Alpha  occ. eigenvalues --   -0.41596  -0.41217  -0.41039  -0.40764  -0.40436
 Alpha  occ. eigenvalues --   -0.40247  -0.40231  -0.39677  -0.39603  -0.38835
 Alpha  occ. eigenvalues --   -0.38697  -0.38469  -0.38298  -0.37920  -0.37840
 Alpha  occ. eigenvalues --   -0.37740  -0.37319  -0.37251  -0.36861  -0.36707
 Alpha  occ. eigenvalues --   -0.36624  -0.36350  -0.35145  -0.34941  -0.34920
 Alpha  occ. eigenvalues --   -0.34262  -0.33155  -0.32840  -0.31507  -0.31435
 Alpha  occ. eigenvalues --   -0.31084  -0.30961  -0.30927  -0.30800  -0.30542
 Alpha  occ. eigenvalues --   -0.30045  -0.29985  -0.29174  -0.23938  -0.23785
 Alpha  occ. eigenvalues --   -0.21067  -0.21064
 Alpha virt. eigenvalues --   -0.08560  -0.08377  -0.01767  -0.01322   0.00010
 Alpha virt. eigenvalues --    0.00443   0.01760   0.01905   0.02563   0.03751
 Alpha virt. eigenvalues --    0.04768   0.05043   0.05156   0.05551   0.05618

 Mulliken charges:
               1
     1  Mg   0.838627
     2  C    0.003005
     3  C   -0.061077
     4  C   -0.104761
     5  C   -0.054748
     6  N   -0.218647
     7  C   -0.092749
     8  C   -0.042336
     9  C   -0.061326
    10  C    0.010998
    11  C    0.050371
    12  C    0.024650
    13  C   -0.040713
    14  H    0.041602
    15  N   -0.391175
    16  C    0.155157
    17  C   -0.142608
    18  C   -0.042397
    19  C    0.127178
    20  C    0.119214
    21  C    0.040022
    22  O   -0.203578
    23  C    0.039531
    24  N   -0.333275
    25  C    0.048218
    26  C   -0.057743
    27  C    0.015388
    28  C   -0.039411
    29  C    0.082155
    30  C    0.031358
    31  C    0.039674
    32  N   -0.320474
    33  C    0.146498
    34  C   -0.155194
    35  C   -0.024221
    36  C    0.123377
    37  C    0.118393
    38  C    0.036025
    39  O   -0.149046
    40  C   -0.004655
    41  C    0.202099
    42  O   -0.198422
    43  O   -0.329902
    44  C    0.164262
    45  H   -0.038348
    46  H   -0.000496
    47  H   -0.043696
    48  H    0.025025
    49  H    0.023757
    50  H    0.021442
    51  H    0.003556
    52  H    0.029326
    53  H    0.011271
    54  H    0.008510
    55  H    0.027379
    56  H    0.016233
    57  H    0.020647
    58  H    0.026117
    59  H    0.028282
    60  H    0.036711
    61  H    0.028214
    62  H    0.021108
    63  H    0.014641
    64  H    0.015017
    65  H    0.028221
    66  H    0.010051
    67  H    0.017421
    68  H   -0.003787
    69  H    0.009897
    70  H    0.011551
    71  H    0.012328
    72  H    0.011274
    73  H    0.009253
    74  H    0.018036
    75  H    0.040668
    76  H    0.048848
    77  H    0.031864
    78  H    0.052107
    79  H    0.038232
    80  Mg   0.856957
    81  C   -0.058732
    82  C   -0.109479
    83  C   -0.071388
    84  C   -0.087076
    85  N   -0.241850
    86  C   -0.014037
    87  C    0.014365
    88  C   -0.051407
    89  C   -0.006685
    90  C    0.052930
    91  C    0.064884
    92  C   -0.070539
    93  H    0.002372
    94  N   -0.342943
    95  C    0.211706
    96  C   -0.159432
    97  C   -0.006363
    98  C    0.104295
    99  C    0.108366
   100  C    0.005846
   101  O   -0.228241
   102  C    0.038022
   103  N   -0.379047
   104  C    0.084270
   105  C   -0.051038
   106  C   -0.001762
   107  C    0.029962
   108  C    0.063122
   109  C    0.045016
   110  C   -0.000573
   111  N   -0.392732
   112  C    0.133042
   113  C   -0.159668
   114  C   -0.023307
   115  C    0.156269
   116  C    0.124932
   117  C    0.083860
   118  O   -0.172884
   119  C   -0.034165
   120  C    0.197905
   121  O   -0.193112
   122  O   -0.339685
   123  C    0.167143
   124  H   -0.033794
   125  H   -0.010980
   126  H   -0.037296
   127  H    0.007786
   128  H    0.014678
   129  H    0.013066
   130  H    0.020461
   131  H    0.012817
   132  H    0.016725
   133  H    0.011991
   134  H    0.024781
   135  H    0.028576
   136  H    0.025000
   137  H    0.003816
   138  H    0.034947
   139  H    0.040297
   140  H    0.037955
   141  H    0.041714
   142  H    0.016566
   143  H    0.017697
   144  H    0.022123
   145  H    0.012484
   146  H    0.021699
   147  H    0.012880
   148  H    0.003394
   149  H    0.004443
   150  H    0.019159
   151  H    0.018453
   152  H    0.027663
   153  H    0.026026
   154  H    0.042298
   155  H    0.042742
   156  H    0.025744
   157  H    0.037231
   158  H    0.047738
 Sum of Mulliken charges =  -0.00000

 Dipole moment (field-independent basis, Debye):
    X=             -1.1332    Y=             -2.2865    Z=              1.5810  Tot=              3.0020
 Quadrupole moment (field-independent basis, Debye-Ang):
   XX=           -257.0123   YY=           -466.0044   ZZ=           -513.7475
   XY=             14.0379   XZ=            117.6770   YZ=            -13.9900

 Normal termination of Gaussian 16 at Tue Aug 31 22:32:02 2021.
