 Gaussian 16, Revision A.03,
 Gaussian 16:  ES64L-G16RevA.03 25-Dec-2016

 -----------------------------------------------------------
 #p cam-b3lyp/Def2SVP td=(nstates=5, root=1) density=current
 -----------------------------------------------------------

 --------------------------------
 TDDFT excited states in gaussian
 --------------------------------
 Symbolic Z-matrix:
 Charge =  0 Multiplicity = 1

                         Standard orientation:
 ---------------------------------------------------------------------
 Center     Atomic      Atomic             Coordinates (Angstroms)
 Number     Number       Type             X           Y           Z
 ---------------------------------------------------------------------
      1         12           0       -0.674999    0.044692   -0.458868
      2          6           0        2.664949    0.157537    0.370773
      3          6           0       -0.499250   -3.365782   -0.413332
      4          6           0       -3.945197    0.027577    0.008277
      5          6           0       -0.684323    3.555516   -0.419983
      6          7           0        0.842640   -1.375644    0.403963
      7          6           0        2.176584   -1.124261    0.441552
      8          6           0        2.996705   -2.367624    0.620068
      9          6           0        2.047476   -3.412258   -0.051312
     10          6           0        0.725698   -2.660108   -0.098923
     11          6           0        2.574062   -3.920775   -1.423947
     12          6           0        3.249852   -2.712935    2.172685
     13          6           0        4.669580   -3.367865    2.507247
     14          1           0        4.422398   -4.724527    3.119137
     15          7           0       -2.043639   -1.478280   -0.433838
     16          6           0       -1.831554   -2.809043   -0.335626
     17          6           0       -3.096820   -3.527365   -0.250156
     18          6           0       -4.109276   -2.550082   -0.160286
     19          6           0       -3.367740   -1.258112   -0.188808
     20          6           0       -3.138450   -5.073904   -0.197641
     21          6           0       -5.542489   -2.885395    0.145254
     22          8           0       -5.874353   -4.038220    0.240661
     23          6           0       -6.649587   -1.845479    0.403136
     24          7           0       -2.187619    1.576709   -0.360505
     25          6           0       -3.399886    1.307505   -0.156170
     26          6           0       -4.241873    2.507929    0.072618
     27          6           0       -3.201035    3.686171   -0.076896
     28          6           0       -1.960504    2.934167   -0.294425
     29          6           0       -5.485649    2.534020   -0.878781
     30          6           0       -3.141968    4.605279    1.229788
     31          6           0       -2.516113    6.037479    1.080030
     32          7           0        0.672321    1.584731   -0.189816
     33          6           0        0.535999    2.955867   -0.309457
     34          6           0        1.817803    3.600058   -0.232282
     35          6           0        2.724475    2.505453   -0.008410
     36          6           0        1.972762    1.352537    0.111246
     37          6           0        2.120891    5.058337   -0.358417
     38          6           0        4.100028    2.178969    0.146259
     39          8           0        5.155920    2.824353    0.171238
     40          6           0        4.103472    0.678744    0.590480
     41          6           0        5.182837    0.005703   -0.190013
     42          8           0        6.344925   -0.159646    0.206751
     43          8           0        4.710427   -0.346321   -1.424200
     44          6           0        5.814579   -0.972069   -2.204682
     45          1           0       -0.529000   -4.447832   -0.559932
     46          1           0       -5.015029   -0.010759    0.221187
     47          1           0       -0.710456    4.638227   -0.274981
     48          1           0        3.877509   -2.190300    0.004239
     49          1           0        2.001148   -4.303304    0.574998
     50          1           0        2.786540   -4.987235   -1.354796
     51          1           0        3.534033   -3.433642   -1.598102
     52          1           0        1.842212   -3.637870   -2.179912
     53          1           0        2.472322   -3.291625    2.671121
     54          1           0        3.207867   -1.804464    2.772672
     55          1           0        5.079850   -2.724474    3.285740
     56          1           0        5.443446   -3.404518    1.740423
     57          1           0       -3.615264   -5.490801    0.689381
     58          1           0       -2.164830   -5.549374   -0.321444
     59          1           0       -3.675648   -5.402372   -1.086752
     60          1           0       -6.865911   -1.222886   -0.464397
     61          1           0       -6.460726   -1.209359    1.268246
     62          1           0       -7.495957   -2.433009    0.760203
     63          1           0       -4.539058    2.406953    1.116365
     64          1           0       -3.268289    4.329910   -0.953595
     65          1           0       -6.368946    2.557838   -0.240941
     66          1           0       -5.506012    1.672349   -1.546263
     67          1           0       -5.626705    3.479274   -1.402668
     68          1           0       -2.581020    4.100031    2.016306
     69          1           0       -4.174951    4.690731    1.563858
     70          1           0       -3.098021    6.932114    1.299941
     71          1           0       -2.215671    6.216548    0.048574
     72          1           0       -1.620522    6.122600    1.695497
     73          1           0        1.303517    5.701427   -0.684075
     74          1           0        2.933594    5.003644   -1.081604
     75          1           0        2.537643    5.246559    0.631107
     76          1           0        4.256889    0.527620    1.659529
     77          1           0        6.552038   -0.211543   -2.459321
     78          1           0        5.501328   -1.286726   -3.200179
     79          1           0        6.202149   -1.804201   -1.616564
 ---------------------------------------------------------------------

 SCF Done:  E(RCAM-B3LYP) =  -2034.89331404     A.U. after   19 cycles

 Excitation energies and oscillator strengths:

 Excited State   1:      Singlet-A      1.6890 eV  734.06 nm  f=0.3597  <S**2>=0.000
     155 ->158         0.16445
     156 ->157         0.68793
     155 <-158         0.10175
 This state for optimization and/or second-order correction.
 Total Energy, E(TD-HF/TD-DFT) =  -2034.83124411
 Copying the excited state density for this state as the 1-particle RhoCI density.

 Excited State   2:      Singlet-A      2.2121 eV  560.48 nm  f=0.1068  <S**2>=0.000
     155 ->157         0.64123
     156 ->158        -0.27956

 Excited State   3:      Singlet-A      3.3632 eV  368.65 nm  f=0.0020  <S**2>=0.000
     152 ->157        -0.16221
     154 ->157         0.65348

 Excited State   4:      Singlet-A      3.4749 eV  356.80 nm  f=0.3549  <S**2>=0.000
     151 ->157         0.29152
     152 ->157         0.21303
     153 ->157        -0.23778
     155 ->157         0.19371
     156 ->158         0.50497

 Excited State   5:      Singlet-A      3.5261 eV  351.62 nm  f=0.1628  <S**2>=0.000
     153 ->157         0.50532
     153 ->159        -0.25730
     153 ->161         0.14705
     155 ->157         0.13799
     156 ->158         0.30028

 The electronic state is 1-A.
 Alpha  occ. eigenvalues --  -46.89225 -19.25563 -19.19525 -19.19044 -19.17901
 Alpha  occ. eigenvalues --  -14.42115 -14.41909 -14.40313 -14.38591 -10.38663
 Alpha  occ. eigenvalues --  -10.35758 -10.34073 -10.32318 -10.31715 -10.31711
 Alpha  occ. eigenvalues --  -10.30985 -10.30683 -10.30255 -10.29971 -10.29374
 Alpha  occ. eigenvalues --  -10.28786 -10.28392 -10.28392 -10.28214 -10.28163
 Alpha  occ. eigenvalues --  -10.28040 -10.27851 -10.27781 -10.27690 -10.27586
 Alpha  occ. eigenvalues --  -10.27574 -10.27437 -10.27262 -10.27170 -10.26997
 Alpha  occ. eigenvalues --  -10.26672 -10.26658 -10.26616 -10.26586 -10.26280
 Alpha  occ. eigenvalues --  -10.26222 -10.26220 -10.24435  -3.17798  -1.92685
 Alpha  occ. eigenvalues --   -1.92267  -1.92089  -1.15951  -1.11959  -1.08108
 Alpha  occ. eigenvalues --   -1.07053  -1.06429  -1.04593  -1.03939  -1.02830
 Alpha  occ. eigenvalues --   -0.92500  -0.89733  -0.88691  -0.88262  -0.87302
 Alpha  occ. eigenvalues --   -0.86880  -0.86631  -0.84302  -0.83807  -0.82279
 Alpha  occ. eigenvalues --   -0.81831  -0.80917  -0.80348  -0.78427  -0.77844
 Alpha  occ. eigenvalues --   -0.76810  -0.75974  -0.75494  -0.72693  -0.72225
 Alpha  occ. eigenvalues --   -0.70489  -0.69316  -0.68154  -0.67751  -0.66825
 Alpha  occ. eigenvalues --   -0.65361  -0.64854  -0.64463  -0.62422  -0.60518
 Alpha  occ. eigenvalues --   -0.59625  -0.59186  -0.58804  -0.57979  -0.56999
 Alpha  occ. eigenvalues --   -0.56694  -0.56212  -0.55673  -0.55044  -0.54144
 Alpha  occ. eigenvalues --   -0.53591  -0.52949  -0.52664  -0.52393  -0.51977
 Alpha  occ. eigenvalues --   -0.51703  -0.51235  -0.51187  -0.50652  -0.50412
 Alpha  occ. eigenvalues --   -0.50214  -0.49919  -0.49692  -0.49143  -0.48942
 Alpha  occ. eigenvalues --   -0.48626  -0.48341  -0.47773  -0.47681  -0.47408
 Alpha  occ. eigenvalues --   -0.46926  -0.46815  -0.46286  -0.46225  -0.45830
 Alpha  occ. eigenvalues --   -0.45813  -0.45379  -0.45106  -0.44668  -0.44418
 Alpha  occ. eigenvalues --   -0.44300  -0.44210  -0.43984  -0.43378  -0.43165
 Alpha  occ. eigenvalues --   -0.42919  -0.42608  -0.42187  -0.41963  -0.41899
 Alpha  occ. eigenvalues --   -0.41455  -0.41163  -0.40766  -0.40072  -0.39620
 Alpha  occ. eigenvalues --   -0.38623  -0.38286  -0.37709  -0.36815  -0.36707
 Alpha  occ. eigenvalues --   -0.36488  -0.34967  -0.33598  -0.33385  -0.31910
 Alpha  occ. eigenvalues --   -0.31381  -0.30598  -0.30052  -0.28959  -0.24184
 Alpha  occ. eigenvalues --   -0.21163
 Alpha virt. eigenvalues --   -0.08799  -0.01801   0.00205   0.01662   0.02359
 Alpha virt. eigenvalues --    0.04623   0.05805   0.06002   0.06414   0.08310
 Alpha virt. eigenvalues --    0.08411   0.08739   0.09143   0.09910   0.10474

 Mulliken charges:
               1
     1  Mg   0.814641
     2  C    0.017594
     3  C   -0.082187
     4  C   -0.080131
     5  C   -0.099588
     6  N   -0.293719
     7  C   -0.067175
     8  C    0.009104
     9  C   -0.095570
    10  C    0.102057
    11  C    0.093143
    12  C    0.062877
    13  C   -0.075803
    14  H    0.016102
    15  N   -0.375890
    16  C    0.093871
    17  C   -0.126353
    18  C   -0.025557
    19  C    0.149693
    20  C    0.134635
    21  C   -0.033661
    22  O   -0.190051
    23  C    0.046002
    24  N   -0.234124
    25  C    0.007004
    26  C   -0.030735
    27  C   -0.007528
    28  C    0.009757
    29  C    0.066688
    30  C    0.024477
    31  C   -0.008438
    32  N   -0.364596
    33  C    0.158205
    34  C   -0.187481
    35  C    0.043835
    36  C    0.082653
    37  C    0.143758
    38  C    0.009927
    39  O   -0.186597
    40  C    0.006069
    41  C    0.179026
    42  O   -0.227309
    43  O   -0.342707
    44  C    0.180085
    45  H   -0.023987
    46  H   -0.071579
    47  H   -0.047158
    48  H    0.010108
    49  H    0.016905
    50  H    0.019260
    51  H    0.004118
    52  H    0.021253
    53  H    0.020680
    54  H    0.008897
    55  H    0.035504
    56  H    0.041375
    57  H    0.041447
    58  H   -0.009388
    59  H    0.024512
    60  H    0.040963
    61  H    0.035068
    62  H    0.020617
    63  H    0.025883
    64  H    0.022852
    65  H    0.011033
    66  H    0.041405
    67  H    0.014634
    68  H    0.019858
    69  H    0.017137
    70  H    0.018510
    71  H    0.016092
    72  H    0.023264
    73  H    0.024379
    74  H    0.045764
    75  H    0.044951
    76  H    0.048936
    77  H    0.046416
    78  H    0.029240
    79  H    0.045048
 Sum of Mulliken charges =  -0.00000

 Dipole moment (field-independent basis, Debye):
    X=             -4.1616    Y=              2.4797    Z=             -1.7337  Tot=              5.1453
 Quadrupole moment (field-independent basis, Debye-Ang):
   XX=           -293.8751   YY=           -247.9545   ZZ=           -249.6192
   XY=            -48.9687   XZ=            -11.6592   YZ=              3.3728

 Normal termination of Gaussian 16 at Tue Oct 12 15:57:27 2021.
