 Gaussian 16, Revision A.03,
 Gaussian 16:  ES64L-G16RevA.03 25-Dec-2016

 ---------------------------------------------------
 #p cam-b3lyp/Def2SVP td=(nstates=5) density=(CIS=1)
 ---------------------------------------------------

 --------------------------------
 TDDFT excited states in gaussian
 --------------------------------
 Symbolic Z-matrix:
 Charge =  0 Multiplicity = 1

                         Standard orientation:
 ---------------------------------------------------------------------
 Center     Atomic      Atomic             Coordinates (Angstroms)
 Number     Number       Type             X           Y           Z
 ---------------------------------------------------------------------
      1         12           0       -0.654784    0.128745    0.128102
      2          6           0        2.716215    0.408414    0.250024
      3          6           0       -0.363808   -3.330663    0.015951
      4          6           0       -4.026299   -0.150401   -0.000102
      5          6           0       -0.926987    3.558379   -0.254725
      6          7           0        0.973410   -1.201313    0.244226
      7          6           0        2.298192   -0.907747    0.256870
      8          6           0        3.154398   -2.122097    0.505194
      9          6           0        2.191196   -3.318410    0.152224
     10          6           0        0.821692   -2.563412    0.166174
     11          6           0        2.456137   -4.208337   -1.133309
     12          6           0        3.612768   -2.221177    2.029608
     13          6           0        4.917424   -3.052537    2.207225
     14          1           0        5.314054   -4.162588    1.219492
     15          7           0       -2.059106   -1.508671   -0.059323
     16          6           0       -1.684498   -2.877851   -0.073839
     17          6           0       -2.859821   -3.692411   -0.147340
     18          6           0       -3.970956   -2.776021   -0.171034
     19          6           0       -3.341741   -1.411801   -0.057467
     20          6           0       -2.864962   -5.180257   -0.102412
     21          6           0       -5.464648   -3.070475   -0.252042
     22          8           0       -6.381242   -2.207311   -0.384648
     23          6           0       -5.943863   -4.511008   -0.193571
     24          7           0       -2.243169    1.482131   -0.162542
     25          6           0       -3.588916    1.155488    0.011938
     26          6           0       -4.533452    2.377379    0.201947
     27          6           0       -3.417735    3.565110    0.154533
     28          6           0       -2.124939    2.869765   -0.068785
     29          6           0       -5.546728    2.410874   -0.949397
     30          6           0       -3.435089    4.478086    1.344953
     31          6           0       -3.605077    5.926777    0.986684
     32          7           0        0.514253    1.681974   -0.098207
     33          6           0        0.318630    3.052164   -0.218955
     34          6           0        1.565674    3.719442   -0.286532
     35          6           0        2.583784    2.737459   -0.153070
     36          6           0        1.908005    1.518692    0.067077
     37          6           0        1.843908    5.167533   -0.418946
     38          6           0        4.008588    2.496765   -0.219668
     39          8           0        4.987949    3.182941   -0.437551
     40          6           0        4.110211    0.935604    0.125265
     41          6           0        5.136830    0.240467   -0.694511
     42          8           0        5.325683    0.375015   -1.876477
     43          8           0        5.921945   -0.579712    0.021107
     44          6           0        6.951380   -1.301410   -0.779786
     45          1           0       -0.155697   -4.382997   -0.188964
     46          1           0       -5.098993   -0.254990   -0.175243
     47          1           0       -0.927225    4.650299   -0.259044
     48          1           0        3.967000   -2.213062   -0.215376
     49          1           0        2.146402   -3.984747    1.013072
     50          1           0        3.405211   -3.883716   -1.560061
     51          1           0        1.697517   -4.207075   -1.914388
     52          1           0        2.487729   -5.242841   -0.790870
     53          1           0        2.751234   -2.652957    2.539249
     54          1           0        3.778994   -1.203053    2.381806
     55          1           0        4.785606   -3.475010    3.203506
     56          1           0        5.722379   -2.328288    2.329351
     57          1           0       -2.798697   -5.625440    0.890372
     58          1           0       -2.036532   -5.488556   -0.738953
     59          1           0       -3.683227   -5.623718   -0.668984
     60          1           0       -5.852317   -4.896008   -1.209083
     61          1           0       -6.998181   -4.442868    0.073389
     62          1           0       -5.366253   -5.144865    0.479486
     63          1           0       -5.076757    2.194367    1.129077
     64          1           0       -3.622728    4.194446   -0.712159
     65          1           0       -5.369753    1.704367   -1.760609
     66          1           0       -5.670953    3.442088   -1.279100
     67          1           0       -6.490472    2.071999   -0.521089
     68          1           0       -2.503912    4.464180    1.911512
     69          1           0       -4.196202    4.242022    2.088755
     70          1           0       -4.375939    6.425380    1.573582
     71          1           0       -3.880917    6.047148   -0.060608
     72          1           0       -2.600093    6.340625    1.074444
     73          1           0        1.108748    5.747611   -0.977548
     74          1           0        2.665406    5.195966   -1.135370
     75          1           0        2.030495    5.602561    0.562967
     76          1           0        4.521858    1.056225    1.127734
     77          1           0        7.798624   -0.661661   -1.030826
     78          1           0        6.512583   -1.831294   -1.625398
     79          1           0        7.362937   -2.099109   -0.160916
 ---------------------------------------------------------------------

 SCF Done:  E(RCAM-B3LYP) =  -2034.90791043     A.U. after   17 cycles

 Excitation energies and oscillator strengths:

 Excited State   1:      Singlet-A      1.6462 eV  753.16 nm  f=0.0000  <S**2>=0.000
     155 ->158        -0.17011
     156 ->157         0.68911
     155 <-158        -0.10752
 This state for optimization and/or second-order correction.
 Total Energy, E(TD-HF/TD-DFT) =  -2034.84741454
 Copying the excited state density for this state as the 1-particle RhoCI density.

 Excited State   2:      Singlet-A      2.2270 eV  556.73 nm  f=0.0000  <S**2>=0.000
     155 ->157         0.63820
     156 ->158         0.29157

 Excited State   3:      Singlet-A      3.2960 eV  376.16 nm  f=0.0000  <S**2>=0.000
     154 ->157         0.67912

 Excited State   4:      Singlet-A      3.4477 eV  359.61 nm  f=0.0000  <S**2>=0.000
     151 ->157        -0.22772
     152 ->157         0.33344
     152 ->159         0.17963
     152 ->160         0.12446
     153 ->157        -0.16869
     155 ->157        -0.16548
     156 ->158         0.42845

 Excited State   5:      Singlet-A      3.4567 eV  358.68 nm  f=0.0000  <S**2>=0.000
     150 ->157         0.13480
     151 ->157         0.26219
     152 ->157         0.37012
     152 ->159         0.26715
     152 ->160         0.13794
     153 ->157        -0.21931
     155 ->157         0.13247
     156 ->158        -0.26768

 The electronic state is 1-A.
 Alpha  occ. eigenvalues --  -46.87147 -19.25166 -19.19222 -19.18759 -19.18494
 Alpha  occ. eigenvalues --  -14.42852 -14.41684 -14.39524 -14.38757 -10.38591
 Alpha  occ. eigenvalues --  -10.35223 -10.35145 -10.32043 -10.31353 -10.30950
 Alpha  occ. eigenvalues --  -10.30727 -10.30480 -10.30112 -10.29852 -10.29343
 Alpha  occ. eigenvalues --  -10.28946 -10.28852 -10.28743 -10.28246 -10.28142
 Alpha  occ. eigenvalues --  -10.28031 -10.27865 -10.27856 -10.27795 -10.27651
 Alpha  occ. eigenvalues --  -10.27533 -10.27511 -10.27473 -10.27198 -10.26812
 Alpha  occ. eigenvalues --  -10.25996 -10.25837 -10.25757 -10.25604 -10.25474
 Alpha  occ. eigenvalues --  -10.25382 -10.25237 -10.25119  -3.16005  -1.90896
 Alpha  occ. eigenvalues --   -1.90440  -1.90351  -1.17307  -1.10139  -1.07407
 Alpha  occ. eigenvalues --   -1.07256  -1.04524  -1.03569  -1.02717  -1.01410
 Alpha  occ. eigenvalues --   -0.93373  -0.89716  -0.88810  -0.88587  -0.87680
 Alpha  occ. eigenvalues --   -0.87224  -0.86415  -0.84332  -0.83818  -0.82480
 Alpha  occ. eigenvalues --   -0.81660  -0.81058  -0.80507  -0.78359  -0.77780
 Alpha  occ. eigenvalues --   -0.77361  -0.76530  -0.75218  -0.72886  -0.71849
 Alpha  occ. eigenvalues --   -0.69093  -0.68690  -0.68194  -0.66703  -0.65863
 Alpha  occ. eigenvalues --   -0.65357  -0.64778  -0.64080  -0.62340  -0.60325
 Alpha  occ. eigenvalues --   -0.59936  -0.58970  -0.58376  -0.58003  -0.57712
 Alpha  occ. eigenvalues --   -0.56090  -0.55502  -0.55188  -0.54978  -0.53946
 Alpha  occ. eigenvalues --   -0.53347  -0.53001  -0.52893  -0.52558  -0.52435
 Alpha  occ. eigenvalues --   -0.52148  -0.51978  -0.51313  -0.51154  -0.50315
 Alpha  occ. eigenvalues --   -0.50101  -0.49981  -0.49613  -0.49008  -0.48878
 Alpha  occ. eigenvalues --   -0.48389  -0.48228  -0.47999  -0.47768  -0.47325
 Alpha  occ. eigenvalues --   -0.47217  -0.46711  -0.46603  -0.46359  -0.45923
 Alpha  occ. eigenvalues --   -0.45198  -0.44913  -0.44775  -0.44548  -0.44052
 Alpha  occ. eigenvalues --   -0.43893  -0.43514  -0.43287  -0.43176  -0.42412
 Alpha  occ. eigenvalues --   -0.42349  -0.42047  -0.41951  -0.41416  -0.40981
 Alpha  occ. eigenvalues --   -0.40894  -0.40496  -0.40435  -0.40391  -0.40051
 Alpha  occ. eigenvalues --   -0.38252  -0.37971  -0.37620  -0.37198  -0.37032
 Alpha  occ. eigenvalues --   -0.36616  -0.34597  -0.34135  -0.33344  -0.31537
 Alpha  occ. eigenvalues --   -0.30735  -0.30713  -0.29949  -0.29578  -0.24315
 Alpha  occ. eigenvalues --   -0.21037
 Alpha virt. eigenvalues --   -0.08966  -0.01620   0.00111   0.02164   0.03161
 Alpha virt. eigenvalues --    0.04766   0.05466   0.05866   0.06813   0.08419
 Alpha virt. eigenvalues --    0.08612   0.08987   0.09297   0.09660   0.09831

 Mulliken charges:
               1
     1  Mg   0.831095
     2  C   -0.013385
     3  C   -0.122300
     4  C   -0.104105
     5  C   -0.139636
     6  N   -0.364066
     7  C   -0.000623
     8  C    0.001509
     9  C   -0.077111
    10  C    0.096876
    11  C    0.072798
    12  C    0.048464
    13  C   -0.036395
    14  H    0.029805
    15  N   -0.307451
    16  C    0.182696
    17  C   -0.167081
    18  C   -0.036178
    19  C    0.104528
    20  C    0.113400
    21  C   -0.003228
    22  O   -0.251411
    23  C    0.041234
    24  N   -0.375893
    25  C    0.068401
    26  C   -0.041361
    27  C    0.026190
    28  C    0.141505
    29  C    0.057966
    30  C    0.038762
    31  C   -0.008114
    32  N   -0.443272
    33  C    0.201467
    34  C   -0.174886
    35  C   -0.027550
    36  C    0.163461
    37  C    0.116291
    38  C    0.059829
    39  O   -0.158887
    40  C   -0.036117
    41  C    0.154456
    42  O   -0.199059
    43  O   -0.329001
    44  C    0.182737
    45  H   -0.027770
    46  H   -0.008082
    47  H   -0.042527
    48  H    0.006077
    49  H    0.013033
    50  H    0.020903
    51  H    0.026973
    52  H    0.015893
    53  H    0.012745
    54  H    0.017097
    55  H    0.020634
    56  H    0.038031
    57  H    0.048213
    58  H    0.012277
    59  H    0.009104
    60  H    0.043745
    61  H    0.032797
    62  H    0.028516
    63  H    0.030655
    64  H    0.015782
    65  H    0.039222
    66  H    0.015218
    67  H    0.019457
    68  H    0.008663
    69  H    0.003236
    70  H    0.020706
    71  H    0.002505
    72  H    0.017053
    73  H    0.004843
    74  H    0.038699
    75  H    0.044877
    76  H    0.039125
    77  H    0.051896
    78  H    0.041616
    79  H    0.022430
 Sum of Mulliken charges =  -0.00000

 Dipole moment (field-independent basis, Debye):
    X=             -0.1488    Y=             -3.0908    Z=              3.3175  Tot=              4.5366
 Quadrupole moment (field-independent basis, Debye-Ang):
   XX=           -285.9371   YY=           -225.7814   ZZ=           -258.5570
   XY=            -37.8314   XZ=              7.0330   YZ=              5.8789

 Normal termination of Gaussian 16 at Fri Oct  8 19:29:55 2021.
