 Gaussian 16, Revision A.03,
 Gaussian 16:  ES64L-G16RevA.03 25-Dec-2016

 -----------------------------------
 #p cam-b3lyp/Def2SVP td=(nstates=5)
 -----------------------------------

 --------------------------------
 TDDFT excited states in gaussian
 --------------------------------
 Symbolic Z-matrix:
 Charge =  0 Multiplicity = 1

                         Standard orientation:
 ---------------------------------------------------------------------
 Center     Atomic      Atomic             Coordinates (Angstroms)
 Number     Number       Type             X           Y           Z
 ---------------------------------------------------------------------
      1         12           0        0.692943    0.027116   -0.401252
      2          6           0       -2.747221    0.227203   -0.365613
      3          6           0        0.364015   -3.361329   -0.058770
      4          6           0        4.055263   -0.153033   -0.142877
      5          6           0        0.900055    3.489477   -0.159819
      6          7           0       -1.088119   -1.349616   -0.095723
      7          6           0       -2.320192   -1.091238   -0.311911
      8          6           0       -3.334355   -2.348116   -0.301261
      9          6           0       -2.294130   -3.464315    0.108181
     10          6           0       -0.890074   -2.693895    0.071437
     11          6           0       -2.486841   -4.068921    1.596268
     12          6           0       -4.080993   -2.635523   -1.675392
     13          6           0       -5.520668   -3.258017   -1.608663
     14          1           0       -5.971006   -3.767644   -0.272961
     15          7           0        2.002729   -1.493589   -0.220669
     16          6           0        1.691132   -2.909160   -0.173313
     17          6           0        2.957288   -3.633659   -0.138161
     18          6           0        4.033557   -2.716056   -0.048167
     19          6           0        3.392278   -1.388341   -0.180657
     20          6           0        2.888982   -5.116188   -0.219940
     21          6           0        5.561656   -2.942805    0.027770
     22          8           0        6.385234   -2.094523    0.201993
     23          6           0        5.998199   -4.421686    0.048032
     24          7           0        2.313041    1.429985   -0.071663
     25          6           0        3.575402    1.148517    0.002470
     26          6           0        4.417645    2.385818    0.424309
     27          6           0        3.424624    3.566837    0.306276
     28          6           0        2.111497    2.814849   -0.014614
     29          6           0        5.006594    2.199915    1.838901
     30          6           0        3.868696    4.617280   -0.757462
     31          6           0        5.082740    5.471827   -0.358680
     32          7           0       -0.637521    1.599670   -0.284529
     33          6           0       -0.388917    2.960678   -0.294188
     34          6           0       -1.671560    3.611013   -0.351761
     35          6           0       -2.686093    2.607445   -0.342394
     36          6           0       -1.933326    1.401584   -0.336509
     37          6           0       -1.872864    5.013471   -0.345509
     38          6           0       -4.077561    2.296115   -0.424345
     39          8           0       -5.064828    3.090143   -0.404312
     40          6           0       -4.153672    0.723388   -0.321545
     41          6           0       -4.931650    0.405347    0.856752
     42          8           0       -4.483259    0.389067    2.002801
     43          8           0       -6.239401    0.292159    0.458629
     44          6           0       -7.186522    0.225261    1.591593
     45          1           0        0.290869   -4.442050    0.076245
     46          1           0        5.137564   -0.290119   -0.082501
     47          1           0        1.022413    4.575008   -0.154385
     48          1           0       -3.997608   -2.129507    0.536030
     49          1           0       -2.358277   -4.306362   -0.580695
     50          1           0       -3.079129   -3.357982    2.173042
     51          1           0       -1.512712   -4.205365    2.065648
     52          1           0       -2.976795   -5.040791    1.663940
     53          1           0       -3.431330   -3.356608   -2.170739
     54          1           0       -4.017395   -1.854232   -2.433564
     55          1           0       -5.678113   -4.077437   -2.309887
     56          1           0       -6.252379   -2.480525   -1.828417
     57          1           0        2.723987   -5.548357    0.767445
     58          1           0        3.709576   -5.549881   -0.791636
     59          1           0        2.021951   -5.356164   -0.834923
     60          1           0        5.924559   -4.930810   -0.913448
     61          1           0        5.320236   -4.832822    0.795303
     62          1           0        6.998182   -4.616624    0.434357
     63          1           0        5.174266    2.429876   -0.358707
     64          1           0        3.293406    4.031857    1.283304
     65          1           0        4.469369    1.508455    2.488403
     66          1           0        5.038186    3.067405    2.498953
     67          1           0        6.020831    1.833585    1.680331
     68          1           0        3.052849    5.321378   -0.915020
     69          1           0        4.070616    4.118164   -1.705807
     70          1           0        5.459057    5.085805    0.588682
     71          1           0        4.731737    6.455972   -0.047905
     72          1           0        5.872342    5.641834   -1.090218
     73          1           0       -1.130794    5.397201   -1.045746
     74          1           0       -1.697428    5.522949    0.601849
     75          1           0       -2.920196    5.213012   -0.574510
     76          1           0       -4.725278    0.450859   -1.209118
     77          1           0       -7.139114    1.198388    2.081153
     78          1           0       -7.005620   -0.643929    2.223088
     79          1           0       -8.184909    0.107701    1.169992
 ---------------------------------------------------------------------

 SCF Done:  E(RCAM-B3LYP) =  -2034.91947420     A.U. after   19 cycles

 Excitation energies and oscillator strengths:

 Excited State   1:      Singlet-A      1.7724 eV  699.51 nm  f=0.3818  <S**2>=0.000
     155 ->158        -0.19913
     156 ->157         0.67932
     155 <-158        -0.10977
 This state for optimization and/or second-order correction.
 Total Energy, E(TD-HF/TD-DFT) =  -2034.85433829
 Copying the excited state density for this state as the 1-particle RhoCI density.

 Excited State   2:      Singlet-A      2.2144 eV  559.89 nm  f=0.1112  <S**2>=0.000
     155 ->157         0.64303
     156 ->158         0.28125

 Excited State   3:      Singlet-A      3.4164 eV  362.91 nm  f=0.0012  <S**2>=0.000
     152 ->157         0.48659
     152 ->159        -0.30018
     152 ->160        -0.19425
     153 ->157        -0.12341
     153 ->159         0.10866
     154 ->157        -0.27701

 Excited State   4:      Singlet-A      3.4872 eV  355.54 nm  f=0.0078  <S**2>=0.000
     152 ->159        -0.11074
     153 ->157        -0.42543
     154 ->157         0.52277

 Excited State   5:      Singlet-A      3.5344 eV  350.79 nm  f=0.3949  <S**2>=0.000
     151 ->157        -0.15618
     152 ->157        -0.12560
     153 ->157        -0.20197
     154 ->157        -0.19760
     155 ->157        -0.21321
     156 ->158         0.56570

 The electronic state is 1-A.
 Alpha  occ. eigenvalues --  -46.88382 -19.24781 -19.20149 -19.19291 -19.18224
 Alpha  occ. eigenvalues --  -14.42204 -14.41523 -14.39662 -14.38928 -10.38538
 Alpha  occ. eigenvalues --  -10.36259 -10.34745 -10.31824 -10.31256 -10.30667
 Alpha  occ. eigenvalues --  -10.30654 -10.30460 -10.30409 -10.30322 -10.29419
 Alpha  occ. eigenvalues --  -10.29199 -10.28972 -10.28913 -10.28907 -10.28172
 Alpha  occ. eigenvalues --  -10.28078 -10.27772 -10.27752 -10.27600 -10.27543
 Alpha  occ. eigenvalues --  -10.27161 -10.27122 -10.27088 -10.26904 -10.26665
 Alpha  occ. eigenvalues --  -10.26547 -10.26261 -10.26142 -10.25652 -10.25381
 Alpha  occ. eigenvalues --  -10.25314 -10.24637 -10.24437  -3.16995  -1.91888
 Alpha  occ. eigenvalues --   -1.91456  -1.91298  -1.15507  -1.12502  -1.07210
 Alpha  occ. eigenvalues --   -1.06732  -1.05369  -1.04301  -1.03443  -1.00857
 Alpha  occ. eigenvalues --   -0.92508  -0.89306  -0.88345  -0.87828  -0.87468
 Alpha  occ. eigenvalues --   -0.86947  -0.86841  -0.83898  -0.83467  -0.82311
 Alpha  occ. eigenvalues --   -0.81725  -0.81036  -0.80264  -0.78533  -0.77375
 Alpha  occ. eigenvalues --   -0.76369  -0.75738  -0.74826  -0.72192  -0.71450
 Alpha  occ. eigenvalues --   -0.69400  -0.68776  -0.68168  -0.66977  -0.65807
 Alpha  occ. eigenvalues --   -0.65393  -0.64740  -0.64066  -0.61537  -0.60008
 Alpha  occ. eigenvalues --   -0.59354  -0.59118  -0.58267  -0.57864  -0.57650
 Alpha  occ. eigenvalues --   -0.55977  -0.55705  -0.55145  -0.54536  -0.53961
 Alpha  occ. eigenvalues --   -0.53339  -0.53139  -0.52936  -0.52711  -0.52055
 Alpha  occ. eigenvalues --   -0.51893  -0.51358  -0.51100  -0.50926  -0.50702
 Alpha  occ. eigenvalues --   -0.50370  -0.49418  -0.49127  -0.48941  -0.48515
 Alpha  occ. eigenvalues --   -0.48448  -0.48178  -0.47820  -0.47773  -0.47021
 Alpha  occ. eigenvalues --   -0.46614  -0.46438  -0.46219  -0.46018  -0.45589
 Alpha  occ. eigenvalues --   -0.45106  -0.44843  -0.44392  -0.44268  -0.44152
 Alpha  occ. eigenvalues --   -0.43725  -0.43507  -0.43191  -0.42907  -0.42760
 Alpha  occ. eigenvalues --   -0.42651  -0.42251  -0.41696  -0.41653  -0.41450
 Alpha  occ. eigenvalues --   -0.41173  -0.40639  -0.40190  -0.39795  -0.39378
 Alpha  occ. eigenvalues --   -0.38204  -0.37967  -0.37604  -0.36867  -0.36543
 Alpha  occ. eigenvalues --   -0.36306  -0.34295  -0.33880  -0.33423  -0.31740
 Alpha  occ. eigenvalues --   -0.31183  -0.30370  -0.30131  -0.29153  -0.23654
 Alpha  occ. eigenvalues --   -0.21225
 Alpha virt. eigenvalues --   -0.08406  -0.01678  -0.00019   0.02106   0.02618
 Alpha virt. eigenvalues --    0.05481   0.05953   0.06473   0.06731   0.08366
 Alpha virt. eigenvalues --    0.09139   0.09579   0.09683   0.09963   0.10768

 Mulliken charges:
               1
     1  Mg   0.834104
     2  C    0.046719
     3  C   -0.061053
     4  C   -0.071297
     5  C   -0.093678
     6  N   -0.207338
     7  C   -0.140092
     8  C    0.027030
     9  C   -0.087876
    10  C    0.045281
    11  C    0.043955
    12  C    0.065422
    13  C   -0.077254
    14  H    0.020432
    15  N   -0.449219
    16  C    0.144345
    17  C   -0.127417
    18  C   -0.063076
    19  C    0.122873
    20  C    0.101060
    21  C    0.037213
    22  O   -0.159077
    23  C    0.015511
    24  N   -0.261537
    25  C    0.011097
    26  C    0.001211
    27  C   -0.019811
    28  C    0.031439
    29  C    0.063919
    30  C    0.026412
    31  C    0.015654
    32  N   -0.333820
    33  C    0.151054
    34  C   -0.161000
    35  C    0.054044
    36  C    0.083175
    37  C    0.103581
    38  C    0.016006
    39  O   -0.220082
    40  C   -0.011483
    41  C    0.205068
    42  O   -0.233915
    43  O   -0.336058
    44  C    0.186342
    45  H   -0.027689
    46  H   -0.015367
    47  H   -0.031263
    48  H    0.025830
    49  H    0.014658
    50  H    0.026792
    51  H    0.017636
    52  H    0.017613
    53  H   -0.007413
    54  H    0.015264
    55  H    0.035042
    56  H    0.042415
    57  H    0.043215
    58  H    0.020468
    59  H    0.020684
    60  H    0.049375
    61  H    0.033203
    62  H    0.022831
    63  H    0.011375
    64  H    0.008397
    65  H    0.021643
    66  H    0.013249
    67  H    0.028444
    68  H    0.004142
    69  H    0.007209
    70  H    0.004347
    71  H    0.003662
    72  H    0.027904
    73  H    0.017360
    74  H    0.026276
    75  H    0.033199
    76  H    0.032843
    77  H    0.049816
    78  H    0.038656
    79  H    0.030324
 Sum of Mulliken charges =  -0.00000

 Dipole moment (field-independent basis, Debye):
    X=              1.8186    Y=             -4.1001    Z=             -1.5748  Tot=              4.7537
 Quadrupole moment (field-independent basis, Debye-Ang):
   XX=           -267.3434   YY=           -229.1688   ZZ=           -256.0525
   XY=             23.5670   XZ=             -1.2700   YZ=              4.0111

 Normal termination of Gaussian 16 at Thu Sep 16 07:28:28 2021.
