 Gaussian 16, Revision A.03,
 Gaussian 16:  ES64L-G16RevA.03 25-Dec-2016

 ----------------------------------------------------------
 #p cam-b3lyp/Def2SVP td=(nstates=5) density=(transition=1)
 ----------------------------------------------------------

 --------------------------------
 TDDFT excited states in gaussian
 --------------------------------
 Symbolic Z-matrix:
 Charge =  0 Multiplicity = 1

                         Standard orientation:
 ---------------------------------------------------------------------
 Center     Atomic      Atomic             Coordinates (Angstroms)
 Number     Number       Type             X           Y           Z
 ---------------------------------------------------------------------
      1         12           0      -18.262130    0.447665    0.145146
      2          6           0      -15.192189   -1.166381   -0.167653
      3          6           0      -19.610060   -2.425906    1.471993
      4          6           0      -21.227242    2.063224    0.124418
      5          6           0      -16.853460    3.226674   -1.604843
      6          7           0      -17.491374   -1.559048    0.477614
      7          6           0      -16.215482   -2.002366    0.313311
      8          6           0      -16.046227   -3.431550    0.844792
      9          6           0      -17.547121   -3.811422    1.218086
     10          6           0      -18.266984   -2.469528    1.047793
     11          6           0      -18.116810   -4.876786    0.289205
     12          6           0      -15.187182   -3.581372    2.150641
     13          6           0      -14.469360   -4.889247    2.360677
     14          1           0      -14.847342   -6.057459    1.564976
     15          7           0      -20.097756   -0.072156    0.792897
     16          6           0      -20.454249   -1.333490    1.310514
     17          6           0      -21.803634   -1.202539    1.794303
     18          6           0      -22.298517    0.087922    1.477944
     19          6           0      -21.192375    0.767282    0.759464
     20          6           0      -22.609820   -2.368717    2.324858
     21          6           0      -23.584621    0.735809    1.779048
     22          8           0      -23.940297    1.778027    1.271464
     23          6           0      -24.652741    0.006822    2.672471
     24          7           0      -18.961516    2.483227   -0.482609
     25          6           0      -20.204235    2.853397   -0.397008
     26          6           0      -20.419238    4.272621   -1.003735
     27          6           0      -19.042718    4.691066   -1.487538
     28          6           0      -18.191671    3.392516   -1.246890
     29          6           0      -21.601604    4.246182   -2.082869
     30          6           0      -18.512131    5.958266   -0.784282
     31          6           0      -18.725456    7.333195   -1.521137
     32          7           0      -16.435270    1.068984   -0.469963
     33          6           0      -15.996444    2.219828   -1.170661
     34          6           0      -14.605598    2.170662   -1.416514
     35          6           0      -14.284236    0.783783   -1.094847
     36          6           0      -15.449049    0.220119   -0.499925
     37          6           0      -13.806415    3.176402   -2.224860
     38          6           0      -13.205130   -0.129785   -1.179241
     39          8           0      -12.049215   -0.004824   -1.563837
     40          6           0      -13.781446   -1.511033   -0.443732
     41          6           0      -13.531132   -2.612872   -1.431082
     42          8           0      -13.988056   -2.641088   -2.578633
     43          8           0      -12.590612   -3.574187   -0.955522
     44          6           0      -12.280695   -4.699362   -1.892108
     45          1           0      -19.970813   -3.371609    1.883576
     46          1           0      -22.244252    2.435292   -0.013387
     47          1           0      -16.359626    4.067811   -2.095110
     48          1           0      -15.671484   -4.022687    0.008897
     49          1           0      -17.645895   -4.208564    2.228261
     50          1           0      -17.327623   -5.366656   -0.280514
     51          1           0      -18.913922   -4.496666   -0.350298
     52          1           0      -18.505956   -5.751951    0.809596
     53          1           0      -15.842942   -3.380964    2.997223
     54          1           0      -14.502561   -2.733093    2.167812
     55          1           0      -14.687174   -5.207902    3.379810
     56          1           0      -13.400416   -4.735357    2.212885
     57          1           0      -23.445416   -2.641531    1.680391
     58          1           0      -22.943989   -2.115796    3.331941
     59          1           0      -22.078556   -3.315558    2.420215
     60          1           0      -25.168578   -0.687545    2.008739
     61          1           0      -25.434967    0.706430    2.967355
     62          1           0      -24.172499   -0.560562    3.468752
     63          1           0      -20.754105    4.854574   -0.144873
     64          1           0      -19.007611    4.790572   -2.571327
     65          1           0      -21.249935    4.615490   -3.046119
     66          1           0      -22.418166    4.930400   -1.851430
     67          1           0      -21.876952    3.193313   -2.156700
     68          1           0      -17.440071    5.803361   -0.657656
     69          1           0      -18.962828    5.973726    0.208168
     70          1           0      -17.894781    7.466906   -2.215001
     71          1           0      -18.880729    8.233096   -0.925708
     72          1           0      -19.590844    7.091413   -2.137259
     73          1           0      -13.562405    3.944044   -1.490964
     74          1           0      -14.407033    3.614888   -3.020906
     75          1           0      -12.998846    2.774689   -2.838220
     76          1           0      -13.257776   -1.647758    0.503216
     77          1           0      -11.808940   -4.341878   -2.806689
     78          1           0      -13.094805   -5.354012   -2.204307
     79          1           0      -11.530296   -5.214778   -1.292655
     80         12           0       18.352343    0.028906    0.402653
     81          6           0       15.443761   -1.425720   -0.829265
     82          6           0       19.531225    0.168812   -2.855313
     83          6           0       20.907486    1.899375    1.350175
     84          6           0       16.870169    0.290382    3.519273
     85          7           0       17.526175   -0.403737   -1.614911
     86          6           0       16.374300   -1.121842   -1.862711
     87          6           0       16.236074   -1.522586   -3.301670
     88          6           0       17.725540   -1.331987   -3.831252
     89          6           0       18.310316   -0.439127   -2.744930
     90          6           0       18.617399   -2.568136   -4.324826
     91          6           0       15.096763   -0.755624   -4.120053
     92          6           0       14.789148    0.719426   -3.725034
     93          1           0       14.560508    1.641657   -4.898411
     94          7           0       19.943910    1.021081   -0.624005
     95          6           0       20.261984    0.934871   -1.985113
     96          6           0       21.392563    1.758331   -2.315787
     97          6           0       21.817633    2.311081   -1.084177
     98          6           0       20.887508    1.792856   -0.037151
     99          6           0       22.033661    1.667370   -3.701484
    100          6           0       23.054925    3.232642   -0.989486
    101          8           0       23.671677    3.607157   -1.992042
    102          6           0       23.487889    3.591204    0.369597
    103          7           0       18.706989    1.039495    2.170807
    104          6           0       19.989540    1.516279    2.383461
    105          6           0       20.246064    1.921403    3.851718
    106          6           0       18.811311    1.588506    4.433824
    107          6           0       18.064765    0.989627    3.326114
    108          6           0       21.354255    1.264977    4.612939
    109          6           0       18.027480    2.895845    4.958137
    110          6           0       17.409608    2.652029    6.310272
    111          7           0       16.590152   -0.630257    1.298447
    112          6           0       16.124643   -0.445582    2.587128
    113          6           0       14.782731   -1.055138    2.730398
    114          6           0       14.472154   -1.463895    1.386797
    115          6           0       15.590108   -1.174217    0.595871
    116          6           0       13.822168   -1.003270    3.848199
    117          6           0       13.456841   -2.011308    0.462003
    118          8           0       12.306362   -2.314028    0.679131
    119          6           0       14.055588   -2.044543   -0.980991
    120          6           0       13.999221   -3.402584   -1.523264
    121          8           0       13.401527   -3.838058   -2.507712
    122          8           0       14.545079   -4.261644   -0.533682
    123          6           0       14.634200   -5.688451   -0.911292
    124          1           0       19.964851   -0.035150   -3.837073
    125          1           0       21.791884    2.340519    1.814341
    126          1           0       16.526820    0.356412    4.553206
    127          1           0       15.937526   -2.568288   -3.374851
    128          1           0       17.542131   -0.704474   -4.703791
    129          1           0       18.111242   -3.532501   -4.364710
    130          1           0       19.469700   -2.780326   -3.679466
    131          1           0       18.869019   -2.430363   -5.376759
    132          1           0       14.177426   -1.340085   -4.135762
    133          1           0       15.411463   -0.777779   -5.163373
    134          1           0       15.580210    1.121416   -3.091268
    135          1           0       13.873507    0.759539   -3.135683
    136          1           0       22.494603    2.597548   -4.035253
    137          1           0       21.255452    1.491370   -4.443663
    138          1           0       22.799101    0.895080   -3.621932
    139          1           0       23.901626    2.702919    0.846027
    140          1           0       22.648359    4.010829    0.924746
    141          1           0       24.271709    4.335024    0.226845
    142          1           0       20.289109    3.010302    3.884768
    143          1           0       19.023131    0.765096    5.115872
    144          1           0       21.204835    1.547649    5.655120
    145          1           0       22.280032    1.756526    4.313851
    146          1           0       21.362520    0.190519    4.425912
    147          1           0       17.295027    3.142018    4.189473
    148          1           0       18.585962    3.832376    4.984778
    149          1           0       16.327799    2.625125    6.181863
    150          1           0       17.488139    3.520303    6.965359
    151          1           0       17.696902    1.666098    6.675081
    152          1           0       14.157159   -0.469359    4.738724
    153          1           0       13.673130   -2.036615    4.159453
    154          1           0       13.046722   -0.376856    3.407762
    155          1           0       13.426071   -1.362161   -1.551619
    156          1           0       15.640427   -5.945546   -0.578392
    157          1           0       14.529505   -6.003472   -1.949549
    158          1           0       14.000578   -6.198376   -0.185382
 ---------------------------------------------------------------------

 SCF Done:  E(RCAM-B3LYP) =  -4069.84033420     A.U. after   19 cycles

 Excitation energies and oscillator strengths:

 Excited State   1:      Singlet-A      1.7178 eV  721.78 nm  f=0.4462  <S**2>=0.000
     310 -> 315       -0.18085
     312 -> 314        0.68026
     310 <- 315       -0.10448
 This state for optimization and/or second-order correction.
 Total Energy, E(TD-HF/TD-DFT) =  -4069.77720771
 Copying the excited state density for this state as the 1-particle RhoCI density.

 Excited State   2:      Singlet-A      1.7262 eV  718.26 nm  f=0.3025  <S**2>=0.000
     309 -> 316       -0.17460
     311 -> 313        0.68307
     309 <- 316       -0.10504

 Excited State   3:      Singlet-A      2.2042 eV  562.48 nm  f=0.0882  <S**2>=0.000
     310 -> 314        0.62962
     312 -> 315        0.30515

 Excited State   4:      Singlet-A      2.2225 eV  557.87 nm  f=0.1463  <S**2>=0.000
     309 -> 313        0.65061
     311 -> 316        0.26125

 Excited State   5:      Singlet-A      3.0533 eV  406.06 nm  f=0.0000  <S**2>=0.000
     312 -> 313        0.70709

 The electronic state is 1-A.
 Alpha  occ. eigenvalues --  -46.89067 -46.87941 -19.24299 -19.24089 -19.20493
 Alpha  occ. eigenvalues --  -19.19394 -19.19231 -19.18990 -19.18777 -19.18168
 Alpha  occ. eigenvalues --  -14.42641 -14.42196 -14.42168 -14.41606 -14.40125
 Alpha  occ. eigenvalues --  -14.39606 -14.39305 -14.39145 -10.39687 -10.39008
 Alpha  occ. eigenvalues --  -10.35432 -10.35074 -10.35072 -10.34285 -10.31653
 Alpha  occ. eigenvalues --  -10.31585 -10.31561 -10.31257 -10.31143 -10.31122
 Alpha  occ. eigenvalues --  -10.31111 -10.30805 -10.30765 -10.30649 -10.30641
 Alpha  occ. eigenvalues --  -10.30593 -10.30156 -10.30041 -10.29655 -10.29314
 Alpha  occ. eigenvalues --  -10.28920 -10.28854 -10.28821 -10.28638 -10.28501
 Alpha  occ. eigenvalues --  -10.28434 -10.28380 -10.28373 -10.28297 -10.28165
 Alpha  occ. eigenvalues --  -10.28123 -10.28057 -10.28040 -10.27995 -10.27886
 Alpha  occ. eigenvalues --  -10.27803 -10.27727 -10.27722 -10.27717 -10.27637
 Alpha  occ. eigenvalues --  -10.27572 -10.27461 -10.27430 -10.27262 -10.27127
 Alpha  occ. eigenvalues --  -10.27100 -10.27089 -10.26936 -10.26860 -10.26830
 Alpha  occ. eigenvalues --  -10.26766 -10.26691 -10.26325 -10.26310 -10.26283
 Alpha  occ. eigenvalues --  -10.26175 -10.26017 -10.25990 -10.25954 -10.25926
 Alpha  occ. eigenvalues --  -10.25810 -10.25807 -10.25764 -10.25719 -10.25346
 Alpha  occ. eigenvalues --  -10.24485  -3.17592  -3.16637  -1.92477  -1.92063
 Alpha  occ. eigenvalues --   -1.91886  -1.91548  -1.91085  -1.90955  -1.14774
 Alpha  occ. eigenvalues --   -1.13387  -1.11087  -1.10317  -1.09339  -1.08573
 Alpha  occ. eigenvalues --   -1.06856  -1.05766  -1.05150  -1.05034  -1.03909
 Alpha  occ. eigenvalues --   -1.03678  -1.03336  -1.03146  -1.02382  -1.02304
 Alpha  occ. eigenvalues --   -0.92423  -0.92057  -0.89621  -0.89252  -0.89184
 Alpha  occ. eigenvalues --   -0.88934  -0.88369  -0.87946  -0.87727  -0.87628
 Alpha  occ. eigenvalues --   -0.87446  -0.86840  -0.86224  -0.86148  -0.84796
 Alpha  occ. eigenvalues --   -0.84418  -0.84288  -0.82948  -0.82685  -0.82345
 Alpha  occ. eigenvalues --   -0.82162  -0.81457  -0.80804  -0.80353  -0.80112
 Alpha  occ. eigenvalues --   -0.79981  -0.78753  -0.78284  -0.77464  -0.77230
 Alpha  occ. eigenvalues --   -0.76823  -0.76807  -0.76176  -0.75816  -0.75711
 Alpha  occ. eigenvalues --   -0.75022  -0.73081  -0.72605  -0.72101  -0.71579
 Alpha  occ. eigenvalues --   -0.69529  -0.69384  -0.69328  -0.68939  -0.68049
 Alpha  occ. eigenvalues --   -0.67943  -0.67250  -0.66790  -0.66377  -0.65746
 Alpha  occ. eigenvalues --   -0.65216  -0.64913  -0.64864  -0.64570  -0.64468
 Alpha  occ. eigenvalues --   -0.63960  -0.62502  -0.61347  -0.60313  -0.60240
 Alpha  occ. eigenvalues --   -0.59600  -0.59340  -0.59279  -0.58904  -0.58492
 Alpha  occ. eigenvalues --   -0.58246  -0.57739  -0.57487  -0.57311  -0.57211
 Alpha  occ. eigenvalues --   -0.56288  -0.56224  -0.55787  -0.55311  -0.55059
 Alpha  occ. eigenvalues --   -0.54936  -0.54585  -0.54568  -0.53965  -0.53849
 Alpha  occ. eigenvalues --   -0.53358  -0.53192  -0.52870  -0.52866  -0.52680
 Alpha  occ. eigenvalues --   -0.52585  -0.52452  -0.52329  -0.52214  -0.52136
 Alpha  occ. eigenvalues --   -0.52013  -0.51946  -0.51578  -0.51549  -0.51071
 Alpha  occ. eigenvalues --   -0.50976  -0.50813  -0.50520  -0.50431  -0.50241
 Alpha  occ. eigenvalues --   -0.50101  -0.49835  -0.49596  -0.49575  -0.49514
 Alpha  occ. eigenvalues --   -0.49476  -0.49248  -0.49233  -0.49045  -0.48782
 Alpha  occ. eigenvalues --   -0.48530  -0.48524  -0.48341  -0.48262  -0.48133
 Alpha  occ. eigenvalues --   -0.48106  -0.47701  -0.47617  -0.47462  -0.47214
 Alpha  occ. eigenvalues --   -0.47179  -0.47101  -0.46893  -0.46878  -0.46668
 Alpha  occ. eigenvalues --   -0.46464  -0.46235  -0.46169  -0.45737  -0.45691
 Alpha  occ. eigenvalues --   -0.45349  -0.45083  -0.45030  -0.45009  -0.44956
 Alpha  occ. eigenvalues --   -0.44936  -0.44652  -0.44646  -0.44607  -0.44498
 Alpha  occ. eigenvalues --   -0.44218  -0.44054  -0.43888  -0.43853  -0.43382
 Alpha  occ. eigenvalues --   -0.43333  -0.43182  -0.43069  -0.42982  -0.42838
 Alpha  occ. eigenvalues --   -0.42711  -0.42575  -0.42443  -0.42439  -0.42093
 Alpha  occ. eigenvalues --   -0.41956  -0.41927  -0.41792  -0.41674  -0.41647
 Alpha  occ. eigenvalues --   -0.41459  -0.41265  -0.41182  -0.40781  -0.40417
 Alpha  occ. eigenvalues --   -0.40224  -0.39957  -0.39822  -0.39394  -0.39064
 Alpha  occ. eigenvalues --   -0.38589  -0.38471  -0.37937  -0.37740  -0.37395
 Alpha  occ. eigenvalues --   -0.37192  -0.36946  -0.36858  -0.36516  -0.36123
 Alpha  occ. eigenvalues --   -0.35729  -0.35612  -0.35115  -0.34756  -0.34336
 Alpha  occ. eigenvalues --   -0.33808  -0.33470  -0.33281  -0.31625  -0.31235
 Alpha  occ. eigenvalues --   -0.31171  -0.31041  -0.30769  -0.30471  -0.29920
 Alpha  occ. eigenvalues --   -0.29730  -0.29616  -0.29442  -0.24149  -0.24058
 Alpha  occ. eigenvalues --   -0.21507  -0.21177
 Alpha virt. eigenvalues --   -0.09019  -0.08628  -0.02210  -0.01616   0.00250
 Alpha virt. eigenvalues --    0.00670   0.01752   0.02437   0.02566   0.03780
 Alpha virt. eigenvalues --    0.04129   0.04757   0.04988   0.05248   0.05997

 Mulliken charges:
               1
     1  Mg  12.000156
     2  C    5.996913
     3  C    6.000955
     4  C    6.002435
     5  C    5.999655
     6  N    6.998493
     7  C    6.003712
     8  C    5.998792
     9  C    6.001307
    10  C    5.997099
    11  C    6.000466
    12  C    5.999777
    13  C    5.999940
    14  H    1.000429
    15  N    7.001372
    16  C    5.995684
    17  C    5.998204
    18  C    5.998015
    19  C    5.996573
    20  C    6.000569
    21  C    5.999113
    22  O    7.996935
    23  C    6.000249
    24  N    7.000793
    25  C    5.996886
    26  C    6.000298
    27  C    5.999561
    28  C    6.002221
    29  C    6.000268
    30  C    5.999623
    31  C    6.000083
    32  N    6.999788
    33  C    6.003752
    34  C    6.002427
    35  C    6.000926
    36  C    6.003193
    37  C    5.999890
    38  C    6.001322
    39  O    8.003485
    40  C    6.000878
    41  C    6.000403
    42  O    8.000296
    43  O    8.000292
    44  C    5.999756
    45  H    0.998593
    46  H    0.999753
    47  H    1.001235
    48  H    0.999769
    49  H    0.999663
    50  H    0.998476
    51  H    1.000128
    52  H    0.999592
    53  H    1.001028
    54  H    0.999267
    55  H    1.000381
    56  H    0.999709
    57  H    0.997999
    58  H    0.998172
    59  H    0.998243
    60  H    0.999093
    61  H    0.998462
    62  H    0.999548
    63  H    1.000281
    64  H    0.999889
    65  H    0.999081
    66  H    0.999934
    67  H    1.000574
    68  H    0.999416
    69  H    1.001046
    70  H    0.999783
    71  H    1.000445
    72  H    1.000566
    73  H    1.001646
    74  H    1.001720
    75  H    1.001489
    76  H    1.000800
    77  H    1.000079
    78  H    1.000565
    79  H    1.000589
    80  Mg  11.997818
    81  C    6.027976
    82  C    5.982561
    83  C    5.963240
    84  C    6.014065
    85  N    7.006514
    86  C    5.963441
    87  C    6.012108
    88  C    5.986994
    89  C    6.034690
    90  C    5.995527
    91  C    6.002605
    92  C    6.004913
    93  H    0.991816
    94  N    6.990323
    95  C    6.046875
    96  C    6.018652
    97  C    6.013179
    98  C    6.046459
    99  C    5.996090
   100  C    6.012620
   101  O    8.019130
   102  C    5.994946
   103  N    6.997333
   104  C    6.046303
   105  C    5.981179
   106  C    6.013172
   107  C    5.964129
   108  C    5.996977
   109  C    6.005203
   110  C    5.999907
   111  N    7.004063
   112  C    5.959279
   113  C    5.969358
   114  C    5.994607
   115  C    5.966518
   116  C    6.003969
   117  C    5.985145
   118  O    7.972172
   119  C    5.997395
   120  C    5.992072
   121  O    7.991110
   122  O    8.006488
   123  C    6.002615
   124  H    1.012806
   125  H    1.005023
   126  H    0.987870
   127  H    1.000101
   128  H    1.005851
   129  H    1.014769
   130  H    0.999910
   131  H    1.003471
   132  H    1.004121
   133  H    0.990912
   134  H    0.992170
   135  H    1.007181
   136  H    1.016633
   137  H    1.016217
   138  H    1.018979
   139  H    1.009230
   140  H    1.010421
   141  H    1.013063
   142  H    1.002755
   143  H    0.998581
   144  H    1.009872
   145  H    0.995028
   146  H    1.004988
   147  H    1.000216
   148  H    0.986447
   149  H    1.004074
   150  H    0.994079
   151  H    0.999450
   152  H    0.979977
   153  H    0.980713
   154  H    0.982484
   155  H    0.993456
   156  H    0.994996
   157  H    0.993317
   158  H    0.999301
 Sum of Mulliken charges = 624.00000

 Dipole moment (field-independent basis, Debye):
    X=              9.6088    Y=              3.7475    Z=             -5.5339  Tot=             11.7046
 Quadrupole moment (field-independent basis, Debye-Ang):
   XX=            278.1051   YY=              1.8895   ZZ=             -2.9083
   XY=             58.8494   XZ=            -85.3199   YZ=             -1.8000

 Normal termination of Gaussian 16 at Thu Sep 23 07:04:47 2021.
