 Gaussian 16, Revision A.03,
 Gaussian 16:  ES64L-G16RevA.03 25-Dec-2016

 ----------------------------------------------------------
 #p cam-b3lyp/Def2SVP td=(nstates=5) density=(transition=1)
 ----------------------------------------------------------

 --------------------------------
 TDDFT excited states in gaussian
 --------------------------------
 Symbolic Z-matrix:
 Charge =  0 Multiplicity = 1

                         Standard orientation:
 ---------------------------------------------------------------------
 Center     Atomic      Atomic             Coordinates (Angstroms)
 Number     Number       Type             X           Y           Z
 ---------------------------------------------------------------------
      1         12           0      -24.555352   -0.758793   -0.376158
      2          6           0      -25.627808    2.169866    1.410272
      3          6           0      -23.514093    1.458414   -2.939488
      4          6           0      -23.566046   -3.471062   -2.341148
      5          6           0      -25.925586   -2.763762    1.917935
      6          7           0      -24.788593    1.619159   -0.765171
      7          6           0      -25.138851    2.545341    0.152877
      8          6           0      -25.066258    3.981112   -0.480745
      9          6           0      -24.586750    3.627559   -1.933920
     10          6           0      -24.184250    2.135735   -1.884979
     11          6           0      -25.675125    3.950861   -3.016272
     12          6           0      -24.104231    4.918385    0.248840
     13          6           0      -24.591991    6.309620    0.487915
     14          1           0      -23.714390    7.270707    1.302794
     15          7           0      -23.501007   -0.999897   -2.223961
     16          6           0      -23.189805    0.033420   -3.101482
     17          6           0      -22.485316   -0.534878   -4.233613
     18          6           0      -22.388367   -1.905529   -4.059589
     19          6           0      -23.243901   -2.202500   -2.861566
     20          6           0      -22.075137    0.231524   -5.458151
     21          6           0      -21.751509   -3.030459   -4.974113
     22          8           0      -21.705146   -4.216901   -4.758895
     23          6           0      -20.954867   -2.608381   -6.189619
     24          7           0      -24.830092   -2.764674   -0.344091
     25          6           0      -24.367463   -3.725936   -1.204521
     26          6           0      -24.934294   -5.126732   -0.875393
     27          6           0      -25.472748   -4.941801    0.606916
     28          6           0      -25.372637   -3.375030    0.747856
     29          6           0      -25.988684   -5.619544   -1.917485
     30          6           0      -24.650814   -5.699582    1.693570
     31          6           0      -23.234462   -5.181592    1.933246
     32          7           0      -25.582607   -0.456066    1.282167
     33          6           0      -26.062023   -1.405501    2.227169
     34          6           0      -26.723350   -0.731250    3.342181
     35          6           0      -26.524230    0.636442    3.081662
     36          6           0      -25.829113    0.772041    1.850829
     37          6           0      -27.364324   -1.378888    4.480483
     38          6           0      -26.811495    1.953152    3.641530
     39          8           0      -27.333632    2.247433    4.703722
     40          6           0      -26.318809    3.030028    2.532407
     41          6           0      -25.412527    3.899958    3.406801
     42          8           0      -24.293044    3.623747    3.874339
     43          8           0      -26.038221    5.033745    3.671054
     44          6           0      -25.259006    6.188765    4.276591
     45          1           0      -23.130668    2.154694   -3.687836
     46          1           0      -23.299373   -4.378889   -2.887903
     47          1           0      -26.284706   -3.475943    2.663383
     48          1           0      -26.069078    4.383727   -0.342097
     49          1           0      -23.673572    4.162581   -2.198037
     50          1           0      -25.361474    4.607364   -3.827891
     51          1           0      -26.640598    4.242383   -2.602346
     52          1           0      -25.973026    3.122639   -3.659629
     53          1           0      -23.404970    5.159388   -0.552013
     54          1           0      -23.597666    4.444695    1.090463
     55          1           0      -25.592312    6.474541    0.891510
     56          1           0      -24.623256    6.730966   -0.516929
     57          1           0      -22.208646    1.304003   -5.318849
     58          1           0      -22.600425   -0.041942   -6.374565
     59          1           0      -21.023579    0.151205   -5.734092
     60          1           0      -20.102471   -1.980629   -5.930135
     61          1           0      -21.721282   -2.116633   -6.788779
     62          1           0      -20.748546   -3.554535   -6.689977
     63          1           0      -24.078928   -5.788393   -1.016446
     64          1           0      -26.549383   -5.014560    0.762323
     65          1           0      -25.628965   -6.456793   -2.515523
     66          1           0      -26.444818   -4.881790   -2.576677
     67          1           0      -26.798379   -5.930420   -1.257047
     68          1           0      -24.805439   -6.766675    1.533255
     69          1           0      -25.155652   -5.542985    2.646685
     70          1           0      -22.888759   -4.406473    1.250270
     71          1           0      -22.582784   -6.043185    1.790217
     72          1           0      -23.074382   -4.657678    2.874876
     73          1           0      -27.810085   -0.699240    5.207040
     74          1           0      -26.575963   -1.968166    4.948653
     75          1           0      -28.110607   -2.070023    4.086137
     76          1           0      -27.118884    3.703314    2.224781
     77          1           0      -25.867911    7.076330    4.103241
     78          1           0      -24.315996    6.378822    3.764937
     79          1           0      -25.009444    6.041177    5.327966
     80         12           0       24.331935   -0.630052    0.327050
     81          6           0       24.785213    2.113198   -1.795394
     82          6           0       24.010474    1.382924    2.898885
     83          6           0       24.654447   -3.329971    2.427104
     84          6           0       25.184480   -2.784120   -2.337283
     85          7           0       24.298271    1.473070    0.457712
     86          6           0       24.433004    2.448830   -0.505335
     87          6           0       24.120582    3.834103    0.045685
     88          6           0       24.105475    3.562035    1.584153
     89          6           0       24.029445    2.076610    1.655619
     90          6           0       25.158982    4.195060    2.467284
     91          6           0       22.837747    4.502188   -0.544431
     92          6           0       22.531679    5.907587   -0.015333
     93          1           0       22.299540    6.981415   -1.068187
     94          7           0       24.394100   -0.930781    2.489714
     95          6           0       24.090547    0.049538    3.365812
     96          6           0       23.992192   -0.509748    4.685465
     97          6           0       24.288480   -1.879233    4.574802
     98          6           0       24.474265   -2.090869    3.113449
     99          6           0       23.692031    0.303910    5.926607
    100          6           0       24.306690   -2.941651    5.624515
    101          8           0       24.720021   -4.123375    5.481179
    102          6           0       23.750182   -2.653857    7.013560
    103          7           0       24.865306   -2.705763    0.079072
    104          6           0       24.989584   -3.576967    1.107276
    105          6           0       25.173885   -5.080711    0.525802
    106          6           0       24.863467   -4.879066   -0.998982
    107          6           0       24.897645   -3.389794   -1.125761
    108          6           0       26.633328   -5.584604    0.855119
    109          6           0       23.395042   -5.330049   -1.334925
    110          6           0       22.240887   -4.785888   -0.507536
    111          7           0       24.837830   -0.427602   -1.746022
    112          6           0       25.142158   -1.408541   -2.649470
    113          6           0       25.388481   -0.780657   -3.863704
    114          6           0       25.300430    0.625621   -3.653601
    115          6           0       24.961105    0.792669   -2.336724
    116          6           0       25.802754   -1.380327   -5.161048
    117          6           0       25.425678    1.983368   -4.230507
    118          8           0       25.757898    2.405215   -5.332335
    119          6           0       24.988558    3.005170   -3.043339
    120          6           0       25.947788    4.137848   -2.950074
    121          8           0       27.195736    4.047384   -3.148518
    122          8           0       25.228054    5.241395   -2.798552
    123          6           0       25.932925    6.459840   -3.148154
    124          1           0       23.784090    2.000927    3.770389
    125          1           0       24.724313   -4.205036    3.077617
    126          1           0       25.315846   -3.485451   -3.162755
    127          1           0       24.935886    4.454800   -0.326439
    128          1           0       23.180479    3.884242    2.063577
    129          1           0       25.682820    5.061938    2.064573
    130          1           0       25.879111    3.432269    2.764580
    131          1           0       24.699783    4.352444    3.443429
    132          1           0       21.979467    3.848368   -0.387475
    133          1           0       22.937907    4.564885   -1.627515
    134          1           0       23.430826    6.393067    0.363655
    135          1           0       21.738879    5.885623    0.732969
    136          1           0       23.675425    1.383008    5.774190
    137          1           0       24.454855    0.281735    6.704496
    138          1           0       22.747754    0.037565    6.402476
    139          1           0       24.422640   -1.949392    7.502294
    140          1           0       23.878745   -3.500157    7.687974
    141          1           0       22.696678   -2.371939    7.005718
    142          1           0       24.485730   -5.755538    1.034897
    143          1           0       25.698433   -5.349345   -1.518334
    144          1           0       27.149438   -4.970696    1.593467
    145          1           0       27.304159   -5.600954   -0.004000
    146          1           0       26.660491   -6.573868    1.309714
    147          1           0       23.514184   -6.404587   -1.195719
    148          1           0       23.094797   -5.169217   -2.369901
    149          1           0       22.621403   -4.282588    0.381540
    150          1           0       21.443948   -5.488143   -0.265366
    151          1           0       21.753031   -4.109042   -1.208991
    152          1           0       25.144449   -2.171427   -5.520946
    153          1           0       26.771194   -1.838068   -4.961395
    154          1           0       25.937996   -0.634002   -5.943196
    155          1           0       24.033130    3.401076   -3.386634
    156          1           0       25.280607    7.115605   -3.726187
    157          1           0       26.822902    6.342932   -3.766057
    158          1           0       26.178136    6.943380   -2.201990
 ---------------------------------------------------------------------

 SCF Done:  E(RCAM-B3LYP) =  -4069.80561731     A.U. after   19 cycles

 Excitation energies and oscillator strengths:

 Excited State   1:      Singlet-A      1.6510 eV  750.98 nm  f=0.3660  <S**2>=0.000
     309 -> 315       -0.18397
     312 -> 314        0.68517
     309 <- 315       -0.11254
 This state for optimization and/or second-order correction.
 Total Energy, E(TD-HF/TD-DFT) =  -4069.74494541
 Copying the excited state density for this state as the 1-particle RhoCI density.

 Excited State   2:      Singlet-A      1.7145 eV  723.16 nm  f=0.3946  <S**2>=0.000
     310 -> 316        0.16596
     311 -> 313        0.68903
     310 <- 316        0.10310

 Excited State   3:      Singlet-A      2.1453 eV  577.92 nm  f=0.1688  <S**2>=0.000
     310 -> 313        0.66339
     311 -> 316       -0.22679

 Excited State   4:      Singlet-A      2.2173 eV  559.16 nm  f=0.0915  <S**2>=0.000
     309 -> 314        0.62583
     312 -> 315        0.32031

 Excited State   5:      Singlet-A      2.9638 eV  418.33 nm  f=0.0000  <S**2>=0.000
     312 -> 313        0.70711

 The electronic state is 1-A.
 Alpha  occ. eigenvalues --  -46.89393 -46.88309 -19.26674 -19.24956 -19.19530
 Alpha  occ. eigenvalues --  -19.19379 -19.19122 -19.19063 -19.18466 -19.18016
 Alpha  occ. eigenvalues --  -14.42914 -14.42474 -14.41837 -14.41565 -14.40119
 Alpha  occ. eigenvalues --  -14.39775 -14.39693 -14.38037 -10.39252 -10.38480
 Alpha  occ. eigenvalues --  -10.35769 -10.35605 -10.35406 -10.34839 -10.32220
 Alpha  occ. eigenvalues --  -10.32131 -10.32033 -10.31419 -10.31386 -10.31253
 Alpha  occ. eigenvalues --  -10.31103 -10.31102 -10.31054 -10.31028 -10.30795
 Alpha  occ. eigenvalues --  -10.30643 -10.30640 -10.30109 -10.30016 -10.29928
 Alpha  occ. eigenvalues --  -10.29777 -10.29266 -10.28883 -10.28792 -10.28757
 Alpha  occ. eigenvalues --  -10.28612 -10.28537 -10.28430 -10.28426 -10.28381
 Alpha  occ. eigenvalues --  -10.28373 -10.28325 -10.28317 -10.28303 -10.28262
 Alpha  occ. eigenvalues --  -10.28230 -10.28184 -10.28153 -10.27895 -10.27878
 Alpha  occ. eigenvalues --  -10.27801 -10.27777 -10.27716 -10.27548 -10.27301
 Alpha  occ. eigenvalues --  -10.27083 -10.26905 -10.26849 -10.26630 -10.26514
 Alpha  occ. eigenvalues --  -10.26498 -10.26492 -10.26484 -10.26236 -10.26158
 Alpha  occ. eigenvalues --  -10.26137 -10.26111 -10.26083 -10.26033 -10.25724
 Alpha  occ. eigenvalues --  -10.25680 -10.25435 -10.25430 -10.25417 -10.24900
 Alpha  occ. eigenvalues --  -10.24286  -3.17781  -3.16999  -1.92690  -1.92207
 Alpha  occ. eigenvalues --   -1.92096  -1.91885  -1.91471  -1.91304  -1.18111
 Alpha  occ. eigenvalues --   -1.15958  -1.11469  -1.10050  -1.08809  -1.08383
 Alpha  occ. eigenvalues --   -1.05934  -1.05424  -1.05300  -1.04375  -1.03804
 Alpha  occ. eigenvalues --   -1.03351  -1.03142  -1.02472  -1.02232  -1.01717
 Alpha  occ. eigenvalues --   -0.91869  -0.90878  -0.89612  -0.89297  -0.89270
 Alpha  occ. eigenvalues --   -0.88764  -0.88418  -0.88011  -0.87999  -0.87370
 Alpha  occ. eigenvalues --   -0.87152  -0.86970  -0.86463  -0.85694  -0.84817
 Alpha  occ. eigenvalues --   -0.84136  -0.83776  -0.83597  -0.82923  -0.82381
 Alpha  occ. eigenvalues --   -0.81871  -0.81523  -0.81349  -0.81044  -0.80683
 Alpha  occ. eigenvalues --   -0.80181  -0.78895  -0.78149  -0.77599  -0.77371
 Alpha  occ. eigenvalues --   -0.77319  -0.76970  -0.76138  -0.75993  -0.75248
 Alpha  occ. eigenvalues --   -0.75140  -0.72763  -0.72609  -0.71762  -0.71662
 Alpha  occ. eigenvalues --   -0.70082  -0.69923  -0.69194  -0.68767  -0.68364
 Alpha  occ. eigenvalues --   -0.67697  -0.67552  -0.66293  -0.65545  -0.65495
 Alpha  occ. eigenvalues --   -0.65215  -0.65134  -0.64691  -0.64584  -0.64576
 Alpha  occ. eigenvalues --   -0.64072  -0.62754  -0.61794  -0.61030  -0.59792
 Alpha  occ. eigenvalues --   -0.59610  -0.59293  -0.59262  -0.58955  -0.58547
 Alpha  occ. eigenvalues --   -0.57719  -0.57625  -0.57378  -0.57241  -0.56255
 Alpha  occ. eigenvalues --   -0.56222  -0.56048  -0.55815  -0.55658  -0.55506
 Alpha  occ. eigenvalues --   -0.55477  -0.55332  -0.55040  -0.54681  -0.54410
 Alpha  occ. eigenvalues --   -0.53980  -0.53346  -0.53287  -0.53230  -0.53153
 Alpha  occ. eigenvalues --   -0.52940  -0.52909  -0.52735  -0.52549  -0.52441
 Alpha  occ. eigenvalues --   -0.52135  -0.51731  -0.51589  -0.51535  -0.50991
 Alpha  occ. eigenvalues --   -0.50982  -0.50908  -0.50578  -0.50463  -0.50127
 Alpha  occ. eigenvalues --   -0.50126  -0.49815  -0.49621  -0.49539  -0.49303
 Alpha  occ. eigenvalues --   -0.49242  -0.49121  -0.48967  -0.48868  -0.48668
 Alpha  occ. eigenvalues --   -0.48593  -0.48503  -0.48453  -0.48373  -0.48147
 Alpha  occ. eigenvalues --   -0.48117  -0.47537  -0.47467  -0.47254  -0.47214
 Alpha  occ. eigenvalues --   -0.46779  -0.46741  -0.46670  -0.46508  -0.46397
 Alpha  occ. eigenvalues --   -0.46356  -0.46199  -0.45975  -0.45869  -0.45845
 Alpha  occ. eigenvalues --   -0.45518  -0.45456  -0.45253  -0.45194  -0.44927
 Alpha  occ. eigenvalues --   -0.44746  -0.44469  -0.44427  -0.44296  -0.44175
 Alpha  occ. eigenvalues --   -0.43982  -0.43874  -0.43738  -0.43656  -0.43545
 Alpha  occ. eigenvalues --   -0.43431  -0.43220  -0.43171  -0.43005  -0.42983
 Alpha  occ. eigenvalues --   -0.42890  -0.42598  -0.42512  -0.42368  -0.42161
 Alpha  occ. eigenvalues --   -0.42087  -0.41829  -0.41781  -0.41452  -0.41424
 Alpha  occ. eigenvalues --   -0.41249  -0.40926  -0.40880  -0.40512  -0.40381
 Alpha  occ. eigenvalues --   -0.40202  -0.39623  -0.39596  -0.39265  -0.39216
 Alpha  occ. eigenvalues --   -0.38684  -0.38648  -0.38064  -0.37911  -0.37536
 Alpha  occ. eigenvalues --   -0.37321  -0.36933  -0.36638  -0.36591  -0.36312
 Alpha  occ. eigenvalues --   -0.36071  -0.35652  -0.34094  -0.33965  -0.33920
 Alpha  occ. eigenvalues --   -0.33141  -0.32919  -0.32743  -0.31964  -0.31454
 Alpha  occ. eigenvalues --   -0.31167  -0.31000  -0.30813  -0.30805  -0.30371
 Alpha  occ. eigenvalues --   -0.30118  -0.29997  -0.28522  -0.24122  -0.24082
 Alpha  occ. eigenvalues --   -0.21786  -0.20972
 Alpha virt. eigenvalues --   -0.09386  -0.08714  -0.02047  -0.01302  -0.00042
 Alpha virt. eigenvalues --    0.00640   0.01781   0.02376   0.02488   0.03396
 Alpha virt. eigenvalues --    0.04428   0.04642   0.05140   0.05250   0.05667

 Mulliken charges:
               1
     1  Mg  12.000715
     2  C    5.977968
     3  C    6.023457
     4  C    6.028231
     5  C    5.992559
     6  N    6.990703
     7  C    6.029359
     8  C    5.995195
     9  C    6.006190
    10  C    5.966801
    11  C    6.002567
    12  C    5.994227
    13  C    5.998079
    14  H    1.000581
    15  N    7.009824
    16  C    5.948236
    17  C    5.985493
    18  C    5.981516
    19  C    5.956377
    20  C    6.006952
    21  C    5.987793
    22  O    7.973477
    23  C    6.003681
    24  N    7.012172
    25  C    5.957564
    26  C    6.007222
    27  C    5.995873
    28  C    6.033693
    29  C    6.005436
    30  C    5.994490
    31  C    5.993043
    32  N    6.994244
    33  C    6.041002
    34  C    6.028542
    35  C    6.004155
    36  C    6.036210
    37  C    5.997926
    38  C    6.014312
    39  O    8.028306
    40  C    6.002903
    41  C    6.003457
    42  O    8.005038
    43  O    8.000095
    44  C    5.997590
    45  H    0.989779
    46  H    0.993902
    47  H    1.012752
    48  H    0.996384
    49  H    1.001231
    50  H    0.997125
    51  H    0.987021
    52  H    1.002361
    53  H    1.009735
    54  H    0.996327
    55  H    0.996654
    56  H    1.005877
    57  H    0.981587
    58  H    0.979352
    59  H    0.980442
    60  H    0.992249
    61  H    0.995018
    62  H    0.985519
    63  H    1.002494
    64  H    0.997554
    65  H    1.000080
    66  H    1.001218
    67  H    0.986111
    68  H    1.010555
    69  H    0.995892
    70  H    1.011763
    71  H    1.008738
    72  H    0.995795
    73  H    1.015440
    74  H    1.018640
    75  H    1.018749
    76  H    1.008850
    77  H    1.004628
    78  H    1.005310
    79  H    1.001613
    80  Mg  12.000038
    81  C    5.999918
    82  C    5.999961
    83  C    6.000121
    84  C    6.000051
    85  N    6.999965
    86  C    6.000111
    87  C    5.999966
    88  C    6.000031
    89  C    5.999911
    90  C    6.000020
    91  C    5.999987
    92  C    6.000010
    93  H    1.000012
    94  N    6.999985
    95  C    5.999890
    96  C    5.999909
    97  C    5.999931
    98  C    5.999847
    99  C    6.000067
   100  C    5.999951
   101  O    7.999871
   102  C    6.000037
   103  N    7.000035
   104  C    5.999891
   105  C    6.000029
   106  C    5.999971
   107  C    6.000049
   108  C    6.000013
   109  C    5.999947
   110  C    5.999973
   111  N    7.000016
   112  C    6.000097
   113  C    6.000140
   114  C    6.000008
   115  C    6.000148
   116  C    5.999964
   117  C    6.000066
   118  O    8.000107
   119  C    6.000003
   120  C    6.000005
   121  O    7.999997
   122  O    8.000016
   123  C    5.999990
   124  H    0.999961
   125  H    0.999974
   126  H    1.000065
   127  H    0.999981
   128  H    0.999990
   129  H    0.999929
   130  H    0.999981
   131  H    0.999984
   132  H    1.000048
   133  H    0.999988
   134  H    0.999986
   135  H    1.000025
   136  H    0.999919
   137  H    0.999886
   138  H    0.999913
   139  H    0.999946
   140  H    0.999913
   141  H    0.999973
   142  H    1.000007
   143  H    1.000010
   144  H    1.000002
   145  H    0.999953
   146  H    0.999984
   147  H    1.000049
   148  H    1.000023
   149  H    1.000042
   150  H    1.000046
   151  H    1.000013
   152  H    1.000119
   153  H    1.000073
   154  H    1.000077
   155  H    1.000048
   156  H    1.000034
   157  H    0.999997
   158  H    1.000007
 Sum of Mulliken charges = 624.00000

 Dipole moment (field-independent basis, Debye):
    X=             -4.8971    Y=              0.9702    Z=              9.5918  Tot=             10.8132
 Quadrupole moment (field-independent basis, Debye-Ang):
   XX=            239.9304   YY=              1.1013   ZZ=             -9.5748
   XY=            -19.4958   XZ=           -235.0033   YZ=             -6.7458

 Normal termination of Gaussian 16 at Wed Sep 22 10:12:20 2021.
