 Gaussian 16, Revision A.03,
 Gaussian 16:  ES64L-G16RevA.03 25-Dec-2016

 -----------------------------------------------------------
 #p cam-b3lyp/Def2SVP td=(nstates=5, root=1) density=current
 -----------------------------------------------------------

 --------------------------------
 TDDFT excited states in gaussian
 --------------------------------
 Symbolic Z-matrix:
 Charge =  0 Multiplicity = 1

                         Standard orientation:
 ---------------------------------------------------------------------
 Center     Atomic      Atomic             Coordinates (Angstroms)
 Number     Number       Type             X           Y           Z
 ---------------------------------------------------------------------
      1         12           0       -0.812167    0.074761    0.039063
      2          6           0        2.787936    0.271257    0.141341
      3          6           0       -0.435837   -3.407888   -0.124811
      4          6           0       -4.088730   -0.133401    0.065469
      5          6           0       -0.953181    3.564810   -0.105166
      6          7           0        1.048224   -1.378986   -0.010565
      7          6           0        2.349265   -1.088283    0.254076
      8          6           0        3.163713   -2.337861    0.546780
      9          6           0        2.178868   -3.559849    0.108650
     10          6           0        0.858743   -2.750573   -0.045236
     11          6           0        2.646777   -4.366065   -1.128796
     12          6           0        3.632215   -2.418721    2.038942
     13          6           0        5.167948   -2.547154    2.211288
     14          1           0        5.638032   -3.956788    2.895722
     15          7           0       -2.045798   -1.498347   -0.013195
     16          6           0       -1.763359   -2.902792   -0.112789
     17          6           0       -2.980143   -3.748882   -0.122257
     18          6           0       -4.015241   -2.764050   -0.007388
     19          6           0       -3.404299   -1.424530    0.021270
     20          6           0       -2.988816   -5.273625   -0.248977
     21          6           0       -5.482773   -2.965049   -0.020777
     22          8           0       -6.320756   -2.133285    0.310447
     23          6           0       -6.013876   -4.375319   -0.344473
     24          7           0       -2.261072    1.498101    0.160804
     25          6           0       -3.572854    1.170091    0.126645
     26          6           0       -4.469935    2.358176   -0.083184
     27          6           0       -3.505669    3.569806   -0.095529
     28          6           0       -2.135858    2.869746    0.051476
     29          6           0       -5.400725    2.247750   -1.272541
     30          6           0       -3.802202    4.557924    1.179915
     31          6           0       -4.066280    6.118550    0.815250
     32          7           0        0.608855    1.630024   -0.249091
     33          6           0        0.365502    3.023890   -0.202585
     34          6           0        1.665663    3.703847   -0.222118
     35          6           0        2.586140    2.657647    0.049674
     36          6           0        1.921862    1.439028   -0.097556
     37          6           0        1.995361    5.182213   -0.405330
     38          6           0        4.052666    2.401868    0.117855
     39          8           0        5.093754    3.112208    0.047167
     40          6           0        4.183894    0.840923    0.305261
     41          6           0        5.139959    0.317669   -0.725751
     42          8           0        5.133446    0.641918   -1.879531
     43          8           0        6.073540   -0.477673   -0.121350
     44          6           0        7.238517   -0.754449   -0.999289
     45          1           0       -0.262219   -4.469833   -0.309672
     46          1           0       -5.180971   -0.134687    0.072766
     47          1           0       -0.973067    4.656388   -0.111453
     48          1           0        4.002055   -2.318612   -0.149624
     49          1           0        1.997158   -4.262042    0.922731
     50          1           0        1.955415   -4.235170   -1.961770
     51          1           0        2.734685   -5.425058   -0.882623
     52          1           0        3.654831   -4.151100   -1.483443
     53          1           0        3.195935   -3.275540    2.553038
     54          1           0        3.347744   -1.527111    2.598334
     55          1           0        5.574728   -1.857603    2.951443
     56          1           0        5.754733   -2.341275    1.316631
     57          1           0       -2.055036   -5.794600   -0.035111
     58          1           0       -3.363059   -5.663784   -1.195401
     59          1           0       -3.702497   -5.610257    0.503655
     60          1           0       -5.715386   -4.671630   -1.350023
     61          1           0       -7.093997   -4.451705   -0.215072
     62          1           0       -5.568226   -5.069592    0.367885
     63          1           0       -5.170148    2.400156    0.752203
     64          1           0       -3.544639    4.096839   -1.048394
     65          1           0       -6.442881    2.086253   -0.995625
     66          1           0       -5.210972    1.400372   -1.931262
     67          1           0       -5.291048    3.154603   -1.867619
     68          1           0       -3.009296    4.566573    1.927085
     69          1           0       -4.685906    4.258295    1.742671
     70          1           0       -4.365151    6.124137   -0.233146
     71          1           0       -3.177259    6.729546    0.976876
     72          1           0       -4.945815    6.503489    1.330672
     73          1           0        2.891475    5.474992    0.141462
     74          1           0        1.208239    5.752625    0.089167
     75          1           0        1.944634    5.319371   -1.485572
     76          1           0        4.682585    0.703184    1.264320
     77          1           0        6.850971   -1.162594   -1.932541
     78          1           0        7.749059   -1.571342   -0.489492
     79          1           0        7.898458    0.065263   -1.283149
 ---------------------------------------------------------------------

 SCF Done:  E(RCAM-B3LYP) =  -2034.89743005     A.U. after   19 cycles

 Excitation energies and oscillator strengths:

 Excited State   1:      Singlet-A      1.6722 eV  741.46 nm  f=0.3717  <S**2>=0.000
     155 ->158         0.18810
     156 ->157         0.68426
     155 <-158         0.11185
 This state for optimization and/or second-order correction.
 Total Energy, E(TD-HF/TD-DFT) =  -2034.83597892
 Copying the excited state density for this state as the 1-particle RhoCI density.

 Excited State   2:      Singlet-A      2.1740 eV  570.29 nm  f=0.1342  <S**2>=0.000
     155 ->157         0.64727
     156 ->158        -0.27762

 Excited State   3:      Singlet-A      3.3168 eV  373.80 nm  f=0.0010  <S**2>=0.000
     152 ->159         0.10770
     152 ->160        -0.11148
     153 ->157        -0.12217
     154 ->157         0.65669
     154 ->159         0.10345

 Excited State   4:      Singlet-A      3.4924 eV  355.01 nm  f=0.0060  <S**2>=0.000
     152 ->157         0.56951
     152 ->159         0.25840
     152 ->160        -0.21142
     154 ->157        -0.15475

 Excited State   5:      Singlet-A      3.5034 eV  353.89 nm  f=0.1064  <S**2>=0.000
     151 ->157         0.46672
     151 ->159        -0.27751
     151 ->160        -0.18193
     153 ->157        -0.21994
     155 ->157        -0.10704
     156 ->158        -0.27754

 The electronic state is 1-A.
 Alpha  occ. eigenvalues --  -46.88533 -19.25648 -19.19747 -19.18955 -19.18687
 Alpha  occ. eigenvalues --  -14.42609 -14.41937 -14.40718 -14.39252 -10.38821
 Alpha  occ. eigenvalues --  -10.35144 -10.35125 -10.31927 -10.31831 -10.31579
 Alpha  occ. eigenvalues --  -10.31491 -10.31291 -10.30869 -10.30801 -10.30670
 Alpha  occ. eigenvalues --  -10.29981 -10.29101 -10.29042 -10.28996 -10.28908
 Alpha  occ. eigenvalues --  -10.28630 -10.28533 -10.28453 -10.28241 -10.28085
 Alpha  occ. eigenvalues --  -10.27963 -10.27832 -10.27330 -10.27241 -10.27147
 Alpha  occ. eigenvalues --  -10.26759 -10.26597 -10.26127 -10.26113 -10.26057
 Alpha  occ. eigenvalues --  -10.25917 -10.25493 -10.25190  -3.17176  -1.92073
 Alpha  occ. eigenvalues --   -1.91631  -1.91497  -1.16964  -1.09970  -1.08687
 Alpha  occ. eigenvalues --   -1.07067  -1.04001  -1.03269  -1.02585  -1.02017
 Alpha  occ. eigenvalues --   -0.91578  -0.88644  -0.88499  -0.88129  -0.87415
 Alpha  occ. eigenvalues --   -0.86997  -0.85638  -0.84024  -0.83173  -0.81818
 Alpha  occ. eigenvalues --   -0.81395  -0.80677  -0.79762  -0.79097  -0.77100
 Alpha  occ. eigenvalues --   -0.76787  -0.76037  -0.75229  -0.72558  -0.71421
 Alpha  occ. eigenvalues --   -0.69178  -0.68749  -0.67596  -0.67092  -0.65922
 Alpha  occ. eigenvalues --   -0.65636  -0.64388  -0.63998  -0.62369  -0.60803
 Alpha  occ. eigenvalues --   -0.59265  -0.58739  -0.58349  -0.57959  -0.57140
 Alpha  occ. eigenvalues --   -0.56140  -0.55278  -0.55065  -0.54499  -0.53780
 Alpha  occ. eigenvalues --   -0.53396  -0.52669  -0.52565  -0.52157  -0.51656
 Alpha  occ. eigenvalues --   -0.51453  -0.51378  -0.50849  -0.50462  -0.50066
 Alpha  occ. eigenvalues --   -0.49970  -0.49804  -0.49429  -0.49211  -0.48786
 Alpha  occ. eigenvalues --   -0.48247  -0.48116  -0.48008  -0.47567  -0.47469
 Alpha  occ. eigenvalues --   -0.47048  -0.46843  -0.46569  -0.46204  -0.45947
 Alpha  occ. eigenvalues --   -0.45575  -0.44989  -0.44816  -0.44776  -0.44377
 Alpha  occ. eigenvalues --   -0.44100  -0.43885  -0.43789  -0.43320  -0.42863
 Alpha  occ. eigenvalues --   -0.42610  -0.42219  -0.42037  -0.41545  -0.41313
 Alpha  occ. eigenvalues --   -0.40795  -0.40697  -0.40436  -0.40180  -0.39380
 Alpha  occ. eigenvalues --   -0.38601  -0.38234  -0.37491  -0.37342  -0.36381
 Alpha  occ. eigenvalues --   -0.35504  -0.34641  -0.34422  -0.33020  -0.31635
 Alpha  occ. eigenvalues --   -0.30994  -0.30598  -0.30274  -0.29386  -0.23908
 Alpha  occ. eigenvalues --   -0.21307
 Alpha virt. eigenvalues --   -0.08982  -0.01836   0.00129   0.02054   0.03553
 Alpha virt. eigenvalues --    0.04226   0.05214   0.05697   0.05915   0.07692
 Alpha virt. eigenvalues --    0.08318   0.08808   0.09108   0.09492   0.10270

 Mulliken charges:
               1
     1  Mg   0.838706
     2  C   -0.018127
     3  C   -0.077282
     4  C   -0.079421
     5  C   -0.078295
     6  N   -0.249472
     7  C   -0.042185
     8  C   -0.011213
     9  C   -0.063171
    10  C    0.001409
    11  C    0.064187
    12  C    0.082951
    13  C   -0.088034
    14  H   -0.023071
    15  N   -0.428201
    16  C    0.169867
    17  C   -0.122837
    18  C   -0.023216
    19  C    0.157716
    20  C    0.117537
    21  C   -0.022646
    22  O   -0.211952
    23  C    0.045014
    24  N   -0.350325
    25  C    0.073510
    26  C   -0.030238
    27  C   -0.024340
    28  C    0.095923
    29  C    0.060706
    30  C    0.008115
    31  C   -0.025156
    32  N   -0.340079
    33  C    0.109416
    34  C   -0.166383
    35  C   -0.076508
    36  C    0.118761
    37  C    0.138781
    38  C    0.122043
    39  O   -0.215617
    40  C   -0.014138
    41  C    0.166648
    42  O   -0.186084
    43  O   -0.342335
    44  C    0.175288
    45  H   -0.031829
    46  H   -0.007825
    47  H   -0.029433
    48  H    0.022215
    49  H    0.020047
    50  H    0.028903
    51  H    0.014140
    52  H    0.019809
    53  H    0.026960
    54  H    0.023495
    55  H    0.032430
    56  H    0.041153
    57  H    0.020619
    58  H    0.036655
    59  H    0.021135
    60  H    0.029112
    61  H    0.023979
    62  H    0.016982
    63  H    0.023711
    64  H    0.028679
    65  H    0.019530
    66  H    0.023263
    67  H    0.006744
    68  H    0.020693
    69  H    0.014410
    70  H    0.008498
    71  H    0.031931
    72  H    0.020374
    73  H    0.042720
    74  H    0.006745
    75  H    0.047335
    76  H    0.035742
    77  H    0.032825
    78  H    0.033993
    79  H    0.058007
 Sum of Mulliken charges =  -0.00000

 Dipole moment (field-independent basis, Debye):
    X=             -1.5724    Y=             -3.0014    Z=              0.4741  Tot=              3.4214
 Quadrupole moment (field-independent basis, Debye-Ang):
   XX=           -276.6459   YY=           -226.9912   ZZ=           -260.9206
   XY=            -29.1863   XZ=              6.0064   YZ=              6.8721

 Normal termination of Gaussian 16 at Tue Oct 12 15:25:48 2021.
