 Gaussian 16, Revision A.03,
 Gaussian 16:  ES64L-G16RevA.03 25-Dec-2016

 -----------------------------------
 #p cam-b3lyp/Def2SVP td=(nstates=5)
 -----------------------------------

 --------------------------------
 TDDFT excited states in gaussian
 --------------------------------
 Symbolic Z-matrix:
 Charge =  0 Multiplicity = 1

                         Standard orientation:
 ---------------------------------------------------------------------
 Center     Atomic      Atomic             Coordinates (Angstroms)
 Number     Number       Type             X           Y           Z
 ---------------------------------------------------------------------
      1         12           0       22.023448   -0.685425    0.266437
      2          6           0       21.578181    2.394511   -1.531972
      3          6           0       22.858458    1.327350    3.063289
      4          6           0       22.642549   -3.551574    2.163332
      5          6           0       21.607260   -2.473901   -2.524342
      6          7           0       22.388248    1.683303    0.607674
      7          6           0       22.024100    2.674181   -0.234265
      8          6           0       22.345081    4.070017    0.411335
      9          6           0       22.946937    3.615381    1.788912
     10          6           0       22.652935    2.100950    1.888909
     11          6           0       24.468867    3.971389    1.921412
     12          6           0       21.114738    4.963255    0.568347
     13          6           0       21.286842    6.397060    0.187315
     14          1           0       20.063529    7.324327    0.227014
     15          7           0       22.447655   -1.089814    2.325725
     16          6           0       22.759984   -0.124110    3.276777
     17          6           0       22.987511   -0.795256    4.541208
     18          6           0       22.838455   -2.160005    4.357874
     19          6           0       22.705732   -2.336199    2.872368
     20          6           0       23.460365   -0.118701    5.795716
     21          6           0       22.989720   -3.370559    5.367374
     22          8           0       22.846637   -4.546098    5.135536
     23          6           0       23.174834   -3.066050    6.838174
     24          7           0       22.265549   -2.660968   -0.105968
     25          6           0       22.508130   -3.692751    0.762920
     26          6           0       22.758673   -5.029839    0.027206
     27          6           0       22.186853   -4.737340   -1.424978
     28          6           0       21.975160   -3.178004   -1.333806
     29          6           0       24.251329   -5.487491    0.082781
     30          6           0       20.875138   -5.505585   -1.771141
     31          6           0       19.635381   -5.086857   -0.984072
     32          7           0       21.701430   -0.230314   -1.627268
     33          6           0       21.469325   -1.096569   -2.731814
     34          6           0       21.217527   -0.323959   -3.946265
     35          6           0       21.200167    1.011327   -3.504892
     36          6           0       21.479889    1.037540   -2.112918
     37          6           0       20.971983   -0.868516   -5.276370
     38          6           0       21.012659    2.370146   -4.003041
     39          8           0       20.701165    2.751269   -5.118926
     40          6           0       21.338899    3.354886   -2.755480
     41          6           0       20.057447    4.191867   -2.749580
     42          8           0       18.914186    3.852515   -2.394727
     43          8           0       20.324225    5.380907   -3.261252
     44          6           0       19.307060    6.499359   -3.111712
     45          1           0       23.040966    1.957692    3.935760
     46          1           0       22.825570   -4.500958    2.672625
     47          1           0       21.408770   -3.122067   -3.380113
     48          1           0       22.999063    4.553855   -0.313357
     49          1           0       22.416722    4.066630    2.628642
     50          1           0       24.746619    4.564567    2.792671
     51          1           0       24.917150    4.354205    1.004377
     52          1           0       25.138787    3.140000    2.141878
     53          1           0       21.106241    5.113634    1.648036
     54          1           0       20.193696    4.490937    0.224957
     55          1           0       21.771714    6.655964   -0.755339
     56          1           0       21.958041    6.773570    0.959295
     57          1           0       23.439706    0.966049    5.694070
     58          1           0       24.465451   -0.392551    6.120268
     59          1           0       22.850730   -0.291460    6.682772
     60          1           0       22.344278   -2.494059    7.251678
     61          1           0       24.132213   -2.544922    6.830945
     62          1           0       23.373988   -4.046900    7.269920
     63          1           0       22.224689   -5.760558    0.635690
     64          1           0       22.898764   -4.720606   -2.250503
     65          1           0       24.395870   -6.376000    0.697348
     66          1           0       25.007264   -4.747729    0.343910
     67          1           0       24.437191   -5.705407   -0.969073
     68          1           0       21.126711   -6.563935   -1.841175
     69          1           0       20.626018   -5.267868   -2.805182
     70          1           0       19.801237   -4.372145   -0.178804
     71          1           0       19.261866   -6.001264   -0.523822
     72          1           0       18.882152   -4.534535   -1.544754
     73          1           0       20.812387   -0.124592   -6.057149
     74          1           0       20.086732   -1.494403   -5.164379
     75          1           0       21.812788   -1.517852   -5.524413
     76          1           0       22.125290    4.072622   -2.988960
     77          1           0       19.855205    7.422028   -3.303566
     78          1           0       18.926409    6.593505   -2.095139
     79          1           0       18.433078    6.380978   -3.753267
     80         12           0      -21.545829   -0.520246   -0.324546
     81          6           0      -23.266327    1.549468    1.749500
     82          6           0      -19.625481    2.030434   -1.631974
     83          6           0      -20.090659   -2.762838   -2.463851
     84          6           0      -23.785487   -3.193012    0.640410
     85          7           0      -21.618609    1.561826   -0.117362
     86          6           0      -22.241914    2.205727    1.003695
     87          6           0      -21.719346    3.574741    1.183878
     88          6           0      -20.886980    3.771816   -0.161682
     89          6           0      -20.671632    2.380863   -0.715273
     90          6           0      -21.635340    4.705762   -1.238665
     91          6           0      -21.006048    3.827779    2.547606
     92          6           0      -21.373194    5.104865    3.232240
     93          1           0      -21.549317    6.367438    2.299623
     94          7           0      -20.007938   -0.396065   -1.791529
     95          6           0      -19.394867    0.768068   -2.148323
     96          6           0      -18.423426    0.453595   -3.139103
     97          6           0      -18.448828   -0.977582   -3.367813
     98          6           0      -19.520786   -1.503088   -2.457532
     99          6           0      -17.604217    1.544443   -3.862953
    100          6           0      -17.636450   -1.890627   -4.231952
    101          8           0      -17.800819   -3.097575   -4.442475
    102          6           0      -16.384009   -1.224068   -4.917166
    103          7           0      -21.955255   -2.703334   -0.940059
    104          6           0      -21.158238   -3.368655   -1.738571
    105          6           0      -21.412316   -4.874004   -1.693788
    106          6           0      -22.598433   -4.990515   -0.694314
    107          6           0      -22.820406   -3.530017   -0.306134
    108          6           0      -21.750278   -5.516422   -3.133911
    109          6           0      -22.142410   -5.888743    0.538751
    110          6           0      -21.052305   -5.398955    1.523786
    111          7           0      -23.299967   -0.754819    0.815269
    112          6           0      -24.027131   -1.885268    1.137031
    113          6           0      -24.988976   -1.477420    2.181206
    114          6           0      -24.771189   -0.170989    2.501126
    115          6           0      -23.706214    0.227609    1.614221
    116          6           0      -26.110545   -2.331906    2.662580
    117          6           0      -25.168223    0.966015    3.331241
    118          8           0      -26.035371    1.075889    4.181779
    119          6           0      -24.189580    2.122844    2.844045
    120          6           0      -25.030913    3.185489    2.257013
    121          8           0      -25.856603    3.085383    1.332792
    122          8           0      -24.697034    4.313769    2.978374
    123          6           0      -25.272738    5.560328    2.456931
    124          1           0      -18.962085    2.799544   -2.032639
    125          1           0      -19.504795   -3.444576   -3.084948
    126          1           0      -24.419709   -4.004588    1.001395
    127          1           0      -22.609689    4.204800    1.178906
    128          1           0      -19.923010    4.205365    0.102847
    129          1           0      -22.467963    5.272456   -0.821894
    130          1           0      -22.126776    4.025892   -1.934489
    131          1           0      -20.819842    5.264310   -1.696231
    132          1           0      -19.926253    3.843558    2.399358
    133          1           0      -21.336290    2.980660    3.148631
    134          1           0      -20.608548    5.451719    3.926187
    135          1           0      -22.240133    5.171661    3.889694
    136          1           0      -16.782453    1.977899   -3.293053
    137          1           0      -18.374556    2.262141   -4.144578
    138          1           0      -17.049350    1.161702   -4.719267
    139          1           0      -16.726422   -0.576506   -5.724370
    140          1           0      -15.660685   -2.010676   -5.131215
    141          1           0      -15.777783   -0.628756   -4.234074
    142          1           0      -20.535040   -5.359202   -1.266584
    143          1           0      -23.488944   -5.448836   -1.124567
    144          1           0      -20.858598   -6.071165   -3.428116
    145          1           0      -21.931096   -4.727037   -3.864203
    146          1           0      -22.561446   -6.237416   -3.226906
    147          1           0      -21.851963   -6.907939    0.284354
    148          1           0      -23.060094   -5.908129    1.127514
    149          1           0      -21.607258   -5.299662    2.456771
    150          1           0      -20.576330   -4.474527    1.199114
    151          1           0      -20.232479   -6.103835    1.661898
    152          1           0      -26.215780   -2.020104    3.701261
    153          1           0      -25.900927   -3.397950    2.572806
    154          1           0      -27.026432   -1.938805    2.223243
    155          1           0      -23.815516    2.452616    3.812925
    156          1           0      -24.985948    6.280328    3.223933
    157          1           0      -26.353925    5.429014    2.500533
    158          1           0      -25.029449    5.798581    1.421281
 ---------------------------------------------------------------------

 SCF Done:  E(RCAM-B3LYP) =  -4069.79105105     A.U. after   19 cycles

 Excitation energies and oscillator strengths:

 Excited State   1:      Singlet-A      1.6510 eV  750.98 nm  f=0.3653  <S**2>=0.000
     310 -> 316        0.18396
     311 -> 313        0.68514
     310 <- 316        0.11254
 This state for optimization and/or second-order correction.
 Total Energy, E(TD-HF/TD-DFT) =  -4069.73037946
 Copying the excited state density for this state as the 1-particle RhoCI density.

 Excited State   2:      Singlet-A      1.6992 eV  729.67 nm  f=0.3850  <S**2>=0.000
     309 -> 315       -0.18621
     312 -> 314        0.68407
     309 <- 315       -0.10902

 Excited State   3:      Singlet-A      2.2173 eV  559.16 nm  f=0.0911  <S**2>=0.000
     310 -> 313        0.62577
     311 -> 316       -0.32042

 Excited State   4:      Singlet-A      2.2666 eV  547.00 nm  f=0.0454  <S**2>=0.000
     309 -> 314        0.60927
     312 -> 315        0.34929

 Excited State   5:      Singlet-A      3.1196 eV  397.44 nm  f=0.0000  <S**2>=0.000
     312 -> 313        0.70711

 The electronic state is 1-A.
 Alpha  occ. eigenvalues --  -46.89254 -46.88312 -19.25657 -19.24961 -19.20261
 Alpha  occ. eigenvalues --  -19.19558 -19.19533 -19.19500 -19.19383 -19.18020
 Alpha  occ. eigenvalues --  -14.42477 -14.42296 -14.42196 -14.41569 -14.40122
 Alpha  occ. eigenvalues --  -14.39697 -14.39506 -14.39486 -10.39525 -10.38485
 Alpha  occ. eigenvalues --  -10.35706 -10.35608 -10.35412 -10.35410 -10.32226
 Alpha  occ. eigenvalues --  -10.31985 -10.31838 -10.31777 -10.31422 -10.31389
 Alpha  occ. eigenvalues --  -10.31257 -10.31105 -10.31058 -10.30874 -10.30646
 Alpha  occ. eigenvalues --  -10.30339 -10.30180 -10.30020 -10.29931 -10.29898
 Alpha  occ. eigenvalues --  -10.29593 -10.29239 -10.29089 -10.28887 -10.28821
 Alpha  occ. eigenvalues --  -10.28797 -10.28760 -10.28616 -10.28434 -10.28428
 Alpha  occ. eigenvalues --  -10.28384 -10.28377 -10.28338 -10.28336 -10.28306
 Alpha  occ. eigenvalues --  -10.28157 -10.28135 -10.27891 -10.27843 -10.27760
 Alpha  occ. eigenvalues --  -10.27588 -10.27562 -10.27551 -10.27498 -10.27415
 Alpha  occ. eigenvalues --  -10.27381 -10.27354 -10.27304 -10.26908 -10.26851
 Alpha  occ. eigenvalues --  -10.26633 -10.26591 -10.26495 -10.26240 -10.26231
 Alpha  occ. eigenvalues --  -10.26116 -10.26086 -10.26037 -10.25847 -10.25845
 Alpha  occ. eigenvalues --  -10.25727 -10.25575 -10.25495 -10.25439 -10.25420
 Alpha  occ. eigenvalues --  -10.24735  -3.17658  -3.17002  -1.92561  -1.92103
 Alpha  occ. eigenvalues --   -1.91959  -1.91888  -1.91475  -1.91308  -1.15968
 Alpha  occ. eigenvalues --   -1.15963  -1.11472  -1.10202  -1.10054  -1.09607
 Alpha  occ. eigenvalues --   -1.07477  -1.05305  -1.05131  -1.03807  -1.03781
 Alpha  occ. eigenvalues --   -1.03145  -1.02896  -1.02235  -1.01720  -1.01717
 Alpha  occ. eigenvalues --   -0.92381  -0.90882  -0.89274  -0.89104  -0.88798
 Alpha  occ. eigenvalues --   -0.88767  -0.88014  -0.88011  -0.87373  -0.87282
 Alpha  occ. eigenvalues --   -0.86973  -0.86913  -0.86467  -0.86252  -0.84653
 Alpha  occ. eigenvalues --   -0.84139  -0.83600  -0.83378  -0.82422  -0.82385
 Alpha  occ. eigenvalues --   -0.81542  -0.81526  -0.81212  -0.81048  -0.80185
 Alpha  occ. eigenvalues --   -0.79968  -0.78152  -0.78088  -0.77362  -0.77322
 Alpha  occ. eigenvalues --   -0.77206  -0.76974  -0.75997  -0.75809  -0.75144
 Alpha  occ. eigenvalues --   -0.74980  -0.72612  -0.72472  -0.72182  -0.71666
 Alpha  occ. eigenvalues --   -0.70085  -0.69873  -0.69267  -0.68770  -0.68356
 Alpha  occ. eigenvalues --   -0.67556  -0.67437  -0.66296  -0.65499  -0.65239
 Alpha  occ. eigenvalues --   -0.65137  -0.65005  -0.64710  -0.64588  -0.64396
 Alpha  occ. eigenvalues --   -0.64076  -0.62542  -0.61798  -0.60304  -0.59613
 Alpha  occ. eigenvalues --   -0.59424  -0.59297  -0.58959  -0.58921  -0.58782
 Alpha  occ. eigenvalues --   -0.57979  -0.57723  -0.57488  -0.57382  -0.56260
 Alpha  occ. eigenvalues --   -0.55929  -0.55662  -0.55543  -0.55510  -0.55072
 Alpha  occ. eigenvalues --   -0.55044  -0.54882  -0.54684  -0.54426  -0.53984
 Alpha  occ. eigenvalues --   -0.53545  -0.53349  -0.53234  -0.53195  -0.53158
 Alpha  occ. eigenvalues --   -0.52914  -0.52739  -0.52444  -0.52399  -0.52290
 Alpha  occ. eigenvalues --   -0.52138  -0.52131  -0.51946  -0.51539  -0.51507
 Alpha  occ. eigenvalues --   -0.51059  -0.50985  -0.50912  -0.50893  -0.50130
 Alpha  occ. eigenvalues --   -0.49861  -0.49818  -0.49657  -0.49625  -0.49340
 Alpha  occ. eigenvalues --   -0.49307  -0.49246  -0.48971  -0.48921  -0.48673
 Alpha  occ. eigenvalues --   -0.48588  -0.48523  -0.48478  -0.48457  -0.48150
 Alpha  occ. eigenvalues --   -0.48123  -0.47702  -0.47541  -0.47470  -0.47386
 Alpha  occ. eigenvalues --   -0.47242  -0.46849  -0.46748  -0.46744  -0.46673
 Alpha  occ. eigenvalues --   -0.46359  -0.46203  -0.46143  -0.45881  -0.45849
 Alpha  occ. eigenvalues --   -0.45621  -0.45521  -0.45257  -0.45192  -0.44931
 Alpha  occ. eigenvalues --   -0.44776  -0.44538  -0.44430  -0.44178  -0.43985
 Alpha  occ. eigenvalues --   -0.43914  -0.43660  -0.43548  -0.43465  -0.43222
 Alpha  occ. eigenvalues --   -0.43175  -0.43009  -0.42990  -0.42986  -0.42912
 Alpha  occ. eigenvalues --   -0.42774  -0.42515  -0.42309  -0.42164  -0.42142
 Alpha  occ. eigenvalues --   -0.42108  -0.41940  -0.41832  -0.41692  -0.41540
 Alpha  occ. eigenvalues --   -0.41427  -0.40930  -0.40747  -0.40543  -0.40384
 Alpha  occ. eigenvalues --   -0.40206  -0.39796  -0.39599  -0.39520  -0.39220
 Alpha  occ. eigenvalues --   -0.38651  -0.38067  -0.37874  -0.37540  -0.37498
 Alpha  occ. eigenvalues --   -0.37149  -0.36727  -0.36642  -0.36399  -0.36264
 Alpha  occ. eigenvalues --   -0.36075  -0.35656  -0.34672  -0.34212  -0.33924
 Alpha  occ. eigenvalues --   -0.33482  -0.33145  -0.32747  -0.31457  -0.31223
 Alpha  occ. eigenvalues --   -0.31114  -0.31004  -0.30984  -0.30817  -0.30381
 Alpha  occ. eigenvalues --   -0.30374  -0.30000  -0.29884  -0.24413  -0.24126
 Alpha  occ. eigenvalues --   -0.20975  -0.20958
 Alpha virt. eigenvalues --   -0.08717  -0.08488  -0.02358  -0.02050  -0.00244
 Alpha virt. eigenvalues --    0.00637   0.01947   0.02170   0.02373   0.03393
 Alpha virt. eigenvalues --    0.04730   0.04936   0.05136   0.05246   0.05438

 Mulliken charges:
               1
     1  Mg   0.847234
     2  C    0.045337
     3  C   -0.060552
     4  C   -0.047691
     5  C   -0.098785
     6  N   -0.248846
     7  C   -0.052989
     8  C   -0.041259
     9  C   -0.032693
    10  C    0.025041
    11  C    0.061885
    12  C    0.091688
    13  C   -0.097191
    14  H    0.015851
    15  N   -0.370684
    16  C    0.163351
    17  C   -0.136137
    18  C   -0.047597
    19  C    0.113908
    20  C    0.100992
    21  C    0.008300
    22  O   -0.184740
    23  C    0.055701
    24  N   -0.324671
    25  C    0.018129
    26  C   -0.032849
    27  C   -0.028931
    28  C    0.038281
    29  C    0.074273
    30  C    0.042199
    31  C    0.003866
    32  N   -0.436322
    33  C    0.150809
    34  C   -0.152937
    35  C    0.006742
    36  C    0.125975
    37  C    0.128412
    38  C    0.055355
    39  O   -0.163328
    40  C   -0.066563
    41  C    0.185896
    42  O   -0.259005
    43  O   -0.310128
    44  C    0.186786
    45  H   -0.026642
    46  H   -0.004518
    47  H   -0.031253
    48  H    0.015154
    49  H    0.010143
    50  H    0.011130
    51  H    0.016506
    52  H    0.004614
    53  H   -0.000468
    54  H    0.045791
    55  H    0.027010
    56  H    0.015954
    57  H   -0.001700
    58  H    0.033579
    59  H    0.015862
    60  H    0.054910
    61  H    0.014250
    62  H    0.026528
    63  H    0.013908
    64  H    0.017105
    65  H    0.026054
    66  H    0.025188
    67  H    0.002890
    68  H    0.013575
    69  H   -0.002118
    70  H    0.021575
    71  H    0.022764
    72  H    0.019869
    73  H    0.040179
    74  H    0.029331
    75  H    0.022016
    76  H    0.037326
    77  H    0.039498
    78  H    0.037695
    79  H    0.054175
    80  Mg   0.798374
    81  C    0.018704
    82  C   -0.098313
    83  C   -0.026572
    84  C   -0.072699
    85  N   -0.371547
    86  C   -0.042101
    87  C   -0.004799
    88  C   -0.083336
    89  C    0.109741
    90  C    0.079489
    91  C    0.115795
    92  C   -0.087221
    93  H   -0.012878
    94  N   -0.377592
    95  C    0.154392
    96  C   -0.133037
    97  C   -0.038214
    98  C    0.104467
    99  C    0.104461
   100  C    0.019105
   101  O   -0.205618
   102  C    0.005660
   103  N   -0.192984
   104  C   -0.005876
   105  C   -0.021526
   106  C    0.004531
   107  C    0.005375
   108  C    0.043647
   109  C   -0.019978
   110  C   -0.000263
   111  N   -0.317249
   112  C    0.124303
   113  C   -0.222846
   114  C    0.035475
   115  C    0.083066
   116  C    0.127714
   117  C    0.060050
   118  O   -0.156817
   119  C   -0.043880
   120  C    0.209645
   121  O   -0.230304
   122  O   -0.341662
   123  C    0.182875
   124  H   -0.025385
   125  H   -0.002690
   126  H   -0.021304
   127  H    0.011619
   128  H    0.000569
   129  H    0.022056
   130  H    0.023896
   131  H    0.028400
   132  H    0.014430
   133  H    0.017217
   134  H    0.020356
   135  H    0.040240
   136  H    0.031572
   137  H    0.040602
   138  H   -0.006144
   139  H    0.059099
   140  H    0.025888
   141  H    0.020818
   142  H    0.023738
   143  H    0.011259
   144  H    0.021404
   145  H    0.027448
   146  H    0.019021
   147  H    0.016321
   148  H   -0.003165
   149  H    0.022464
   150  H    0.020514
   151  H    0.015725
   152  H    0.023462
   153  H    0.018827
   154  H    0.042573
   155  H    0.039236
   156  H    0.040899
   157  H    0.037720
   158  H    0.041758
 Sum of Mulliken charges =  -0.00000

 Dipole moment (field-independent basis, Debye):
    X=              7.1870    Y=              1.9208    Z=              2.8532  Tot=              7.9676
 Quadrupole moment (field-independent basis, Debye-Ang):
   XX=           -585.2418   YY=           -461.3794   ZZ=           -531.4400
   XY=              0.0998   XZ=             71.1250   YZ=             18.9915

 Normal termination of Gaussian 16 at Wed Sep 15 08:20:30 2021.
