 Gaussian 16, Revision A.03,
 Gaussian 16:  ES64L-G16RevA.03 25-Dec-2016

 -----------------------------------
 #p cam-b3lyp/Def2SVP td=(nstates=5)
 -----------------------------------

 --------------------------------
 TDDFT excited states in gaussian
 --------------------------------
 Symbolic Z-matrix:
 Charge =  0 Multiplicity = 1

                         Standard orientation:
 ---------------------------------------------------------------------
 Center     Atomic      Atomic             Coordinates (Angstroms)
 Number     Number       Type             X           Y           Z
 ---------------------------------------------------------------------
      1         12           0        9.755189   -0.413304    0.765658
      2          6           0        9.233461    1.974393   -1.861300
      3          6           0        6.409287    0.358641    1.749992
      4          6           0        9.566974   -3.217952    2.606143
      5          6           0       12.598142   -1.443235   -0.832206
      6          7           0        8.069145    0.967016   -0.015653
      7          6           0        8.094385    1.846848   -1.058122
      8          6           0        6.738272    2.622067   -1.201388
      9          6           0        6.068869    2.331696    0.226330
     10          6           0        6.850501    1.094869    0.639745
     11          6           0        6.246784    3.434669    1.244394
     12          6           0        5.962806    2.257534   -2.456536
     13          6           0        5.329964    3.416693   -3.269483
     14          1           0        3.773135    3.758469   -3.137827
     15          7           0        8.206329   -1.299317    2.130196
     16          6           0        6.947762   -0.742173    2.438657
     17          6           0        6.298853   -1.579971    3.454589
     18          6           0        7.262376   -2.624111    3.746391
     19          6           0        8.337518   -2.477682    2.788918
     20          6           0        4.937643   -1.411905    4.016978
     21          6           0        7.129047   -3.641116    4.852012
     22          8           0        6.234264   -3.497688    5.654521
     23          6           0        8.047642   -4.826842    5.037184
     24          7           0       10.848538   -2.070536    0.744044
     25          6           0       10.649349   -3.027604    1.735069
     26          6           0       11.735302   -4.092699    1.566032
     27          6           0       12.796194   -3.409816    0.627353
     28          6           0       12.049163   -2.198923    0.179964
     29          6           0       12.329725   -4.761241    2.859673
     30          6           0       13.410351   -4.259269   -0.527422
     31          6           0       14.898466   -4.368426   -0.602043
     32          7           0       10.813034    0.177083   -0.887537
     33          6           0       12.015712   -0.283412   -1.394395
     34          6           0       12.527981    0.628091   -2.435740
     35          6           0       11.390987    1.494748   -2.670891
     36          6           0       10.420767    1.151779   -1.724266
     37          6           0       13.844812    0.629328   -3.166563
     38          6           0       10.930586    2.643076   -3.505987
     39          8           0       11.447676    3.182323   -4.442514
     40          6           0        9.490529    2.884947   -3.065404
     41          6           0        9.367274    4.328045   -2.676816
     42          8           0        9.977657    4.726942   -1.708338
     43          8           0        8.444194    5.105356   -3.438886
     44          6           0        8.157411    6.482942   -2.935597
     45          1           0        5.409240    0.601735    2.115487
     46          1           0        9.672379   -4.158850    3.148815
     47          1           0       13.602405   -1.686815   -1.184323
     48          1           0        6.883987    3.701533   -1.173166
     49          1           0        5.028639    2.023147    0.122990
     50          1           0        7.241769    3.342765    1.679283
     51          1           0        5.437249    3.335580    1.967405
     52          1           0        6.217338    4.471464    0.907684
     53          1           0        5.129086    1.639907   -2.123976
     54          1           0        6.577205    1.571118   -3.039097
     55          1           0        5.544378    3.135576   -4.300830
     56          1           0        5.816214    4.377838   -3.102113
     57          1           0        5.064748   -0.896920    4.968724
     58          1           0        4.540202   -2.390137    4.287715
     59          1           0        4.162490   -0.905212    3.440837
     60          1           0        7.750124   -5.530542    5.814362
     61          1           0        9.011462   -4.404461    5.321606
     62          1           0        8.294744   -5.450254    4.178681
     63          1           0       11.168757   -4.906575    1.112629
     64          1           0       13.565242   -2.963393    1.257021
     65          1           0       12.145441   -4.136922    3.734365
     66          1           0       13.387699   -4.983829    2.722136
     67          1           0       11.876887   -5.739716    3.018248
     68          1           0       13.049496   -3.868581   -1.478810
     69          1           0       12.941578   -5.242212   -0.482685
     70          1           0       15.258122   -3.765613   -1.435664
     71          1           0       15.179166   -5.403660   -0.795476
     72          1           0       15.472344   -4.049295    0.267699
     73          1           0       14.058676    1.612113   -3.586179
     74          1           0       13.763912   -0.128207   -3.946615
     75          1           0       14.604914    0.253185   -2.481587
     76          1           0        8.841950    2.543768   -3.872419
     77          1           0        8.974155    7.144978   -3.223743
     78          1           0        8.125539    6.500276   -1.846407
     79          1           0        7.200753    6.842031   -3.314532
     80         12           0       -9.845307   -0.506415   -0.395776
     81          6           0       -7.959447    1.952163    1.497081
     82          6           0       -6.894821   -1.343705   -1.795228
     83          6           0      -11.532616   -2.620994   -2.094107
     84          6           0      -12.819201    0.814701    0.999746
     85          7           0       -7.581066    0.264918   -0.109768
     86          6           0       -7.094279    1.170149    0.756516
     87          6           0       -5.553907    1.158015    0.730401
     88          6           0       -5.378131    0.412344   -0.673738
     89          6           0       -6.650912   -0.305025   -0.843955
     90          6           0       -4.794497    1.194814   -1.838247
     91          6           0       -5.044186    0.413894    1.976750
     92          6           0       -3.612388    0.854660    2.401387
     93          1           0       -2.882223    2.145860    1.805927
     94          7           0       -9.296538   -1.881222   -1.765243
     95          6           0       -8.035131   -2.043895   -2.305177
     96          6           0       -8.119806   -3.066935   -3.342988
     97          6           0       -9.465065   -3.508871   -3.389665
     98          6           0      -10.151638   -2.646472   -2.386579
     99          6           0       -6.988520   -3.510437   -4.159350
    100          6           0      -10.144240   -4.683290   -4.270302
    101          8           0      -11.268334   -5.051860   -4.065437
    102          6           0       -9.304590   -5.583479   -5.194368
    103          7           0      -11.920572   -0.652518   -0.712515
    104          6           0      -12.350245   -1.735018   -1.355993
    105          6           0      -13.839946   -1.941822   -1.298583
    106          6           0      -14.151209   -1.114032   -0.027772
    107          6           0      -12.915435   -0.149668   -0.022568
    108          6           0      -14.631159   -1.388159   -2.573557
    109          6           0      -14.352311   -1.938565    1.312367
    110          6           0      -14.911040   -3.390108    1.254325
    111          7           0      -10.349369    1.100364    0.860041
    112          6           0      -11.532823    1.491845    1.393833
    113          6           0      -11.363625    2.470356    2.370047
    114          6           0      -10.016291    2.692935    2.384836
    115          6           0       -9.401502    1.846163    1.483798
    116          6           0      -12.463200    3.068095    3.243549
    117          6           0       -9.005924    3.503991    3.080596
    118          8           0       -9.079988    4.471697    3.822957
    119          6           0       -7.611674    2.954352    2.546669
    120          6           0       -6.836713    4.097228    2.096282
    121          8           0       -6.969093    4.712768    1.033691
    122          8           0       -6.124562    4.530083    3.157556
    123          6           0       -5.602974    5.871745    2.967892
    124          1           0       -5.976498   -1.480960   -2.370078
    125          1           0      -12.080508   -3.327831   -2.719837
    126          1           0      -13.753838    1.122018    1.473138
    127          1           0       -5.146462    2.162335    0.613832
    128          1           0       -4.622384   -0.353429   -0.504397
    129          1           0       -3.809636    0.828290   -2.126163
    130          1           0       -4.715784    2.250798   -1.580475
    131          1           0       -5.425952    1.207358   -2.726649
    132          1           0       -4.932622   -0.635410    1.702685
    133          1           0       -5.731544    0.439848    2.822106
    134          1           0       -2.907851    0.022969    2.368973
    135          1           0       -3.708759    0.896365    3.486228
    136          1           0       -6.035631   -3.329451   -3.662464
    137          1           0       -7.066744   -2.939230   -5.084552
    138          1           0       -6.997557   -4.575761   -4.390835
    139          1           0       -8.592403   -6.216107   -4.664635
    140          1           0       -8.906198   -4.902811   -5.947067
    141          1           0       -9.962360   -6.218376   -5.788531
    142          1           0      -13.928886   -3.025822   -1.231023
    143          1           0      -15.046193   -0.500170   -0.126177
    144          1           0      -15.301798   -2.219431   -2.789909
    145          1           0      -14.003977   -1.195506   -3.444684
    146          1           0      -15.244363   -0.503988   -2.403648
    147          1           0      -14.954910   -1.344148    1.997661
    148          1           0      -13.314797   -2.070687    1.619820
    149          1           0      -14.101174   -4.102734    1.100069
    150          1           0      -15.669038   -3.334044    0.472267
    151          1           0      -15.460116   -3.656667    2.156747
    152          1           0      -13.202785    2.271971    3.332224
    153          1           0      -12.978642    3.905066    2.773393
    154          1           0      -12.026136    3.336516    4.205164
    155          1           0       -7.130809    2.464868    3.394525
    156          1           0       -5.044455    6.244157    3.826177
    157          1           0       -6.293167    6.611458    2.561898
    158          1           0       -4.827514    5.871813    2.201112
 ---------------------------------------------------------------------

 SCF Done:  E(RCAM-B3LYP) =  -4069.78498801     A.U. after   18 cycles

 Excitation energies and oscillator strengths:

 Excited State   1:      Singlet-A      1.6712 eV  741.88 nm  f=0.4042  <S**2>=0.000
     309 -> 315        0.16930
     312 -> 313        0.68867
     309 <- 315        0.10660
 This state for optimization and/or second-order correction.
 Total Energy, E(TD-HF/TD-DFT) =  -4069.72357235
 Copying the excited state density for this state as the 1-particle RhoCI density.

 Excited State   2:      Singlet-A      1.8348 eV  675.72 nm  f=0.3691  <S**2>=0.000
     310 -> 316        0.18809
     311 -> 314        0.68157
     310 <- 316        0.10396

 Excited State   3:      Singlet-A      2.2354 eV  554.63 nm  f=0.1538  <S**2>=0.000
     309 -> 313        0.60888
     310 -> 314       -0.20676
     312 -> 315       -0.26666

 Excited State   4:      Singlet-A      2.2407 eV  553.33 nm  f=0.1354  <S**2>=0.000
     309 -> 313        0.20107
     310 -> 314        0.62170
     311 -> 316       -0.24082

 Excited State   5:      Singlet-A      2.8434 eV  436.04 nm  f=0.0000  <S**2>=0.000
     311 -> 313        0.70688

 The electronic state is 1-A.
 Alpha  occ. eigenvalues --  -46.89447 -46.89359 -19.25353 -19.24914 -19.20827
 Alpha  occ. eigenvalues --  -19.20518 -19.19840 -19.18862 -19.18782 -19.18113
 Alpha  occ. eigenvalues --  -14.42883 -14.41838 -14.41482 -14.41127 -14.39950
 Alpha  occ. eigenvalues --  -14.39459 -14.39282 -14.38642 -10.40320 -10.38230
 Alpha  occ. eigenvalues --  -10.36971 -10.35521 -10.34819 -10.34641 -10.32349
 Alpha  occ. eigenvalues --  -10.31504 -10.31424 -10.31246 -10.30817 -10.30797
 Alpha  occ. eigenvalues --  -10.30730 -10.30639 -10.30618 -10.30563 -10.30400
 Alpha  occ. eigenvalues --  -10.30360 -10.29611 -10.29598 -10.29589 -10.29423
 Alpha  occ. eigenvalues --  -10.29366 -10.29237 -10.29229 -10.28949 -10.28784
 Alpha  occ. eigenvalues --  -10.28763 -10.28681 -10.28496 -10.28406 -10.28174
 Alpha  occ. eigenvalues --  -10.28122 -10.27981 -10.27923 -10.27835 -10.27715
 Alpha  occ. eigenvalues --  -10.27705 -10.27527 -10.27519 -10.27495 -10.27362
 Alpha  occ. eigenvalues --  -10.27347 -10.27287 -10.27256 -10.27134 -10.27134
 Alpha  occ. eigenvalues --  -10.27112 -10.27066 -10.26678 -10.26650 -10.26631
 Alpha  occ. eigenvalues --  -10.26600 -10.26497 -10.26436 -10.26204 -10.26160
 Alpha  occ. eigenvalues --  -10.26106 -10.26017 -10.25983 -10.25835 -10.25654
 Alpha  occ. eigenvalues --  -10.25528 -10.25525 -10.25466 -10.25365 -10.25218
 Alpha  occ. eigenvalues --  -10.23718  -3.18017  -3.17860  -1.92865  -1.92761
 Alpha  occ. eigenvalues --   -1.92477  -1.92333  -1.92324  -1.92145  -1.16505
 Alpha  occ. eigenvalues --   -1.15465  -1.12601  -1.11838  -1.10344  -1.09454
 Alpha  occ. eigenvalues --   -1.07964  -1.06652  -1.05780  -1.05203  -1.04717
 Alpha  occ. eigenvalues --   -1.04632  -1.03701  -1.03410  -1.02901  -1.01635
 Alpha  occ. eigenvalues --   -0.92875  -0.92347  -0.89524  -0.89164  -0.89015
 Alpha  occ. eigenvalues --   -0.88758  -0.88578  -0.88099  -0.87742  -0.87522
 Alpha  occ. eigenvalues --   -0.86900  -0.86353  -0.85778  -0.85585  -0.84620
 Alpha  occ. eigenvalues --   -0.84376  -0.84073  -0.83110  -0.82615  -0.82379
 Alpha  occ. eigenvalues --   -0.81968  -0.81931  -0.80730  -0.80670  -0.80324
 Alpha  occ. eigenvalues --   -0.80096  -0.78599  -0.78275  -0.77611  -0.76916
 Alpha  occ. eigenvalues --   -0.76849  -0.76639  -0.76472  -0.75714  -0.75348
 Alpha  occ. eigenvalues --   -0.75262  -0.72770  -0.72753  -0.71901  -0.71663
 Alpha  occ. eigenvalues --   -0.69661  -0.69659  -0.69064  -0.68765  -0.68048
 Alpha  occ. eigenvalues --   -0.67581  -0.66842  -0.66767  -0.66061  -0.65451
 Alpha  occ. eigenvalues --   -0.65223  -0.65071  -0.64662  -0.64661  -0.64443
 Alpha  occ. eigenvalues --   -0.63682  -0.62430  -0.61816  -0.60806  -0.59919
 Alpha  occ. eigenvalues --   -0.59671  -0.59510  -0.59317  -0.59240  -0.59184
 Alpha  occ. eigenvalues --   -0.58451  -0.58404  -0.57922  -0.57770  -0.57477
 Alpha  occ. eigenvalues --   -0.56665  -0.56531  -0.55775  -0.55558  -0.55487
 Alpha  occ. eigenvalues --   -0.55188  -0.54618  -0.54436  -0.54052  -0.53975
 Alpha  occ. eigenvalues --   -0.53778  -0.53622  -0.53482  -0.53193  -0.53069
 Alpha  occ. eigenvalues --   -0.52953  -0.52872  -0.52357  -0.52280  -0.51953
 Alpha  occ. eigenvalues --   -0.51845  -0.51668  -0.51445  -0.51294  -0.51228
 Alpha  occ. eigenvalues --   -0.51150  -0.51040  -0.50653  -0.50549  -0.50461
 Alpha  occ. eigenvalues --   -0.50051  -0.50033  -0.49993  -0.49862  -0.49714
 Alpha  occ. eigenvalues --   -0.49428  -0.49226  -0.49076  -0.48911  -0.48841
 Alpha  occ. eigenvalues --   -0.48771  -0.48714  -0.48614  -0.48308  -0.48293
 Alpha  occ. eigenvalues --   -0.47905  -0.47804  -0.47507  -0.47397  -0.47203
 Alpha  occ. eigenvalues --   -0.47093  -0.47044  -0.46744  -0.46553  -0.46497
 Alpha  occ. eigenvalues --   -0.46307  -0.46202  -0.46174  -0.46099  -0.45953
 Alpha  occ. eigenvalues --   -0.45756  -0.45434  -0.45367  -0.45084  -0.44934
 Alpha  occ. eigenvalues --   -0.44788  -0.44650  -0.44369  -0.44320  -0.44067
 Alpha  occ. eigenvalues --   -0.43900  -0.43899  -0.43807  -0.43735  -0.43564
 Alpha  occ. eigenvalues --   -0.43436  -0.43308  -0.43257  -0.43023  -0.42963
 Alpha  occ. eigenvalues --   -0.42758  -0.42662  -0.42653  -0.42529  -0.42483
 Alpha  occ. eigenvalues --   -0.42262  -0.42077  -0.42040  -0.41681  -0.41430
 Alpha  occ. eigenvalues --   -0.41351  -0.41240  -0.40961  -0.40693  -0.40396
 Alpha  occ. eigenvalues --   -0.40384  -0.39730  -0.39406  -0.39339  -0.38636
 Alpha  occ. eigenvalues --   -0.38603  -0.38255  -0.38088  -0.37827  -0.37466
 Alpha  occ. eigenvalues --   -0.37442  -0.37261  -0.36629  -0.36602  -0.35954
 Alpha  occ. eigenvalues --   -0.35946  -0.35645  -0.35148  -0.34525  -0.34170
 Alpha  occ. eigenvalues --   -0.33739  -0.33309  -0.32479  -0.31921  -0.31718
 Alpha  occ. eigenvalues --   -0.31518  -0.31234  -0.30625  -0.30605  -0.30369
 Alpha  occ. eigenvalues --   -0.29795  -0.29474  -0.28870  -0.24431  -0.23372
 Alpha  occ. eigenvalues --   -0.21363  -0.21251
 Alpha virt. eigenvalues --   -0.09111  -0.08251  -0.01622  -0.01076   0.00349
 Alpha virt. eigenvalues --    0.00571   0.01129   0.02430   0.02510   0.02743
 Alpha virt. eigenvalues --    0.04154   0.04250   0.04295   0.05475   0.05707

 Mulliken charges:
               1
     1  Mg   0.850276
     2  C   -0.068712
     3  C   -0.046745
     4  C   -0.070046
     5  C   -0.117663
     6  N   -0.248496
     7  C   -0.056123
     8  C   -0.029255
     9  C   -0.067361
    10  C    0.027626
    11  C    0.088655
    12  C    0.079759
    13  C   -0.054233
    14  H    0.008303
    15  N   -0.345967
    16  C    0.095320
    17  C   -0.126272
    18  C   -0.029094
    19  C    0.139565
    20  C    0.130724
    21  C   -0.009177
    22  O   -0.204565
    23  C    0.048510
    24  N   -0.372433
    25  C    0.069163
    26  C   -0.081065
    27  C    0.022202
    28  C    0.057907
    29  C    0.063544
    30  C    0.049669
    31  C    0.008649
    32  N   -0.354618
    33  C    0.126951
    34  C   -0.180778
    35  C   -0.063977
    36  C    0.147773
    37  C    0.135420
    38  C    0.053210
    39  O   -0.136006
    40  C    0.059697
    41  C    0.212917
    42  O   -0.206660
    43  O   -0.375332
    44  C    0.175259
    45  H   -0.031223
    46  H   -0.056669
    47  H   -0.037096
    48  H    0.004263
    49  H    0.001198
    50  H    0.022223
    51  H    0.020340
    52  H    0.014699
    53  H    0.011740
    54  H    0.016581
    55  H    0.032637
    56  H    0.027687
    57  H    0.031186
    58  H    0.030251
    59  H    0.013638
    60  H    0.024134
    61  H    0.030033
    62  H    0.036920
    63  H    0.024675
    64  H    0.007348
    65  H    0.023917
    66  H    0.015971
    67  H    0.009056
    68  H    0.014342
    69  H   -0.000420
    70  H    0.015784
    71  H    0.013822
    72  H    0.015365
    73  H    0.048113
    74  H    0.030615
    75  H    0.013225
    76  H    0.041915
    77  H    0.044924
    78  H    0.034878
    79  H    0.047408
    80  Mg   0.824390
    81  C    0.010056
    82  C   -0.058231
    83  C   -0.077404
    84  C   -0.071085
    85  N   -0.187763
    86  C   -0.104824
    87  C   -0.021770
    88  C   -0.035990
    89  C   -0.028511
    90  C    0.088118
    91  C    0.048944
    92  C   -0.037722
    93  H    0.033826
    94  N   -0.382899
    95  C    0.143320
    96  C   -0.137950
    97  C   -0.053094
    98  C    0.096490
    99  C    0.105585
   100  C    0.029703
   101  O   -0.167238
   102  C    0.040795
   103  N   -0.248106
   104  C    0.043869
   105  C   -0.049655
   106  C   -0.064521
   107  C    0.033752
   108  C    0.074622
   109  C    0.034632
   110  C    0.005241
   111  N   -0.317542
   112  C    0.075635
   113  C   -0.206257
   114  C    0.001035
   115  C    0.122223
   116  C    0.136319
   117  C    0.060842
   118  O   -0.161591
   119  C   -0.025137
   120  C    0.186319
   121  O   -0.243617
   122  O   -0.299356
   123  C    0.195140
   124  H   -0.035400
   125  H   -0.013990
   126  H   -0.022048
   127  H    0.017761
   128  H   -0.009325
   129  H    0.017569
   130  H    0.020424
   131  H    0.014892
   132  H    0.008168
   133  H    0.025054
   134  H    0.015869
   135  H    0.015125
   136  H    0.021481
   137  H    0.041727
   138  H    0.018527
   139  H    0.065265
   140  H    0.023174
   141  H    0.024019
   142  H    0.019550
   143  H   -0.009336
   144  H    0.020124
   145  H    0.023928
   146  H    0.021304
   147  H    0.012434
   148  H    0.003431
   149  H    0.029324
   150  H    0.014330
   151  H    0.015744
   152  H    0.005837
   153  H    0.029815
   154  H    0.032478
   155  H    0.043137
   156  H    0.030049
   157  H    0.042773
   158  H    0.006195
 Sum of Mulliken charges =  -0.00000

 Dipole moment (field-independent basis, Debye):
    X=              3.8371    Y=             -6.4343    Z=             -1.7463  Tot=              7.6924
 Quadrupole moment (field-independent basis, Debye-Ang):
   XX=           -498.6220   YY=           -513.1700   ZZ=           -539.8532
   XY=             -5.7412   XZ=             35.0756   YZ=              8.0048

 Normal termination of Gaussian 16 at Wed Sep 15 14:45:35 2021.
