 Gaussian 16, Revision A.03,
 Gaussian 16:  ES64L-G16RevA.03 25-Dec-2016

 ----------------------------------------------------------
 #p cam-b3lyp/Def2SVP td=(nstates=5) density=(transition=1)
 ----------------------------------------------------------

 --------------------------------
 TDDFT excited states in gaussian
 --------------------------------
 Symbolic Z-matrix:
 Charge =  0 Multiplicity = 1

                         Standard orientation:
 ---------------------------------------------------------------------
 Center     Atomic      Atomic             Coordinates (Angstroms)
 Number     Number       Type             X           Y           Z
 ---------------------------------------------------------------------
      1         12           0      -23.603995    0.446182    0.451878
      2          6           0      -22.621625   -2.446967   -1.145182
      3          6           0      -21.740752    2.210830   -2.046569
      4          6           0      -24.170922    3.237519    2.045678
      5          6           0      -25.079126   -1.394577    2.981858
      6          7           0      -22.131556   -0.132505   -1.297842
      7          6           0      -22.115270   -1.338392   -1.840494
      8          6           0      -21.587268   -1.284537   -3.301968
      9          6           0      -20.834483    0.091211   -3.262209
     10          6           0      -21.584792    0.823838   -2.138416
     11          6           0      -19.304115   -0.072435   -2.951678
     12          6           0      -22.837467   -1.297185   -4.209521
     13          6           0      -22.586495   -1.398237   -5.720227
     14          1           0      -21.185880   -1.227841   -6.273442
     15          7           0      -23.180186    2.447469    0.081530
     16          6           0      -22.425425    2.954775   -1.031537
     17          6           0      -22.565046    4.403723   -0.981445
     18          6           0      -23.373343    4.703888    0.159303
     19          6           0      -23.592607    3.439532    0.860271
     20          6           0      -21.968913    5.400808   -2.043814
     21          6           0      -23.942010    6.102115    0.570557
     22          8           0      -24.504184    6.193677    1.627344
     23          6           0      -23.751294    7.290803   -0.314543
     24          7           0      -24.591190    0.869892    2.235904
     25          6           0      -24.714130    2.128314    2.714979
     26          6           0      -25.393643    2.189741    4.082451
     27          6           0      -25.800942    0.714271    4.301854
     28          6           0      -25.100651    0.001404    3.074481
     29          6           0      -24.516458    2.766886    5.253521
     30          6           0      -27.264452    0.423348    4.515999
     31          6           0      -28.349302    1.036921    3.598285
     32          7           0      -23.838529   -1.502773    0.919453
     33          6           0      -24.462345   -2.125769    1.962248
     34          6           0      -24.441957   -3.546319    1.683907
     35          6           0      -23.752272   -3.768778    0.442629
     36          6           0      -23.395296   -2.454164    0.035367
     37          6           0      -25.044013   -4.583805    2.579330
     38          6           0      -23.244406   -4.727603   -0.480100
     39          8           0      -23.265641   -5.977459   -0.507255
     40          6           0      -22.243297   -3.848375   -1.410060
     41          6           0      -22.367136   -4.407567   -2.828355
     42          8           0      -23.367465   -4.546128   -3.421996
     43          8           0      -21.116344   -4.754327   -3.253677
     44          6           0      -20.914825   -4.966327   -4.672296
     45          1           0      -21.116965    2.736855   -2.771643
     46          1           0      -24.343939    4.133813    2.645020
     47          1           0      -25.510622   -2.033012    3.754622
     48          1           0      -20.858014   -2.068238   -3.506632
     49          1           0      -21.044682    0.521327   -4.241749
     50          1           0      -18.732663    0.070360   -3.867995
     51          1           0      -19.154185   -1.068560   -2.534872
     52          1           0      -18.916455    0.680616   -2.265520
     53          1           0      -23.343055   -0.341229   -4.075516
     54          1           0      -23.583206   -2.015342   -3.869983
     55          1           0      -23.348891   -0.896098   -6.316223
     56          1           0      -22.883827   -2.416814   -5.970322
     57          1           0      -21.400783    6.208673   -1.581683
     58          1           0      -22.821701    5.749991   -2.625763
     59          1           0      -21.358185    4.847581   -2.758312
     60          1           0      -24.623047    7.895635   -0.063903
     61          1           0      -23.870019    7.052164   -1.370834
     62          1           0      -22.777271    7.773673   -0.392907
     63          1           0      -26.262765    2.830274    3.934314
     64          1           0      -25.271818    0.245752    5.131654
     65          1           0      -24.808691    2.204219    6.139748
     66          1           0      -24.854603    3.802033    5.305122
     67          1           0      -23.461644    2.759740    4.979080
     68          1           0      -27.435236    0.992259    5.429316
     69          1           0      -27.559432   -0.618741    4.643525
     70          1           0      -29.087802    1.700995    4.045464
     71          1           0      -29.018550    0.270482    3.207485
     72          1           0      -27.865517    1.608365    2.805998
     73          1           0      -24.804517   -5.541291    2.117647
     74          1           0      -26.131157   -4.494318    2.575445
     75          1           0      -24.780353   -4.500402    3.633257
     76          1           0      -21.260642   -3.974840   -0.955171
     77          1           0      -20.481110   -5.949452   -4.488824
     78          1           0      -20.325168   -4.186370   -5.154506
     79          1           0      -21.834062   -5.097735   -5.243710
     80         12           0       23.594117    0.576374   -0.435754
     81          6           0       22.655421   -2.685689    0.202391
     82          6           0       20.265634    1.450231   -0.346866
     83          6           0       24.539558    3.878532   -0.468866
     84          6           0       26.906947   -0.358966   -0.397135
     85          7           0       21.716635   -0.443865    0.083666
     86          6           0       21.596507   -1.810964    0.237598
     87          6           0       20.143352   -2.236153    0.430899
     88          6           0       19.383209   -0.958962   -0.087841
     89          6           0       20.500542    0.073932   -0.070943
     90          6           0       18.583606   -1.089401   -1.462559
     91          6           0       19.744431   -2.715959    1.862888
     92          6           0       18.905377   -3.974823    1.924651
     93          1           0       17.482097   -3.693415    2.380600
     94          7           0       22.532322    2.362119   -0.394392
     95          6           0       21.202978    2.512050   -0.387031
     96          6           0       20.841718    3.916026   -0.479569
     97          6           0       21.980465    4.703395   -0.515139
     98          6           0       23.101903    3.674125   -0.408745
     99          6           0       19.321192    4.420096   -0.435007
    100          6           0       22.050258    6.256982   -0.699494
    101          8           0       20.969712    6.910598   -0.742133
    102          6           0       23.339841    6.980963   -0.773306
    103          7           0       25.523490    1.678369   -0.187319
    104          6           0       25.650316    2.966778   -0.407083
    105          6           0       27.080650    3.377211   -0.688375
    106          6           0       27.945313    2.074489   -0.594299
    107          6           0       26.746805    1.018209   -0.456755
    108          6           0       27.393773    4.373972   -1.849679
    109          6           0       28.998845    1.904471    0.538410
    110          6           0       30.010789    0.815800    0.246598
    111          7           0       24.612089   -1.197196   -0.138588
    112          6           0       25.998375   -1.458868   -0.235533
    113          6           0       26.186923   -2.879782   -0.126407
    114          6           0       24.894854   -3.441745    0.016673
    115          6           0       24.023564   -2.356269    0.040619
    116          6           0       27.475489   -3.645610   -0.387045
    117          6           0       24.243096   -4.650554    0.131157
    118          8           0       24.578181   -5.795332    0.269969
    119          6           0       22.712042   -4.215546    0.412986
    120          6           0       22.554800   -4.386493    1.923153
    121          8           0       22.928456   -3.597357    2.769454
    122          8           0       21.931631   -5.607727    2.123190
    123          6           0       21.779417   -6.025498    3.513132
    124          1           0       19.234275    1.759173   -0.528478
    125          1           0       24.768553    4.945685   -0.492938
    126          1           0       27.893163   -0.815967   -0.501802
    127          1           0       19.938628   -3.029846   -0.287015
    128          1           0       18.760764   -0.612570    0.737992
    129          1           0       18.548972   -0.051411   -1.793254
    130          1           0       17.529828   -1.343576   -1.345663
    131          1           0       19.006159   -1.753082   -2.216807
    132          1           0       19.180830   -1.870434    2.257800
    133          1           0       20.534886   -2.744930    2.612565
    134          1           0       19.403177   -4.661365    2.609834
    135          1           0       18.818286   -4.466705    0.955653
    136          1           0       18.575417    3.636116   -0.296897
    137          1           0       19.071760    4.963772   -1.346828
    138          1           0       19.100886    5.037679    0.434612
    139          1           0       23.915970    6.611938   -1.621245
    140          1           0       23.845931    6.999949    0.191985
    141          1           0       23.062479    7.970517   -1.134434
    142          1           0       27.581121    3.917568    0.115408
    143          1           0       28.319629    1.750919   -1.565818
    144          1           0       26.432732    4.796176   -2.146578
    145          1           0       27.980878    3.938244   -2.658923
    146          1           0       27.995813    5.232683   -1.552239
    147          1           0       28.430628    1.745107    1.454735
    148          1           0       29.444906    2.893962    0.638080
    149          1           0       30.949600    1.107059    0.718325
    150          1           0       30.220869    0.644503   -0.809825
    151          1           0       29.715376   -0.092330    0.772143
    152          1           0       27.342875   -4.725969   -0.445536
    153          1           0       28.181622   -3.377494    0.397755
    154          1           0       27.936212   -3.336626   -1.325390
    155          1           0       22.019199   -4.760621   -0.228816
    156          1           0       22.763043   -6.200125    3.949434
    157          1           0       21.133498   -6.897912    3.605942
    158          1           0       21.347165   -5.209225    4.091200
 ---------------------------------------------------------------------

 SCF Done:  E(RCAM-B3LYP) =  -4069.80458525     A.U. after   19 cycles

 Excitation energies and oscillator strengths:

 Excited State   1:      Singlet-A      1.7338 eV  715.11 nm  f=0.3726  <S**2>=0.000
     310 -> 315        0.19618
     312 -> 314        0.68088
     310 <- 315        0.11069
 This state for optimization and/or second-order correction.
 Total Energy, E(TD-HF/TD-DFT) =  -4069.74086968
 Copying the excited state density for this state as the 1-particle RhoCI density.

 Excited State   2:      Singlet-A      1.8650 eV  664.78 nm  f=0.3729  <S**2>=0.000
     309 -> 316        0.14280
     311 -> 313        0.68807

 Excited State   3:      Singlet-A      2.2193 eV  558.65 nm  f=0.0920  <S**2>=0.000
     310 -> 314        0.63505
     312 -> 315       -0.29922

 Excited State   4:      Singlet-A      2.2637 eV  547.69 nm  f=0.1277  <S**2>=0.000
     309 -> 313        0.64676
     311 -> 316       -0.24680
     311 -> 317       -0.10332

 Excited State   5:      Singlet-A      3.2383 eV  382.87 nm  f=0.0000  <S**2>=0.000
     312 -> 313        0.70710

 The electronic state is 1-A.
 Alpha  occ. eigenvalues --  -46.89411 -46.88271 -19.24529 -19.24388 -19.20264
 Alpha  occ. eigenvalues --  -19.20236 -19.19884 -19.19098 -19.19019 -19.17729
 Alpha  occ. eigenvalues --  -14.42322 -14.42059 -14.41736 -14.41732 -14.40562
 Alpha  occ. eigenvalues --  -14.39308 -14.39277 -14.38499 -10.39099 -10.38918
 Alpha  occ. eigenvalues --  -10.37042 -10.35278 -10.35060 -10.33410 -10.33086
 Alpha  occ. eigenvalues --  -10.32427 -10.31731 -10.31466 -10.31154 -10.31091
 Alpha  occ. eigenvalues --  -10.30714 -10.30622 -10.30594 -10.30430 -10.30365
 Alpha  occ. eigenvalues --  -10.30286 -10.29814 -10.29806 -10.29626 -10.29316
 Alpha  occ. eigenvalues --  -10.29176 -10.29010 -10.28774 -10.28602 -10.28460
 Alpha  occ. eigenvalues --  -10.28425 -10.28400 -10.28355 -10.28308 -10.28079
 Alpha  occ. eigenvalues --  -10.28074 -10.28069 -10.27804 -10.27784 -10.27699
 Alpha  occ. eigenvalues --  -10.27658 -10.27624 -10.27585 -10.27584 -10.27527
 Alpha  occ. eigenvalues --  -10.27434 -10.27243 -10.27200 -10.27165 -10.26965
 Alpha  occ. eigenvalues --  -10.26949 -10.26929 -10.26867 -10.26792 -10.26769
 Alpha  occ. eigenvalues --  -10.26744 -10.26561 -10.26469 -10.26465 -10.26455
 Alpha  occ. eigenvalues --  -10.26279 -10.26269 -10.26210 -10.25953 -10.25811
 Alpha  occ. eigenvalues --  -10.25793 -10.25747 -10.25304 -10.25273 -10.24948
 Alpha  occ. eigenvalues --  -10.23112  -3.17850  -3.16908  -1.92733  -1.92311
 Alpha  occ. eigenvalues --   -1.92153  -1.91807  -1.91380  -1.91198  -1.17614
 Alpha  occ. eigenvalues --   -1.15472  -1.11526  -1.09811  -1.09803  -1.09157
 Alpha  occ. eigenvalues --   -1.08011  -1.07916  -1.05239  -1.04596  -1.04083
 Alpha  occ. eigenvalues --   -1.03851  -1.03204  -1.03055  -1.02559  -1.02079
 Alpha  occ. eigenvalues --   -0.93023  -0.91573  -0.89382  -0.89191  -0.88672
 Alpha  occ. eigenvalues --   -0.88541  -0.88507  -0.87980  -0.87311  -0.87068
 Alpha  occ. eigenvalues --   -0.86644  -0.86436  -0.85836  -0.85684  -0.84516
 Alpha  occ. eigenvalues --   -0.84071  -0.83739  -0.83645  -0.83218  -0.82433
 Alpha  occ. eigenvalues --   -0.82070  -0.81767  -0.81428  -0.80719  -0.80284
 Alpha  occ. eigenvalues --   -0.80230  -0.77999  -0.77654  -0.77363  -0.77173
 Alpha  occ. eigenvalues --   -0.76825  -0.76752  -0.75876  -0.75515  -0.75341
 Alpha  occ. eigenvalues --   -0.75153  -0.72688  -0.72404  -0.72010  -0.71706
 Alpha  occ. eigenvalues --   -0.70275  -0.69735  -0.69126  -0.68887  -0.68110
 Alpha  occ. eigenvalues --   -0.67916  -0.67366  -0.66207  -0.65625  -0.65490
 Alpha  occ. eigenvalues --   -0.65193  -0.64926  -0.64689  -0.64303  -0.64159
 Alpha  occ. eigenvalues --   -0.64053  -0.62376  -0.61714  -0.60511  -0.59982
 Alpha  occ. eigenvalues --   -0.59655  -0.59484  -0.59167  -0.59039  -0.58826
 Alpha  occ. eigenvalues --   -0.58473  -0.58149  -0.57923  -0.57852  -0.57401
 Alpha  occ. eigenvalues --   -0.56449  -0.56230  -0.56143  -0.55656  -0.55500
 Alpha  occ. eigenvalues --   -0.55355  -0.55052  -0.54232  -0.54195  -0.53937
 Alpha  occ. eigenvalues --   -0.53741  -0.53642  -0.53525  -0.53345  -0.53171
 Alpha  occ. eigenvalues --   -0.52970  -0.52727  -0.52397  -0.52313  -0.52089
 Alpha  occ. eigenvalues --   -0.52021  -0.51815  -0.51599  -0.51040  -0.50813
 Alpha  occ. eigenvalues --   -0.50768  -0.50724  -0.50541  -0.50167  -0.50153
 Alpha  occ. eigenvalues --   -0.50020  -0.49993  -0.49823  -0.49697  -0.49566
 Alpha  occ. eigenvalues --   -0.49464  -0.49330  -0.49317  -0.49039  -0.48780
 Alpha  occ. eigenvalues --   -0.48717  -0.48551  -0.48239  -0.48229  -0.48145
 Alpha  occ. eigenvalues --   -0.47982  -0.47644  -0.47594  -0.47375  -0.47189
 Alpha  occ. eigenvalues --   -0.46855  -0.46628  -0.46559  -0.46551  -0.46200
 Alpha  occ. eigenvalues --   -0.46144  -0.45971  -0.45965  -0.45842  -0.45591
 Alpha  occ. eigenvalues --   -0.45230  -0.45213  -0.45202  -0.45056  -0.45018
 Alpha  occ. eigenvalues --   -0.44891  -0.44746  -0.44677  -0.44290  -0.43954
 Alpha  occ. eigenvalues --   -0.43865  -0.43598  -0.43420  -0.43365  -0.43269
 Alpha  occ. eigenvalues --   -0.43096  -0.42986  -0.42865  -0.42719  -0.42701
 Alpha  occ. eigenvalues --   -0.42565  -0.42487  -0.42312  -0.42188  -0.42093
 Alpha  occ. eigenvalues --   -0.42049  -0.41995  -0.41884  -0.41613  -0.41576
 Alpha  occ. eigenvalues --   -0.41438  -0.40997  -0.40783  -0.40420  -0.40229
 Alpha  occ. eigenvalues --   -0.40166  -0.39875  -0.39558  -0.39448  -0.39281
 Alpha  occ. eigenvalues --   -0.38985  -0.38405  -0.38070  -0.37958  -0.37516
 Alpha  occ. eigenvalues --   -0.37348  -0.37136  -0.36496  -0.36393  -0.36337
 Alpha  occ. eigenvalues --   -0.35857  -0.35345  -0.35140  -0.34430  -0.34298
 Alpha  occ. eigenvalues --   -0.33966  -0.33350  -0.33090  -0.32454  -0.31892
 Alpha  occ. eigenvalues --   -0.31586  -0.31017  -0.30868  -0.30424  -0.29826
 Alpha  occ. eigenvalues --   -0.29670  -0.29367  -0.29111  -0.24078  -0.23814
 Alpha  occ. eigenvalues --   -0.21495  -0.21101
 Alpha virt. eigenvalues --   -0.08461  -0.08441  -0.01892  -0.01801   0.00105
 Alpha virt. eigenvalues --    0.00184   0.01795   0.01983   0.02605   0.03019
 Alpha virt. eigenvalues --    0.05165   0.05332   0.05824   0.05848   0.06062

 Mulliken charges:
               1
     1  Mg  12.002861
     2  C    5.987969
     3  C    6.031142
     4  C    6.018200
     5  C    5.981449
     6  N    7.004608
     7  C    6.027534
     8  C    5.995820
     9  C    6.009183
    10  C    5.961898
    11  C    6.003153
    12  C    5.992042
    13  C    6.001293
    14  H    1.006314
    15  N    7.012560
    16  C    5.937866
    17  C    5.991154
    18  C    5.978559
    19  C    5.968338
    20  C    6.000483
    21  C    5.985443
    22  O    7.973281
    23  C    6.005205
    24  N    6.998778
    25  C    5.961907
    26  C    6.010645
    27  C    5.993892
    28  C    6.033115
    29  C    6.001432
    30  C    5.992766
    31  C    5.997796
    32  N    6.992957
    33  C    6.040100
    34  C    6.032141
    35  C    6.006005
    36  C    6.028213
    37  C    5.997562
    38  C    6.015531
    39  O    8.033036
    40  C    6.000128
    41  C    6.005677
    42  O    8.004562
    43  O    8.001384
    44  C    5.998663
    45  H    0.991746
    46  H    0.994289
    47  H    1.005446
    48  H    0.998926
    49  H    0.997648
    50  H    0.995284
    51  H    0.984410
    52  H    1.003954
    53  H    1.014087
    54  H    0.992015
    55  H    1.004116
    56  H    0.996235
    57  H    0.984509
    58  H    0.984063
    59  H    0.982110
    60  H    0.985283
    61  H    0.993461
    62  H    0.989419
    63  H    1.000258
    64  H    0.997401
    65  H    0.987961
    66  H    1.001987
    67  H    0.999541
    68  H    1.008996
    69  H    0.994730
    70  H    1.004214
    71  H    0.996149
    72  H    1.010419
    73  H    1.013133
    74  H    1.024049
    75  H    1.022178
    76  H    1.007000
    77  H    1.001787
    78  H    1.007322
    79  H    1.003233
    80  Mg  11.999995
    81  C    5.999989
    82  C    6.000001
    83  C    5.999933
    84  C    5.999960
    85  N    6.999981
    86  C    5.999974
    87  C    6.000006
    88  C    5.999986
    89  C    6.000063
    90  C    5.999984
    91  C    6.000013
    92  C    6.000012
    93  H    0.999966
    94  N    7.000015
    95  C    6.000071
    96  C    6.000044
    97  C    6.000032
    98  C    6.000120
    99  C    5.999969
   100  C    6.000034
   101  O    8.000092
   102  C    5.999980
   103  N    6.999989
   104  C    6.000096
   105  C    5.999960
   106  C    6.000009
   107  C    5.999973
   108  C    5.999993
   109  C    6.000016
   110  C    6.000004
   111  N    6.999984
   112  C    5.999928
   113  C    5.999942
   114  C    5.999961
   115  C    5.999947
   116  C    6.000016
   117  C    5.999965
   118  O    7.999884
   119  C    5.999995
   120  C    5.999986
   121  O    7.999994
   122  O    7.999994
   123  C    6.000022
   124  H    1.000020
   125  H    1.000044
   126  H    0.999985
   127  H    0.999989
   128  H    1.000011
   129  H    1.000020
   130  H    1.000016
   131  H    1.000010
   132  H    0.999990
   133  H    1.000007
   134  H    0.999982
   135  H    0.999982
   136  H    1.000059
   137  H    1.000077
   138  H    1.000078
   139  H    1.000010
   140  H    1.000020
   141  H    1.000068
   142  H    1.000033
   143  H    1.000005
   144  H    1.000000
   145  H    1.000024
   146  H    1.000026
   147  H    0.999992
   148  H    0.999986
   149  H    0.999985
   150  H    0.999995
   151  H    1.000008
   152  H    0.999940
   153  H    0.999947
   154  H    0.999946
   155  H    0.999942
   156  H    0.999986
   157  H    0.999942
   158  H    0.999992
 Sum of Mulliken charges = 624.00000

 Dipole moment (field-independent basis, Debye):
    X=             -1.4399    Y=            -10.4722    Z=              1.2704  Tot=             10.6467
 Quadrupole moment (field-independent basis, Debye-Ang):
   XX=             66.1800   YY=             -8.7282   ZZ=              2.6414
   XY=            247.5612   XZ=            -31.0155   YZ=             -2.0961

 Normal termination of Gaussian 16 at Wed Sep 22 03:07:58 2021.
