 Gaussian 16, Revision A.03,
 Gaussian 16:  ES64L-G16RevA.03 25-Dec-2016

 ----------------------------------------------------------
 #p cam-b3lyp/Def2SVP td=(nstates=5) density=(transition=1)
 ----------------------------------------------------------

 --------------------------------
 TDDFT excited states in gaussian
 --------------------------------
 Symbolic Z-matrix:
 Charge =  0 Multiplicity = 1

                         Standard orientation:
 ---------------------------------------------------------------------
 Center     Atomic      Atomic             Coordinates (Angstroms)
 Number     Number       Type             X           Y           Z
 ---------------------------------------------------------------------
      1         12           0       26.221371    0.411546   -0.466747
      2          6           0       23.598348   -1.723031    0.723336
      3          6           0       28.475296   -1.988147    0.559328
      4          6           0       28.574384    2.620202   -0.977019
      5          6           0       23.765599    2.741979   -1.207486
      6          7           0       26.055754   -1.566571    0.815794
      7          6           0       24.871774   -2.217928    1.032688
      8          6           0       25.157434   -3.684202    1.454398
      9          6           0       26.741263   -3.765995    1.464537
     10          6           0       27.178920   -2.351752    0.935066
     11          6           0       27.458987   -4.080213    2.844151
     12          6           0       24.537297   -4.768968    0.533788
     13          6           0       23.862231   -5.925256    1.181352
     14          1           0       24.101156   -6.343618    2.682378
     15          7           0       28.309294    0.361761   -0.235224
     16          6           0       29.092811   -0.751189    0.068816
     17          6           0       30.509861   -0.341173    0.099676
     18          6           0       30.538674    0.990550   -0.467512
     19          6           0       29.115468    1.386949   -0.576263
     20          6           0       31.663382   -1.186455    0.548122
     21          6           0       31.725421    1.900380   -0.863341
     22          8           0       31.646050    2.893437   -1.616887
     23          6           0       33.077515    1.468481   -0.459138
     24          7           0       26.147243    2.350089   -0.939735
     25          6           0       27.315927    3.073882   -1.029472
     26          6           0       27.060958    4.476879   -1.646743
     27          6           0       25.528155    4.345972   -2.059385
     28          6           0       25.104092    3.056641   -1.377679
     29          6           0       27.371474    5.751756   -0.761002
     30          6           0       25.213175    4.306155   -3.546344
     31          6           0       24.407593    5.504539   -4.090386
     32          7           0       24.107972    0.459725   -0.475432
     33          6           0       23.254187    1.494167   -0.777292
     34          6           0       21.866763    1.094928   -0.507221
     35          6           0       21.982081   -0.177728    0.023271
     36          6           0       23.351665   -0.524306    0.027655
     37          6           0       20.609726    1.883240   -0.673746
     38          6           0       21.188303   -1.248102    0.510018
     39          8           0       19.937664   -1.426370    0.550567
     40          6           0       22.152362   -2.256253    0.973688
     41          6           0       21.852073   -2.645911    2.395797
     42          8           0       22.020917   -1.959472    3.344969
     43          8           0       21.430911   -3.909660    2.440829
     44          6           0       20.800910   -4.395464    3.621336
     45          1           0       29.256415   -2.687373    0.865455
     46          1           0       29.248459    3.442729   -1.228590
     47          1           0       23.008043    3.510318   -1.370553
     48          1           0       24.742503   -3.790245    2.457424
     49          1           0       27.078441   -4.512012    0.745533
     50          1           0       26.796595   -4.369065    3.659700
     51          1           0       27.918497   -3.148152    3.176321
     52          1           0       28.245258   -4.822616    2.704014
     53          1           0       25.273023   -5.243807   -0.116367
     54          1           0       23.763892   -4.372151   -0.123215
     55          1           0       24.148050   -6.847768    0.675094
     56          1           0       22.789113   -5.781249    1.058825
     57          1           0       32.221872   -0.656039    1.319079
     58          1           0       32.304537   -1.314272   -0.324056
     59          1           0       31.349229   -2.205206    0.777523
     60          1           0       33.107558    1.464327    0.630485
     61          1           0       33.744471    2.262862   -0.793268
     62          1           0       33.389062    0.560038   -0.973950
     63          1           0       27.660043    4.503899   -2.557506
     64          1           0       25.015565    5.208881   -1.634365
     65          1           0       27.753427    5.447402    0.212806
     66          1           0       26.533125    6.446894   -0.701630
     67          1           0       28.128641    6.331120   -1.289577
     68          1           0       24.792755    3.377393   -3.932283
     69          1           0       26.168265    4.362604   -4.067506
     70          1           0       23.591978    5.280801   -4.777710
     71          1           0       25.068312    6.035690   -4.776063
     72          1           0       23.977323    6.161784   -3.335949
     73          1           0       20.738677    2.744713   -1.329611
     74          1           0       20.344192    2.364911    0.267198
     75          1           0       19.827347    1.165929   -0.921321
     76          1           0       22.018867   -3.116882    0.318776
     77          1           0       19.804635   -3.951332    3.637867
     78          1           0       21.290041   -4.004595    4.513689
     79          1           0       20.677451   -5.478175    3.585253
     80         12           0      -26.484494   -0.229314    0.279601
     81          6           0      -23.088179   -0.603719   -0.815423
     82          6           0      -25.231274    2.395537    2.353118
     83          6           0      -29.576159    1.015056    0.706226
     84          6           0      -27.463811   -2.250087   -2.299881
     85          7           0      -24.422471    0.754786    0.651200
     86          6           0      -23.207269    0.425503    0.125522
     87          6           0      -22.059064    1.327933    0.698042
     88          6           0      -22.780901    1.961761    1.981789
     89          6           0      -24.237204    1.756638    1.596162
     90          6           0      -22.476160    1.264115    3.287577
     91          6           0      -21.454853    2.265486   -0.334214
     92          6           0      -19.909850    2.395753   -0.366108
     93          1           0      -19.176473    3.645961    0.309907
     94          7           0      -27.349990    1.456025    1.486455
     95          6           0      -26.635399    2.333707    2.328228
     96          6           0      -27.592386    3.209487    3.015462
     97          6           0      -28.895998    2.766120    2.559639
     98          6           0      -28.662631    1.796675    1.510906
     99          6           0      -27.280040    4.328936    3.935624
    100          6           0      -30.215377    3.247244    3.109396
    101          8           0      -30.201501    3.940597    4.101513
    102          6           0      -31.562716    2.911778    2.512575
    103          7           0      -28.162000   -0.507845   -0.745431
    104          6           0      -29.353770    0.014681   -0.251026
    105          6           0      -30.483823   -0.499904   -1.145719
    106          6           0      -29.828536   -1.686414   -1.943048
    107          6           0      -28.387501   -1.499218   -1.607115
    108          6           0      -31.867418   -0.836264   -0.477647
    109          6           0      -30.131502   -1.802453   -3.468502
    110          6           0      -30.685305   -3.093581   -3.976695
    111          7           0      -25.542430   -1.326659   -1.172637
    112          6           0      -26.061464   -2.182073   -2.128811
    113          6           0      -24.986767   -2.964325   -2.769720
    114          6           0      -23.793946   -2.292520   -2.295376
    115          6           0      -24.213702   -1.333239   -1.368748
    116          6           0      -25.064756   -4.104832   -3.750185
    117          6           0      -22.304883   -2.311755   -2.397012
    118          8           0      -21.580512   -2.946561   -3.109447
    119          6           0      -21.845872   -1.144623   -1.528973
    120          6           0      -20.852058   -1.674155   -0.538692
    121          8           0      -21.228826   -2.458569    0.305331
    122          8           0      -19.537846   -1.122604   -0.614065
    123          6           0      -18.598356   -1.484216    0.490418
    124          1           0      -24.882716    3.170110    3.039644
    125          1           0      -30.632892    1.285370    0.739965
    126          1           0      -27.820913   -3.029135   -2.976211
    127          1           0      -21.264363    0.734449    1.149156
    128          1           0      -22.621587    3.038576    2.036994
    129          1           0      -23.105255    0.377026    3.357449
    130          1           0      -22.644040    1.989169    4.083833
    131          1           0      -21.472497    0.870848    3.452463
    132          1           0      -21.830495    3.259082   -0.091707
    133          1           0      -21.916001    2.042099   -1.296227
    134          1           0      -19.687461    2.389968   -1.433436
    135          1           0      -19.394653    1.536330    0.063093
    136          1           0      -27.392240    3.932144    4.944164
    137          1           0      -28.059232    5.086711    3.852963
    138          1           0      -26.324646    4.850162    3.864320
    139          1           0      -32.412161    3.429071    2.958183
    140          1           0      -31.696669    1.843466    2.682917
    141          1           0      -31.710484    3.011052    1.437848
    142          1           0      -30.710873    0.387991   -1.736509
    143          1           0      -30.050942   -2.611955   -1.412842
    144          1           0      -31.748366   -0.993664    0.594675
    145          1           0      -32.333939   -1.686830   -0.974302
    146          1           0      -32.571622   -0.021031   -0.642309
    147          1           0      -29.220120   -1.580876   -4.023731
    148          1           0      -30.776613   -0.963453   -3.728957
    149          1           0      -29.908760   -3.620215   -4.531038
    150          1           0      -31.506333   -2.892798   -4.664820
    151          1           0      -31.063470   -3.804565   -3.242445
    152          1           0      -24.144842   -4.689136   -3.744927
    153          1           0      -25.247410   -3.657620   -4.727694
    154          1           0      -25.965972   -4.675288   -3.524751
    155          1           0      -21.491452   -0.360971   -2.198752
    156          1           0      -18.203983   -2.484349    0.309874
    157          1           0      -19.121457   -1.534475    1.445138
    158          1           0      -17.797949   -0.749284    0.573806
 ---------------------------------------------------------------------

 SCF Done:  E(RCAM-B3LYP) =  -4069.80655758     A.U. after   17 cycles

 Excitation energies and oscillator strengths:

 Excited State   1:      Singlet-A      1.6714 eV  741.78 nm  f=0.4001  <S**2>=0.000
     309 -> 315        0.16934
     312 -> 313        0.68867
     309 <- 315        0.10659
 This state for optimization and/or second-order correction.
 Total Energy, E(TD-HF/TD-DFT) =  -4069.74513365
 Copying the excited state density for this state as the 1-particle RhoCI density.

 Excited State   2:      Singlet-A      1.7200 eV  720.84 nm  f=0.4225  <S**2>=0.000
     310 -> 316        0.17638
     311 -> 314        0.68703
     310 <- 316        0.10598

 Excited State   3:      Singlet-A      2.2103 eV  560.94 nm  f=0.1295  <S**2>=0.000
     310 -> 314        0.65015
     311 -> 316       -0.26633

 Excited State   4:      Singlet-A      2.2361 eV  554.47 nm  f=0.1279  <S**2>=0.000
     309 -> 313        0.64117
     312 -> 315       -0.28143

 Excited State   5:      Singlet-A      3.1337 eV  395.64 nm  f=0.0000  <S**2>=0.000
     312 -> 314        0.70710

 The electronic state is 1-A.
 Alpha  occ. eigenvalues --  -46.89319 -46.88913 -19.25249 -19.25002 -19.20721
 Alpha  occ. eigenvalues --  -19.19720 -19.19655 -19.19027 -19.18550 -19.17979
 Alpha  occ. eigenvalues --  -14.42754 -14.42058 -14.41710 -14.41622 -14.39698
 Alpha  occ. eigenvalues --  -14.39561 -14.39331 -14.39152 -10.40212 -10.39048
 Alpha  occ. eigenvalues --  -10.35401 -10.34962 -10.34710 -10.34508 -10.32258
 Alpha  occ. eigenvalues --  -10.31703 -10.31507 -10.31381 -10.31289 -10.31030
 Alpha  occ. eigenvalues --  -10.30958 -10.30690 -10.30551 -10.30509 -10.30275
 Alpha  occ. eigenvalues --  -10.30228 -10.30160 -10.29701 -10.29552 -10.29483
 Alpha  occ. eigenvalues --  -10.29299 -10.29215 -10.29098 -10.28828 -10.28760
 Alpha  occ. eigenvalues --  -10.28753 -10.28657 -10.28632 -10.28551 -10.28384
 Alpha  occ. eigenvalues --  -10.28371 -10.28267 -10.28198 -10.28099 -10.28055
 Alpha  occ. eigenvalues --  -10.27984 -10.27786 -10.27597 -10.27567 -10.27517
 Alpha  occ. eigenvalues --  -10.27216 -10.27190 -10.27057 -10.27006 -10.26999
 Alpha  occ. eigenvalues --  -10.26910 -10.26768 -10.26734 -10.26563 -10.26519
 Alpha  occ. eigenvalues --  -10.26518 -10.26487 -10.26473 -10.26308 -10.26209
 Alpha  occ. eigenvalues --  -10.26041 -10.25917 -10.25897 -10.25888 -10.25730
 Alpha  occ. eigenvalues --  -10.25583 -10.25526 -10.25451 -10.25366 -10.25194
 Alpha  occ. eigenvalues --  -10.25185  -3.17889  -3.17491  -1.92737  -1.92373
 Alpha  occ. eigenvalues --   -1.92349  -1.92196  -1.91961  -1.91790  -1.18621
 Alpha  occ. eigenvalues --   -1.15360  -1.11720  -1.10210  -1.09710  -1.08310
 Alpha  occ. eigenvalues --   -1.08085  -1.07859  -1.04834  -1.04590  -1.03773
 Alpha  occ. eigenvalues --   -1.03572  -1.02771  -1.02534  -1.01787  -1.01506
 Alpha  occ. eigenvalues --   -0.93574  -0.92750  -0.89404  -0.89131  -0.88880
 Alpha  occ. eigenvalues --   -0.88547  -0.88452  -0.88374  -0.87742  -0.87609
 Alpha  occ. eigenvalues --   -0.86885  -0.86290  -0.86225  -0.85644  -0.84557
 Alpha  occ. eigenvalues --   -0.84488  -0.83956  -0.83529  -0.82626  -0.82489
 Alpha  occ. eigenvalues --   -0.82063  -0.81839  -0.81719  -0.80550  -0.80510
 Alpha  occ. eigenvalues --   -0.80199  -0.78305  -0.78160  -0.77714  -0.77483
 Alpha  occ. eigenvalues --   -0.77161  -0.76793  -0.76362  -0.76343  -0.75220
 Alpha  occ. eigenvalues --   -0.75204  -0.73178  -0.72642  -0.71776  -0.71495
 Alpha  occ. eigenvalues --   -0.69547  -0.69404  -0.68977  -0.68931  -0.67916
 Alpha  occ. eigenvalues --   -0.67495  -0.66707  -0.66255  -0.65940  -0.65925
 Alpha  occ. eigenvalues --   -0.65090  -0.64920  -0.64852  -0.64536  -0.64477
 Alpha  occ. eigenvalues --   -0.64313  -0.63034  -0.62318  -0.60336  -0.59866
 Alpha  occ. eigenvalues --   -0.59791  -0.59549  -0.59339  -0.59187  -0.59142
 Alpha  occ. eigenvalues --   -0.59061  -0.58323  -0.58215  -0.57760  -0.57643
 Alpha  occ. eigenvalues --   -0.56534  -0.56496  -0.56113  -0.55656  -0.55429
 Alpha  occ. eigenvalues --   -0.55180  -0.54918  -0.54323  -0.53860  -0.53757
 Alpha  occ. eigenvalues --   -0.53432  -0.53359  -0.53253  -0.53075  -0.53021
 Alpha  occ. eigenvalues --   -0.52955  -0.52799  -0.52409  -0.52237  -0.51830
 Alpha  occ. eigenvalues --   -0.51719  -0.51655  -0.51584  -0.51490  -0.51308
 Alpha  occ. eigenvalues --   -0.51119  -0.51097  -0.50920  -0.50432  -0.50082
 Alpha  occ. eigenvalues --   -0.50039  -0.49934  -0.49885  -0.49866  -0.49735
 Alpha  occ. eigenvalues --   -0.49299  -0.49257  -0.49108  -0.49092  -0.48757
 Alpha  occ. eigenvalues --   -0.48702  -0.48590  -0.48581  -0.48336  -0.48240
 Alpha  occ. eigenvalues --   -0.48182  -0.47711  -0.47685  -0.47419  -0.47080
 Alpha  occ. eigenvalues --   -0.46972  -0.46914  -0.46781  -0.46416  -0.46377
 Alpha  occ. eigenvalues --   -0.46215  -0.46178  -0.46116  -0.46054  -0.46050
 Alpha  occ. eigenvalues --   -0.45968  -0.45822  -0.45808  -0.45285  -0.45244
 Alpha  occ. eigenvalues --   -0.44954  -0.44789  -0.44655  -0.44543  -0.44451
 Alpha  occ. eigenvalues --   -0.43769  -0.43645  -0.43610  -0.43445  -0.43443
 Alpha  occ. eigenvalues --   -0.43302  -0.43036  -0.42895  -0.42689  -0.42636
 Alpha  occ. eigenvalues --   -0.42611  -0.42545  -0.42422  -0.42155  -0.41915
 Alpha  occ. eigenvalues --   -0.41861  -0.41630  -0.41547  -0.41435  -0.41175
 Alpha  occ. eigenvalues --   -0.41118  -0.40969  -0.40825  -0.40569  -0.40272
 Alpha  occ. eigenvalues --   -0.40260  -0.40085  -0.39687  -0.39285  -0.39125
 Alpha  occ. eigenvalues --   -0.38462  -0.38188  -0.37913  -0.37695  -0.37336
 Alpha  occ. eigenvalues --   -0.37150  -0.36951  -0.36531  -0.36503  -0.36266
 Alpha  occ. eigenvalues --   -0.35853  -0.35816  -0.35039  -0.34681  -0.34395
 Alpha  occ. eigenvalues --   -0.34128  -0.33180  -0.32908  -0.31599  -0.31598
 Alpha  occ. eigenvalues --   -0.31443  -0.31105  -0.30764  -0.30602  -0.30490
 Alpha  occ. eigenvalues --   -0.29669  -0.29485  -0.28736  -0.24303  -0.24117
 Alpha  occ. eigenvalues --   -0.21308  -0.21121
 Alpha virt. eigenvalues --   -0.08982  -0.08939  -0.01494  -0.01475  -0.00192
 Alpha virt. eigenvalues --    0.00472   0.01249   0.01926   0.02360   0.02640
 Alpha virt. eigenvalues --    0.04403   0.04409   0.05271   0.05607   0.06114

 Mulliken charges:
               1
     1  Mg  12.000009
     2  C    5.999934
     3  C    5.999981
     4  C    6.000093
     5  C    6.000023
     6  N    6.999997
     7  C    6.000092
     8  C    5.999982
     9  C    6.000019
    10  C    5.999927
    11  C    6.000011
    12  C    5.999976
    13  C    5.999987
    14  H    1.000009
    15  N    6.999995
    16  C    5.999864
    17  C    5.999921
    18  C    5.999945
    19  C    5.999862
    20  C    6.000022
    21  C    5.999943
    22  O    7.999874
    23  C    6.000033
    24  N    6.999970
    25  C    5.999893
    26  C    6.000058
    27  C    5.999986
    28  C    6.000059
    29  C    6.000004
    30  C    5.999958
    31  C    5.999993
    32  N    7.000027
    33  C    6.000117
    34  C    6.000151
    35  C    5.999993
    36  C    6.000133
    37  C    5.999966
    38  C    6.000056
    39  O    8.000152
    40  C    5.999977
    41  C    6.000020
    42  O    8.000001
    43  O    8.000014
    44  C    5.999991
    45  H    0.999966
    46  H    0.999962
    47  H    1.000027
    48  H    0.999997
    49  H    1.000007
    50  H    0.999950
    51  H    1.000000
    52  H    0.999995
    53  H    1.000045
    54  H    0.999991
    55  H    1.000038
    56  H    1.000004
    57  H    0.999906
    58  H    0.999924
    59  H    0.999933
    60  H    0.999956
    61  H    0.999920
    62  H    0.999973
    63  H    0.999998
    64  H    0.999995
    65  H    0.999997
    66  H    0.999945
    67  H    0.999988
    68  H    1.000015
    69  H    1.000054
    70  H    1.000022
    71  H    1.000017
    72  H    0.999986
    73  H    1.000079
    74  H    1.000074
    75  H    1.000097
    76  H    1.000069
    77  H    1.000016
    78  H    0.999992
    79  H    1.000045
    80  Mg  11.999797
    81  C    6.029308
    82  C    5.994901
    83  C    5.959529
    84  C    6.006790
    85  N    7.016141
    86  C    5.966402
    87  C    6.009429
    88  C    5.991600
    89  C    6.027483
    90  C    5.992681
    91  C    6.004651
    92  C    6.000338
    93  H    0.991968
    94  N    6.993213
    95  C    6.045986
    96  C    6.024885
    97  C    6.006491
    98  C    6.047832
    99  C    5.992635
   100  C    6.011179
   101  O    8.018076
   102  C    5.996794
   103  N    6.989268
   104  C    6.042115
   105  C    5.989576
   106  C    6.012726
   107  C    5.968400
   108  C    5.999979
   109  C    6.004388
   110  C    6.001548
   111  N    7.002920
   112  C    5.961345
   113  C    5.967152
   114  C    5.996226
   115  C    5.962849
   116  C    6.001431
   117  C    5.983308
   118  O    7.973996
   119  C    5.998834
   120  C    5.994703
   121  O    7.997444
   122  O    7.998026
   123  C    6.002198
   124  H    1.013875
   125  H    1.002382
   126  H    0.985631
   127  H    0.998299
   128  H    1.001134
   129  H    1.005968
   130  H    0.998839
   131  H    1.017274
   132  H    0.988361
   133  H    1.006439
   134  H    1.003079
   135  H    1.002523
   136  H    1.021739
   137  H    1.017487
   138  H    1.020837
   139  H    1.012303
   140  H    1.010990
   141  H    1.012122
   142  H    1.000334
   143  H    0.995285
   144  H    0.996479
   145  H    1.008659
   146  H    0.996546
   147  H    1.003787
   148  H    0.987202
   149  H    1.004081
   150  H    0.993058
   151  H    0.995352
   152  H    0.982817
   153  H    0.977649
   154  H    0.982383
   155  H    0.992227
   156  H    0.999274
   157  H    0.994169
   158  H    0.994876
 Sum of Mulliken charges = 624.00000

 Dipole moment (field-independent basis, Debye):
    X=             -3.8107    Y=              7.5070    Z=              7.4402  Tot=             11.2353
 Quadrupole moment (field-independent basis, Debye-Ang):
   XX=            192.8809   YY=              1.8167   ZZ=              2.1075
   XY=           -199.5434   XZ=           -197.1386   YZ=              2.0846

 Normal termination of Gaussian 16 at Thu Sep 23 06:34:39 2021.
