 Gaussian 16, Revision A.03,
 Gaussian 16:  ES64L-G16RevA.03 25-Dec-2016

 -----------------------------------
 #p cam-b3lyp/Def2SVP td=(nstates=5)
 -----------------------------------

 --------------------------------
 TDDFT excited states in gaussian
 --------------------------------
 Symbolic Z-matrix:
 Charge =  0 Multiplicity = 1

                         Standard orientation:
 ---------------------------------------------------------------------
 Center     Atomic      Atomic             Coordinates (Angstroms)
 Number     Number       Type             X           Y           Z
 ---------------------------------------------------------------------
      1         12           0       19.771976    0.440864    0.435478
      2          6           0       17.285208   -1.455809   -1.207232
      3          6           0       20.416850    2.065714   -2.360670
      4          6           0       22.676335    1.509803    1.882855
      5          6           0       19.645733   -2.139652    3.081266
      6          7           0       18.947392    0.242099   -1.569750
      7          6           0       17.817024   -0.393559   -1.940553
      8          6           0       17.374080    0.128284   -3.321514
      9          6           0       18.325583    1.230126   -3.661993
     10          6           0       19.344959    1.181085   -2.483805
     11          6           0       18.874469    1.135905   -5.144263
     12          6           0       15.871266    0.515438   -3.526507
     13          6           0       15.420978    1.722950   -4.455574
     14          1           0       14.241992    1.507681   -5.415818
     15          7           0       21.190503    1.822493   -0.093611
     16          6           0       21.276541    2.402486   -1.339110
     17          6           0       22.362117    3.340924   -1.308254
     18          6           0       23.108062    3.197380   -0.073976
     19          6           0       22.365407    2.112890    0.605334
     20          6           0       22.630876    4.131158   -2.524414
     21          6           0       24.318922    3.991500    0.475234
     22          8           0       24.817505    3.682604    1.506979
     23          6           0       24.713644    5.291977   -0.145338
     24          7           0       21.001776   -0.289602    2.216127
     25          6           0       22.058598    0.463960    2.594394
     26          6           0       22.696619   -0.046184    3.925996
     27          6           0       21.721084   -1.187089    4.348099
     28          6           0       20.724141   -1.252672    3.164626
     29          6           0       24.121333   -0.522542    3.825450
     30          6           0       20.960386   -1.043364    5.712531
     31          6           0       19.780765   -0.134781    5.796513
     32          7           0       18.740804   -1.416024    0.960549
     33          6           0       18.773695   -2.251888    2.039776
     34          6           0       17.718830   -3.228527    1.919374
     35          6           0       17.086296   -2.989959    0.670901
     36          6           0       17.781951   -1.900905    0.107656
     37          6           0       17.448511   -4.392605    2.805953
     38          6           0       16.077331   -3.428513   -0.250546
     39          8           0       15.226727   -4.310085   -0.210881
     40          6           0       16.124008   -2.425912   -1.489486
     41          6           0       16.167615   -3.140157   -2.829811
     42          8           0       17.085514   -3.828929   -3.193945
     43          8           0       15.024616   -2.829456   -3.549176
     44          6           0       14.958005   -3.502273   -4.846958
     45          1           0       20.563969    2.786975   -3.167744
     46          1           0       23.586610    1.940311    2.304733
     47          1           0       19.535358   -2.840254    3.911470
     48          1           0       17.526991   -0.789601   -3.889165
     49          1           0       17.759215    2.161837   -3.661085
     50          1           0       18.338075    0.352310   -5.679140
     51          1           0       19.959735    1.051868   -5.088049
     52          1           0       18.604200    2.019501   -5.722760
     53          1           0       15.471606    0.737721   -2.536776
     54          1           0       15.276247   -0.332784   -3.866005
     55          1           0       16.318686    1.975424   -5.020268
     56          1           0       15.187844    2.583553   -3.828473
     57          1           0       23.715467    4.222544   -2.578322
     58          1           0       22.222693    5.126577   -2.353457
     59          1           0       22.274038    3.819955   -3.506349
     60          1           0       25.456422    4.980342   -0.878522
     61          1           0       25.027292    5.980069    0.640276
     62          1           0       23.938681    5.774321   -0.741462
     63          1           0       22.604553    0.687245    4.727313
     64          1           0       22.071552   -2.218663    4.360172
     65          1           0       24.564641   -0.254989    2.865407
     66          1           0       24.198683   -1.608364    3.887168
     67          1           0       24.650821   -0.030481    4.640927
     68          1           0       21.655909   -0.718792    6.486558
     69          1           0       20.729942   -2.048179    6.067292
     70          1           0       19.837867    0.615892    5.008032
     71          1           0       19.611797    0.490053    6.673799
     72          1           0       18.915194   -0.796065    5.745523
     73          1           0       18.271953   -5.100413    2.896626
     74          1           0       16.762501   -5.026788    2.243878
     75          1           0       17.068099   -4.081410    3.779251
     76          1           0       15.219941   -1.821645   -1.411830
     77          1           0       15.083947   -2.545612   -5.353002
     78          1           0       13.938592   -3.886318   -4.876097
     79          1           0       15.748425   -4.239297   -4.990478
     80         12           0      -19.613666   -0.598847   -0.614696
     81          6           0      -19.054221    2.872121   -0.126987
     82          6           0      -16.165280   -1.041710   -0.332521
     83          6           0      -20.267530   -3.740842    0.117748
     84          6           0      -23.185590    0.200803   -0.537934
     85          7           0      -17.809646    0.802249   -0.007857
     86          6           0      -17.833409    2.151637   -0.140910
     87          6           0      -16.409985    2.678859   -0.168456
     88          6           0      -15.604877    1.540721   -0.795881
     89          6           0      -16.552588    0.329505   -0.308232
     90          6           0      -15.462623    1.499512   -2.318513
     91          6           0      -15.986015    3.146729    1.291745
     92          6           0      -15.293730    4.452725    1.285163
     93          1           0      -14.067965    4.615248    2.204976
     94          7           0      -18.386765   -2.235672   -0.106857
     95          6           0      -16.969937   -2.222683   -0.127406
     96          6           0      -16.547183   -3.570568    0.158349
     97          6           0      -17.676031   -4.430517    0.213290
     98          6           0      -18.861849   -3.508481    0.101247
     99          6           0      -15.066034   -3.908499    0.295950
    100          6           0      -17.655877   -5.883320    0.482571
    101          8           0      -16.577656   -6.434287    0.666972
    102          6           0      -18.834963   -6.784127    0.652423
    103          7           0      -21.558971   -1.603970   -0.157108
    104          6           0      -21.469206   -2.947637   -0.099944
    105          6           0      -22.869106   -3.587670   -0.121849
    106          6           0      -23.846700   -2.335594   -0.491702
    107          6           0      -22.831654   -1.164354   -0.442680
    108          6           0      -22.990125   -4.886141   -1.039944
    109          6           0      -25.092587   -2.159215    0.431740
    110          6           0      -25.002797   -1.100630    1.583343
    111          7           0      -20.852262    1.080193   -0.398930
    112          6           0      -22.266476    1.236354   -0.457864
    113          6           0      -22.586344    2.727668   -0.544129
    114          6           0      -21.350865    3.329565   -0.366525
    115          6           0      -20.348871    2.296004   -0.304089
    116          6           0      -23.908007    3.502474   -0.708777
    117          6           0      -20.680036    4.589323   -0.306543
    118          8           0      -21.115319    5.732986   -0.450264
    119          6           0      -19.259297    4.271578   -0.003591
    120          6           0      -19.108810    4.723915    1.466899
    121          8           0      -19.479854    4.122264    2.472540
    122          8           0      -18.520920    6.019191    1.448966
    123          6           0      -18.387425    6.706858    2.668652
    124          1           0      -15.091819   -1.242199   -0.346795
    125          1           0      -20.372924   -4.825039    0.191458
    126          1           0      -24.214400    0.543429   -0.661359
    127          1           0      -16.272524    3.513780   -0.855396
    128          1           0      -14.571126    1.366463   -0.499608
    129          1           0      -15.662260    2.453828   -2.805027
    130          1           0      -15.954413    0.624663   -2.744521
    131          1           0      -14.391782    1.334414   -2.442981
    132          1           0      -15.284569    2.418488    1.699001
    133          1           0      -16.785594    3.088472    2.030319
    134          1           0      -16.103415    5.129395    1.555990
    135          1           0      -14.959266    4.655977    0.267962
    136          1           0      -14.668973   -4.437571   -0.570160
    137          1           0      -14.916932   -4.446274    1.231114
    138          1           0      -14.476682   -2.995492    0.381928
    139          1           0      -19.334514   -6.875080   -0.312398
    140          1           0      -19.565056   -6.476633    1.402099
    141          1           0      -18.530829   -7.821653    0.785354
    142          1           0      -23.037611   -3.835974    0.925815
    143          1           0      -24.132409   -2.418825   -1.539751
    144          1           0      -22.020035   -5.365119   -1.171913
    145          1           0      -23.518393   -4.815682   -1.991510
    146          1           0      -23.740192   -5.475640   -0.510374
    147          1           0      -25.416214   -3.099797    0.876728
    148          1           0      -25.847085   -1.808484   -0.271990
    149          1           0      -25.652793   -1.639098    2.273420
    150          1           0      -25.412872   -0.107012    1.401296
    151          1           0      -23.972529   -1.089714    1.939644
    152          1           0      -23.882533    4.134721   -1.595624
    153          1           0      -23.761179    4.180193    0.131658
    154          1           0      -24.723623    2.796161   -0.555422
    155          1           0      -18.609077    4.882664   -0.629703
    156          1           0      -17.941374    7.698687    2.585210
    157          1           0      -17.744705    6.106198    3.311014
    158          1           0      -19.403487    6.789774    3.055494
 ---------------------------------------------------------------------

 SCF Done:  E(RCAM-B3LYP) =  -4069.74762371     A.U. after   17 cycles

 Excitation energies and oscillator strengths:

 Excited State   1:      Singlet-A      1.6842 eV  736.16 nm  f=0.3476  <S**2>=0.000
     309 -> 315        0.19707
     312 -> 314        0.67958
     309 <- 315        0.11203
 This state for optimization and/or second-order correction.
 Total Energy, E(TD-HF/TD-DFT) =  -4069.68573051
 Copying the excited state density for this state as the 1-particle RhoCI density.

 Excited State   2:      Singlet-A      1.7017 eV  728.57 nm  f=0.3933  <S**2>=0.000
     310 -> 316       -0.18684
     311 -> 313        0.68321
     310 <- 316       -0.11016

 Excited State   3:      Singlet-A      2.1898 eV  566.19 nm  f=0.1121  <S**2>=0.000
     310 -> 313        0.64184
     311 -> 316        0.28226

 Excited State   4:      Singlet-A      2.1916 eV  565.73 nm  f=0.0538  <S**2>=0.000
     309 -> 314        0.61400
     312 -> 315       -0.33917

 Excited State   5:      Singlet-A      3.1394 eV  394.93 nm  f=0.0000  <S**2>=0.000
     312 -> 313        0.70710

 The electronic state is 1-A.
 Alpha  occ. eigenvalues --  -46.91306 -46.89988 -19.24731 -19.24720 -19.21411
 Alpha  occ. eigenvalues --  -19.20020 -19.19574 -19.18919 -19.18624 -19.17574
 Alpha  occ. eigenvalues --  -14.42412 -14.42209 -14.41948 -14.41776 -14.40248
 Alpha  occ. eigenvalues --  -14.39766 -14.39490 -14.38802 -10.40601 -10.39112
 Alpha  occ. eigenvalues --  -10.35722 -10.34791 -10.34568 -10.34127 -10.31835
 Alpha  occ. eigenvalues --  -10.31621 -10.31432 -10.31409 -10.31312 -10.31253
 Alpha  occ. eigenvalues --  -10.31120 -10.31064 -10.30979 -10.30880 -10.30836
 Alpha  occ. eigenvalues --  -10.30705 -10.30358 -10.30086 -10.29584 -10.29472
 Alpha  occ. eigenvalues --  -10.29440 -10.29397 -10.29009 -10.28785 -10.28667
 Alpha  occ. eigenvalues --  -10.28584 -10.28525 -10.28419 -10.28380 -10.28210
 Alpha  occ. eigenvalues --  -10.28176 -10.28150 -10.28036 -10.27921 -10.27915
 Alpha  occ. eigenvalues --  -10.27825 -10.27668 -10.27651 -10.27612 -10.27560
 Alpha  occ. eigenvalues --  -10.27552 -10.27360 -10.27358 -10.27290 -10.27170
 Alpha  occ. eigenvalues --  -10.27111 -10.27098 -10.27022 -10.26784 -10.26776
 Alpha  occ. eigenvalues --  -10.26716 -10.26558 -10.26533 -10.26368 -10.26344
 Alpha  occ. eigenvalues --  -10.26252 -10.26241 -10.26122 -10.25770 -10.25673
 Alpha  occ. eigenvalues --  -10.25385 -10.25272 -10.25099 -10.24982 -10.24962
 Alpha  occ. eigenvalues --  -10.24873  -3.19506  -3.18297  -1.94347  -1.94013
 Alpha  occ. eigenvalues --   -1.93761  -1.93170  -1.92761  -1.92588  -1.16285
 Alpha  occ. eigenvalues --   -1.15829  -1.12893  -1.09607  -1.09358  -1.09203
 Alpha  occ. eigenvalues --   -1.08660  -1.08533  -1.04215  -1.04206  -1.03454
 Alpha  occ. eigenvalues --   -1.03134  -1.02842  -1.02476  -1.01829  -1.01280
 Alpha  occ. eigenvalues --   -0.94385  -0.91607  -0.89301  -0.89177  -0.88872
 Alpha  occ. eigenvalues --   -0.88726  -0.88251  -0.87805  -0.87365  -0.87272
 Alpha  occ. eigenvalues --   -0.87168  -0.86853  -0.86087  -0.85576  -0.84783
 Alpha  occ. eigenvalues --   -0.83997  -0.83666  -0.83653  -0.82707  -0.82523
 Alpha  occ. eigenvalues --   -0.81992  -0.81645  -0.80861  -0.80833  -0.80396
 Alpha  occ. eigenvalues --   -0.80277  -0.78280  -0.78041  -0.77276  -0.77153
 Alpha  occ. eigenvalues --   -0.77093  -0.76881  -0.76009  -0.75848  -0.75209
 Alpha  occ. eigenvalues --   -0.74645  -0.72751  -0.72321  -0.71844  -0.71462
 Alpha  occ. eigenvalues --   -0.69921  -0.69809  -0.69268  -0.68717  -0.68197
 Alpha  occ. eigenvalues --   -0.67324  -0.66900  -0.66872  -0.65348  -0.64973
 Alpha  occ. eigenvalues --   -0.64913  -0.64716  -0.64548  -0.64298  -0.64133
 Alpha  occ. eigenvalues --   -0.64006  -0.62219  -0.61700  -0.60021  -0.59936
 Alpha  occ. eigenvalues --   -0.59772  -0.59546  -0.59275  -0.58907  -0.58798
 Alpha  occ. eigenvalues --   -0.58343  -0.58263  -0.57991  -0.57379  -0.57038
 Alpha  occ. eigenvalues --   -0.56205  -0.56142  -0.55963  -0.55874  -0.55643
 Alpha  occ. eigenvalues --   -0.55383  -0.55046  -0.54953  -0.54579  -0.54564
 Alpha  occ. eigenvalues --   -0.54053  -0.53717  -0.53682  -0.53396  -0.53340
 Alpha  occ. eigenvalues --   -0.53038  -0.52761  -0.52646  -0.52369  -0.52184
 Alpha  occ. eigenvalues --   -0.51963  -0.51722  -0.51673  -0.51394  -0.51309
 Alpha  occ. eigenvalues --   -0.51189  -0.50925  -0.50822  -0.50611  -0.50556
 Alpha  occ. eigenvalues --   -0.50291  -0.50186  -0.50027  -0.49972  -0.49515
 Alpha  occ. eigenvalues --   -0.49408  -0.49228  -0.49195  -0.48976  -0.48950
 Alpha  occ. eigenvalues --   -0.48763  -0.48590  -0.48478  -0.48334  -0.48267
 Alpha  occ. eigenvalues --   -0.47761  -0.47690  -0.47473  -0.47201  -0.47170
 Alpha  occ. eigenvalues --   -0.47131  -0.46852  -0.46758  -0.46095  -0.46023
 Alpha  occ. eigenvalues --   -0.45947  -0.45905  -0.45871  -0.45775  -0.45548
 Alpha  occ. eigenvalues --   -0.45438  -0.45422  -0.45303  -0.45149  -0.44623
 Alpha  occ. eigenvalues --   -0.44572  -0.44556  -0.44451  -0.44325  -0.44140
 Alpha  occ. eigenvalues --   -0.44082  -0.43797  -0.43710  -0.43636  -0.43478
 Alpha  occ. eigenvalues --   -0.43307  -0.43241  -0.43006  -0.42994  -0.42924
 Alpha  occ. eigenvalues --   -0.42604  -0.42335  -0.42333  -0.42042  -0.42028
 Alpha  occ. eigenvalues --   -0.41822  -0.41604  -0.41458  -0.41298  -0.41017
 Alpha  occ. eigenvalues --   -0.40980  -0.40869  -0.40590  -0.40429  -0.40121
 Alpha  occ. eigenvalues --   -0.40087  -0.39187  -0.39174  -0.38956  -0.38563
 Alpha  occ. eigenvalues --   -0.38270  -0.38112  -0.37927  -0.37901  -0.37639
 Alpha  occ. eigenvalues --   -0.37379  -0.36896  -0.36521  -0.36330  -0.35904
 Alpha  occ. eigenvalues --   -0.35775  -0.35711  -0.35222  -0.34618  -0.34220
 Alpha  occ. eigenvalues --   -0.33551  -0.33349  -0.33146  -0.31787  -0.31468
 Alpha  occ. eigenvalues --   -0.30832  -0.30813  -0.30603  -0.30569  -0.30214
 Alpha  occ. eigenvalues --   -0.29824  -0.29480  -0.29337  -0.24052  -0.23818
 Alpha  occ. eigenvalues --   -0.21048  -0.21040
 Alpha virt. eigenvalues --   -0.08636  -0.08533  -0.02618  -0.01618  -0.00608
 Alpha virt. eigenvalues --    0.00130   0.00320   0.01162   0.02168   0.02520
 Alpha virt. eigenvalues --    0.04513   0.04701   0.05163   0.05695   0.05890

 Mulliken charges:
               1
     1  Mg   0.817837
     2  C   -0.011167
     3  C   -0.048730
     4  C   -0.055542
     5  C   -0.096250
     6  N   -0.298078
     7  C   -0.057264
     8  C    0.017524
     9  C   -0.086204
    10  C    0.071783
    11  C    0.069638
    12  C    0.007525
    13  C   -0.067043
    14  H    0.036260
    15  N   -0.428067
    16  C    0.123560
    17  C   -0.120424
    18  C   -0.043127
    19  C    0.090937
    20  C    0.083042
    21  C    0.006698
    22  O   -0.165882
    23  C    0.045766
    24  N   -0.240954
    25  C    0.047212
    26  C   -0.014252
    27  C   -0.001790
    28  C   -0.021682
    29  C    0.084121
    30  C    0.000179
    31  C    0.023685
    32  N   -0.309213
    33  C    0.157963
    34  C   -0.178974
    35  C    0.018083
    36  C    0.070988
    37  C    0.109135
    38  C    0.054905
    39  O   -0.173411
    40  C    0.002838
    41  C    0.190172
    42  O   -0.197567
    43  O   -0.349879
    44  C    0.157924
    45  H   -0.041383
    46  H   -0.000502
    47  H   -0.031307
    48  H    0.022149
    49  H    0.017467
    50  H    0.020944
    51  H    0.027886
    52  H    0.010803
    53  H    0.005509
    54  H    0.023779
    55  H    0.015063
    56  H    0.032485
    57  H    0.014256
    58  H    0.031677
    59  H    0.035805
    60  H    0.041870
    61  H    0.048332
    62  H    0.015532
    63  H    0.012531
    64  H    0.008288
    65  H    0.023015
    66  H    0.012823
    67  H    0.018962
    68  H   -0.001823
    69  H   -0.002369
    70  H    0.016595
    71  H    0.009356
    72  H    0.016396
    73  H    0.022607
    74  H    0.027250
    75  H    0.029760
    76  H    0.040649
    77  H    0.033767
    78  H    0.050161
    79  H    0.069390
    80  Mg   0.808497
    81  C    0.026512
    82  C   -0.060738
    83  C   -0.021844
    84  C   -0.054838
    85  N   -0.238515
    86  C   -0.066726
    87  C   -0.007314
    88  C   -0.085908
    89  C    0.025298
    90  C    0.085424
    91  C    0.072649
    92  C   -0.063547
    93  H    0.018157
    94  N   -0.411435
    95  C    0.127368
    96  C   -0.147925
    97  C    0.024202
    98  C    0.084035
    99  C    0.141730
   100  C   -0.053915
   101  O   -0.216820
   102  C    0.078825
   103  N   -0.260290
   104  C    0.038672
   105  C   -0.046182
   106  C    0.025422
   107  C   -0.014239
   108  C    0.052464
   109  C    0.002703
   110  C    0.007460
   111  N   -0.333219
   112  C    0.096725
   113  C   -0.206570
   114  C    0.019532
   115  C    0.125907
   116  C    0.134626
   117  C    0.005901
   118  O   -0.180202
   119  C    0.016440
   120  C    0.215285
   121  O   -0.202543
   122  O   -0.345896
   123  C    0.186840
   124  H   -0.020614
   125  H   -0.066423
   126  H   -0.026134
   127  H   -0.009671
   128  H    0.002575
   129  H    0.020000
   130  H    0.025907
   131  H    0.005840
   132  H    0.007780
   133  H    0.031970
   134  H    0.024928
   135  H    0.024275
   136  H    0.034594
   137  H    0.037936
   138  H   -0.012186
   139  H    0.019227
   140  H    0.050491
   141  H    0.019715
   142  H    0.023832
   143  H    0.010328
   144  H    0.032495
   145  H    0.011775
   146  H    0.010050
   147  H    0.015638
   148  H    0.005357
   149  H    0.012266
   150  H    0.025445
   151  H    0.040076
   152  H    0.049486
   153  H    0.045713
   154  H    0.017026
   155  H    0.029863
   156  H    0.038675
   157  H    0.024820
   158  H    0.034938
 Sum of Mulliken charges =  -0.00000

 Dipole moment (field-independent basis, Debye):
    X=             -1.4334    Y=              4.3769    Z=             -4.1687  Tot=              6.2121
 Quadrupole moment (field-independent basis, Debye-Ang):
   XX=           -394.3163   YY=           -544.9934   ZZ=           -483.2334
   XY=            140.7321   XZ=             44.4356   YZ=             -9.0222

 Normal termination of Gaussian 16 at Wed Sep 15 03:20:06 2021.
