 Gaussian 16, Revision A.03,
 Gaussian 16:  ES64L-G16RevA.03 25-Dec-2016

 ----------------------------------------------------------
 #p cam-b3lyp/Def2SVP td=(nstates=5) density=(transition=1)
 ----------------------------------------------------------

 --------------------------------
 TDDFT excited states in gaussian
 --------------------------------
 Symbolic Z-matrix:
 Charge =  0 Multiplicity = 1

                         Standard orientation:
 ---------------------------------------------------------------------
 Center     Atomic      Atomic             Coordinates (Angstroms)
 Number     Number       Type             X           Y           Z
 ---------------------------------------------------------------------
      1         12           0       -5.022473   -0.365424    0.905983
      2          6           0       -4.740503    3.107548    0.177265
      3          6           0       -2.426353   -0.021562    3.134101
      4          6           0       -5.389113   -3.611107    1.405982
      5          6           0       -7.365977   -0.680292   -1.801077
      6          7           0       -3.634354    1.383762    1.560451
      7          6           0       -3.833315    2.694586    1.167427
      8          6           0       -2.798694    3.551846    1.974106
      9          6           0       -1.996002    2.515054    2.926858
     10          6           0       -2.710931    1.226369    2.507984
     11          6           0       -0.458549    2.524554    2.797897
     12          6           0       -3.348161    4.847161    2.702829
     13          6           0       -2.706478    6.142538    2.298490
     14          1           0       -1.293918    6.251211    1.787937
     15          7           0       -4.082901   -1.672515    2.255503
     16          6           0       -3.044456   -1.327888    3.062138
     17          6           0       -2.815744   -2.464663    3.916529
     18          6           0       -3.571163   -3.529586    3.379961
     19          6           0       -4.411342   -3.001402    2.256369
     20          6           0       -1.760271   -2.388545    5.032614
     21          6           0       -3.476382   -4.979892    3.745756
     22          8           0       -4.114222   -5.858038    3.117848
     23          6           0       -2.563433   -5.396332    4.838708
     24          7           0       -6.204218   -1.917971   -0.157612
     25          6           0       -6.222532   -3.119704    0.304057
     26          6           0       -7.241591   -4.163177   -0.402945
     27          6           0       -7.848196   -3.205405   -1.439697
     28          6           0       -7.146403   -1.901400   -1.149114
     29          6           0       -6.429880   -5.372378   -0.996324
     30          6           0       -9.408911   -3.043269   -1.427032
     31          6           0      -10.012194   -2.245366   -0.246725
     32          7           0       -5.756310    0.869751   -0.548948
     33          6           0       -6.676726    0.570110   -1.580775
     34          6           0       -6.999816    1.825465   -2.272456
     35          6           0       -6.270637    2.842220   -1.610363
     36          6           0       -5.556145    2.215833   -0.533862
     37          6           0       -7.991162    1.971019   -3.465625
     38          6           0       -6.056120    4.191377   -1.627488
     39          8           0       -6.440781    5.070387   -2.371509
     40          6           0       -5.098481    4.491739   -0.440732
     41          6           0       -3.960153    5.224024   -0.945798
     42          8           0       -2.932105    4.706883   -1.397302
     43          8           0       -4.287614    6.579734   -1.066906
     44          6           0       -3.257795    7.397775   -1.754196
     45          1           0       -1.475394   -0.103193    3.665355
     46          1           0       -5.377675   -4.701100    1.472340
     47          1           0       -8.075352   -0.719403   -2.630302
     48          1           0       -2.243404    3.953840    1.127653
     49          1           0       -2.158269    2.797542    3.966087
     50          1           0        0.008280    2.702736    3.767464
     51          1           0       -0.030456    3.219053    2.075248
     52          1           0       -0.221381    1.518281    2.452539
     53          1           0       -3.261676    4.732070    3.783458
     54          1           0       -4.393791    4.920875    2.403852
     55          1           0       -2.522481    6.692979    3.221814
     56          1           0       -3.382530    6.647240    1.609230
     57          1           0       -1.488233   -1.360104    5.271219
     58          1           0       -0.868879   -2.937786    4.732268
     59          1           0       -2.238821   -2.862050    5.889266
     60          1           0       -2.873570   -4.854534    5.732244
     61          1           0       -1.533603   -5.103800    4.630265
     62          1           0       -2.561876   -6.480281    4.946100
     63          1           0       -8.002016   -4.511172    0.296601
     64          1           0       -7.460497   -3.448278   -2.429307
     65          1           0       -5.438277   -5.006830   -1.263011
     66          1           0       -6.920250   -5.689486   -1.917370
     67          1           0       -6.299575   -6.257024   -0.372475
     68          1           0       -9.881573   -4.010670   -1.593852
     69          1           0       -9.689329   -2.535330   -2.349250
     70          1           0       -9.491653   -2.311803    0.708056
     71          1           0      -11.066790   -2.510622   -0.163970
     72          1           0      -10.013852   -1.208632   -0.582939
     73          1           0       -8.718711    2.770184   -3.323454
     74          1           0       -8.512707    1.045825   -3.708188
     75          1           0       -7.467702    2.428897   -4.305311
     76          1           0       -5.723527    5.126631    0.186364
     77          1           0       -3.206033    7.139285   -2.811529
     78          1           0       -2.244529    7.255054   -1.380422
     79          1           0       -3.462559    8.434439   -1.486249
     80         12           0        4.274216   -0.794015   -1.246136
     81          6           0        7.361281    0.660770   -0.155971
     82          6           0        2.854822    2.395866   -0.742603
     83          6           0        1.279795   -2.084360   -1.515614
     84          6           0        5.785257   -3.839484   -1.312045
     85          7           0        5.065179    1.275816   -0.580103
     86          6           0        6.361747    1.565779   -0.315283
     87          6           0        6.498306    3.070332   -0.149428
     88          6           0        5.093635    3.705279   -0.351676
     89          6           0        4.285653    2.417636   -0.603320
     90          6           0        4.593544    4.606087    0.913430
     91          6           0        7.528709    3.710998   -1.174925
     92          6           0        8.561731    4.676800   -0.593515
     93          1           0        8.208214    5.604006    0.637809
     94          7           0        2.313282    0.042589   -1.089424
     95          6           0        1.985281    1.305857   -0.919328
     96          6           0        0.551394    1.378840   -0.909734
     97          6           0        0.001220    0.125462   -1.279832
     98          6           0        1.184070   -0.694848   -1.270238
     99          6           0       -0.207367    2.703132   -0.841240
    100          6           0       -1.383257   -0.347098   -1.694916
    101          8           0       -1.647509   -1.515696   -1.910710
    102          6           0       -2.417569    0.727211   -1.889853
    103          7           0        3.619219   -2.723846   -1.037289
    104          6           0        2.306141   -3.022951   -1.405337
    105          6           0        2.096790   -4.522621   -1.749815
    106          6           0        3.603812   -4.975399   -1.822158
    107          6           0        4.413386   -3.763318   -1.361534
    108          6           0        1.237432   -5.214660   -0.681852
    109          6           0        4.092683   -5.339803   -3.303202
    110          6           0        4.284779   -6.776797   -3.655555
    111          7           0        6.157051   -1.456575   -0.947345
    112          6           0        6.617736   -2.755023   -0.981148
    113          6           0        8.011940   -2.872535   -0.562054
    114          6           0        8.368929   -1.519191   -0.221178
    115          6           0        7.193230   -0.742872   -0.351340
    116          6           0        8.829924   -4.103521   -0.715398
    117          6           0        9.461401   -0.634939    0.154511
    118          8           0       10.651782   -0.948249    0.337961
    119          6           0        8.834361    0.870166    0.248757
    120          6           0        9.021021    1.264369    1.636168
    121          8           0        8.599180    0.630620    2.578695
    122          8           0        9.701777    2.412501    1.732774
    123          6           0       10.079328    3.008980    3.052403
    124          1           0        2.377686    3.375673   -0.674771
    125          1           0        0.417750   -2.529329   -2.018249
    126          1           0        6.245363   -4.822562   -1.429408
    127          1           0        6.812716    3.249931    0.878685
    128          1           0        5.088418    4.434747   -1.161761
    129          1           0        5.442262    4.948525    1.505552
    130          1           0        3.929292    3.949295    1.475718
    131          1           0        4.017594    5.457910    0.552165
    132          1           0        7.078921    4.194076   -2.041270
    133          1           0        8.133122    2.918274   -1.615640
    134          1           0        8.961960    5.344151   -1.357062
    135          1           0        9.392171    4.015413   -0.346431
    136          1           0       -0.517887    3.090598   -1.811716
    137          1           0        0.325073    3.441089   -0.240459
    138          1           0       -1.102534    2.505050   -0.252149
    139          1           0       -2.062390    1.629478   -2.388624
    140          1           0       -2.894210    1.074566   -0.974262
    141          1           0       -3.132812    0.394213   -2.641991
    142          1           0        1.586124   -4.564678   -2.711484
    143          1           0        3.720899   -5.847029   -1.178089
    144          1           0        0.765054   -4.535653    0.027879
    145          1           0        1.828542   -5.893372   -0.068006
    146          1           0        0.463269   -5.805266   -1.172800
    147          1           0        5.044759   -4.895322   -3.593129
    148          1           0        3.447280   -4.918016   -4.072809
    149          1           0        3.584722   -7.069572   -4.437011
    150          1           0        4.069503   -7.288252   -2.717198
    151          1           0        5.297976   -6.948754   -4.018696
    152          1           0        9.866444   -3.864639   -0.951004
    153          1           0        8.305039   -4.729299   -1.436964
    154          1           0        8.808040   -4.612553    0.249163
    155          1           0        9.365123    1.570047   -0.395253
    156          1           0       10.557137    2.247668    3.669288
    157          1           0        9.218502    3.390490    3.602070
    158          1           0       10.674665    3.917739    2.968326
 ---------------------------------------------------------------------

 SCF Done:  E(RCAM-B3LYP) =  -4069.80997804     A.U. after   19 cycles

 Excitation energies and oscillator strengths:

 Excited State   1:      Singlet-A      1.6762 eV  739.68 nm  f=0.4175  <S**2>=0.000
     310 -> 316       -0.17051
     312 -> 314        0.68409
     310 <- 316       -0.10674
 This state for optimization and/or second-order correction.
 Total Energy, E(TD-HF/TD-DFT) =  -4069.74837914
 Copying the excited state density for this state as the 1-particle RhoCI density.

 Excited State   2:      Singlet-A      1.7660 eV  702.06 nm  f=0.3741  <S**2>=0.000
     309 -> 315       -0.18445
     311 -> 313        0.67965
     309 <- 315       -0.10513

 Excited State   3:      Singlet-A      2.2007 eV  563.39 nm  f=0.0045  <S**2>=0.000
     309 -> 313        0.40945
     310 -> 314        0.50345
     311 -> 315        0.17043
     312 -> 316        0.20552

 Excited State   4:      Singlet-A      2.2123 eV  560.44 nm  f=0.2083  <S**2>=0.000
     309 -> 313        0.49319
     310 -> 314       -0.40634
     311 -> 315        0.21749
     312 -> 316       -0.17111

 Excited State   5:      Singlet-A      2.2934 eV  540.62 nm  f=0.0004  <S**2>=0.000
     312 -> 313        0.70404

 The electronic state is 1-A.
 Alpha  occ. eigenvalues --  -46.89926 -46.88349 -19.25158 -19.24908 -19.20140
 Alpha  occ. eigenvalues --  -19.18955 -19.18796 -19.18761 -19.18397 -19.17785
 Alpha  occ. eigenvalues --  -14.42722 -14.42137 -14.41643 -14.41444 -14.39847
 Alpha  occ. eigenvalues --  -14.39813 -14.39099 -14.38772 -10.39341 -10.38374
 Alpha  occ. eigenvalues --  -10.35219 -10.35082 -10.35041 -10.33596 -10.32482
 Alpha  occ. eigenvalues --  -10.31984 -10.31958 -10.31506 -10.31389 -10.31361
 Alpha  occ. eigenvalues --  -10.31122 -10.31047 -10.30541 -10.30232 -10.30215
 Alpha  occ. eigenvalues --  -10.29978 -10.29952 -10.29429 -10.29371 -10.29240
 Alpha  occ. eigenvalues --  -10.28979 -10.28854 -10.28809 -10.28724 -10.28619
 Alpha  occ. eigenvalues --  -10.28599 -10.28384 -10.28360 -10.28274 -10.28181
 Alpha  occ. eigenvalues --  -10.28096 -10.28083 -10.28068 -10.28039 -10.27884
 Alpha  occ. eigenvalues --  -10.27827 -10.27767 -10.27733 -10.27614 -10.27547
 Alpha  occ. eigenvalues --  -10.27473 -10.27429 -10.27383 -10.27234 -10.27208
 Alpha  occ. eigenvalues --  -10.27143 -10.26922 -10.26832 -10.26814 -10.26331
 Alpha  occ. eigenvalues --  -10.26317 -10.26210 -10.26115 -10.26096 -10.26053
 Alpha  occ. eigenvalues --  -10.25931 -10.25896 -10.25832 -10.25610 -10.25351
 Alpha  occ. eigenvalues --  -10.25343 -10.25296 -10.25263 -10.24865 -10.24382
 Alpha  occ. eigenvalues --  -10.24083  -3.18256  -3.16979  -1.93167  -1.92750
 Alpha  occ. eigenvalues --   -1.92512  -1.91846  -1.91441  -1.91289  -1.16449
 Alpha  occ. eigenvalues --   -1.15041  -1.10236  -1.09535  -1.08480  -1.08212
 Alpha  occ. eigenvalues --   -1.07241  -1.07049  -1.06138  -1.04346  -1.03873
 Alpha  occ. eigenvalues --   -1.03235  -1.03226  -1.02904  -1.01892  -1.01603
 Alpha  occ. eigenvalues --   -0.92584  -0.91915  -0.89748  -0.88409  -0.88347
 Alpha  occ. eigenvalues --   -0.88129  -0.88041  -0.87892  -0.87375  -0.86870
 Alpha  occ. eigenvalues --   -0.86836  -0.86367  -0.86098  -0.85616  -0.84498
 Alpha  occ. eigenvalues --   -0.84003  -0.83931  -0.83513  -0.82787  -0.82480
 Alpha  occ. eigenvalues --   -0.82248  -0.81161  -0.80872  -0.80858  -0.80227
 Alpha  occ. eigenvalues --   -0.80085  -0.78366  -0.77693  -0.77631  -0.77457
 Alpha  occ. eigenvalues --   -0.76680  -0.76509  -0.76117  -0.76110  -0.75077
 Alpha  occ. eigenvalues --   -0.74518  -0.72665  -0.72178  -0.71682  -0.71167
 Alpha  occ. eigenvalues --   -0.70486  -0.69194  -0.68398  -0.68064  -0.67601
 Alpha  occ. eigenvalues --   -0.67304  -0.67056  -0.66617  -0.65343  -0.65330
 Alpha  occ. eigenvalues --   -0.65116  -0.64948  -0.64913  -0.64424  -0.64389
 Alpha  occ. eigenvalues --   -0.64249  -0.62242  -0.61842  -0.60278  -0.59914
 Alpha  occ. eigenvalues --   -0.59700  -0.58984  -0.58816  -0.58532  -0.58444
 Alpha  occ. eigenvalues --   -0.58241  -0.58214  -0.57817  -0.57673  -0.57164
 Alpha  occ. eigenvalues --   -0.56368  -0.56195  -0.55639  -0.55572  -0.55488
 Alpha  occ. eigenvalues --   -0.55127  -0.54736  -0.54162  -0.53985  -0.53479
 Alpha  occ. eigenvalues --   -0.53320  -0.53291  -0.53189  -0.53074  -0.52906
 Alpha  occ. eigenvalues --   -0.52633  -0.52445  -0.52213  -0.52118  -0.51912
 Alpha  occ. eigenvalues --   -0.51821  -0.51695  -0.51416  -0.51061  -0.51027
 Alpha  occ. eigenvalues --   -0.50955  -0.50468  -0.50349  -0.50162  -0.49930
 Alpha  occ. eigenvalues --   -0.49576  -0.49550  -0.49433  -0.49268  -0.49204
 Alpha  occ. eigenvalues --   -0.49090  -0.48937  -0.48905  -0.48821  -0.48766
 Alpha  occ. eigenvalues --   -0.48388  -0.48305  -0.48163  -0.48047  -0.48008
 Alpha  occ. eigenvalues --   -0.47948  -0.47765  -0.47579  -0.47181  -0.46932
 Alpha  occ. eigenvalues --   -0.46896  -0.46699  -0.46598  -0.46525  -0.46172
 Alpha  occ. eigenvalues --   -0.46155  -0.45956  -0.45897  -0.45811  -0.45615
 Alpha  occ. eigenvalues --   -0.45386  -0.45178  -0.45063  -0.44904  -0.44776
 Alpha  occ. eigenvalues --   -0.44463  -0.44289  -0.44020  -0.43928  -0.43856
 Alpha  occ. eigenvalues --   -0.43580  -0.43526  -0.43356  -0.43304  -0.43024
 Alpha  occ. eigenvalues --   -0.42956  -0.42642  -0.42469  -0.42425  -0.42375
 Alpha  occ. eigenvalues --   -0.42273  -0.42154  -0.41929  -0.41712  -0.41584
 Alpha  occ. eigenvalues --   -0.41471  -0.41392  -0.41376  -0.41220  -0.41204
 Alpha  occ. eigenvalues --   -0.41155  -0.41032  -0.40778  -0.40768  -0.40349
 Alpha  occ. eigenvalues --   -0.40143  -0.40089  -0.40017  -0.39494  -0.39221
 Alpha  occ. eigenvalues --   -0.39170  -0.38187  -0.37566  -0.37052  -0.36770
 Alpha  occ. eigenvalues --   -0.36744  -0.36701  -0.36471  -0.36410  -0.36023
 Alpha  occ. eigenvalues --   -0.35961  -0.35875  -0.34537  -0.34176  -0.34063
 Alpha  occ. eigenvalues --   -0.33630  -0.33174  -0.32701  -0.31427  -0.31225
 Alpha  occ. eigenvalues --   -0.31125  -0.30878  -0.30494  -0.30465  -0.30184
 Alpha  occ. eigenvalues --   -0.29732  -0.29669  -0.29110  -0.23932  -0.23575
 Alpha  occ. eigenvalues --   -0.21417  -0.20668
 Alpha virt. eigenvalues --   -0.08637  -0.08398  -0.01930  -0.00851   0.00002
 Alpha virt. eigenvalues --    0.00519   0.02055   0.02148   0.02425   0.02538
 Alpha virt. eigenvalues --    0.04383   0.04874   0.05573   0.05753   0.06070

 Mulliken charges:
               1
     1  Mg  11.997688
     2  C    5.997541
     3  C    5.994038
     4  C    6.004501
     5  C    6.003761
     6  N    6.996963
     7  C    5.994566
     8  C    5.999052
     9  C    6.001088
    10  C    5.996986
    11  C    5.997261
    12  C    6.000311
    13  C    5.999455
    14  H    0.997289
    15  N    6.999293
    16  C    6.002491
    17  C    6.001653
    18  C    6.002795
    19  C    5.999891
    20  C    5.999215
    21  C    6.001515
    22  O    8.003657
    23  C    5.998938
    24  N    7.000935
    25  C    6.000085
    26  C    5.999747
    27  C    6.000359
    28  C    5.996366
    29  C    5.999191
    30  C    5.999581
    31  C    5.999628
    32  N    6.999029
    33  C    5.993245
    34  C    5.999188
    35  C    5.999187
    36  C    5.996651
    37  C    5.999817
    38  C    5.999227
    39  O    8.000401
    40  C    6.000428
    41  C    6.001531
    42  O    7.991295
    43  O    8.001914
    44  C    5.999731
    45  H    1.000229
    46  H    1.003676
    47  H    1.002057
    48  H    0.994059
    49  H    1.004387
    50  H    1.008018
    51  H    0.996080
    52  H    0.992500
    53  H    1.002174
    54  H    1.002440
    55  H    1.003057
    56  H    1.001682
    57  H    1.002263
    58  H    1.003448
    59  H    1.003563
    60  H    1.001622
    61  H    1.002155
    62  H    1.004030
    63  H    1.002554
    64  H    1.000697
    65  H    0.998243
    66  H    1.003353
    67  H    1.002175
    68  H    1.001705
    69  H    1.001313
    70  H    0.999031
    71  H    1.002116
    72  H    1.000479
    73  H    1.001112
    74  H    1.000326
    75  H    0.999495
    76  H    1.002009
    77  H    1.000628
    78  H    0.998261
    79  H    1.002878
    80  Mg  11.997032
    81  C    6.023969
    82  C    5.983125
    83  C    5.966166
    84  C    6.010165
    85  N    7.007312
    86  C    5.973109
    87  C    6.010552
    88  C    5.984545
    89  C    6.035409
    90  C    5.999296
    91  C    6.001325
    92  C    6.000917
    93  H    0.992251
    94  N    6.990926
    95  C    6.043371
    96  C    6.025657
    97  C    6.012747
    98  C    6.042328
    99  C    5.995365
   100  C    6.012693
   101  O    8.024165
   102  C    5.992508
   103  N    6.989521
   104  C    6.048732
   105  C    5.988413
   106  C    6.009025
   107  C    5.972900
   108  C    5.996431
   109  C    6.008800
   110  C    6.000532
   111  N    7.000154
   112  C    5.964898
   113  C    5.960946
   114  C    5.999899
   115  C    5.962516
   116  C    6.005067
   117  C    5.985275
   118  O    7.970816
   119  C    5.992619
   120  C    5.994710
   121  O    7.997684
   122  O    7.997961
   123  C    6.002717
   124  H    1.010792
   125  H    1.004971
   126  H    0.987229
   127  H    0.999955
   128  H    1.006378
   129  H    1.013576
   130  H    0.998634
   131  H    1.000708
   132  H    0.990976
   133  H    1.008209
   134  H    0.997506
   135  H    1.006284
   136  H    1.021443
   137  H    1.017724
   138  H    1.018586
   139  H    1.004484
   140  H    1.009747
   141  H    1.013100
   142  H    1.000446
   143  H    0.996436
   144  H    0.995035
   145  H    1.012289
   146  H    1.002740
   147  H    1.005850
   148  H    0.986032
   149  H    0.992503
   150  H    0.997056
   151  H    1.002072
   152  H    0.980518
   153  H    0.980443
   154  H    0.974852
   155  H    0.990439
   156  H    0.999247
   157  H    0.993057
   158  H    0.994833
 Sum of Mulliken charges = 624.00000

 Dipole moment (field-independent basis, Debye):
    X=            -10.9151    Y=              3.4928    Z=             -0.0847  Tot=             11.4607
 Quadrupole moment (field-independent basis, Debye-Ang):
   XX=            -84.5590   YY=             -3.1784   ZZ=              3.0349
   XY=             29.7381   XZ=              1.1976   YZ=             -5.8666

 Normal termination of Gaussian 16 at Wed Sep 22 07:13:22 2021.
