 Gaussian 16, Revision A.03,
 Gaussian 16:  ES64L-G16RevA.03 25-Dec-2016

 -----------------------------------
 #p cam-b3lyp/Def2SVP td=(nstates=5)
 -----------------------------------

 --------------------------------
 TDDFT excited states in gaussian
 --------------------------------
 Symbolic Z-matrix:
 Charge =  0 Multiplicity = 1

                         Standard orientation:
 ---------------------------------------------------------------------
 Center     Atomic      Atomic             Coordinates (Angstroms)
 Number     Number       Type             X           Y           Z
 ---------------------------------------------------------------------
      1         12           0       20.983548    0.283760    0.166913
      2          6           0       18.020764   -1.558058   -0.117497
      3          6           0       22.466022   -2.254128   -1.655742
      4          6           0       23.768014    2.122570    0.080096
      5          6           0       19.133472    3.055554    1.222734
      6          7           0       20.168187   -1.690737   -0.983944
      7          6           0       18.957450   -2.258637   -0.824325
      8          6           0       18.806419   -3.573497   -1.550933
      9          6           0       20.345921   -3.847430   -1.749493
     10          6           0       21.080720   -2.532491   -1.510031
     11          6           0       20.838910   -4.882452   -0.703316
     12          6           0       17.882179   -3.436575   -2.767489
     13          6           0       17.960641   -2.175554   -3.653012
     14          1           0       18.049311   -2.420052   -5.154758
     15          7           0       22.836413   -0.015181   -0.646893
     16          6           0       23.260440   -1.172700   -1.243944
     17          6           0       24.728842   -1.201633   -1.235016
     18          6           0       25.165728    0.136362   -0.877582
     19          6           0       23.893882    0.792696   -0.446233
     20          6           0       25.563880   -2.367066   -1.890898
     21          6           0       26.593186    0.685308   -0.941541
     22          8           0       27.516383   -0.040786   -1.184959
     23          6           0       26.854065    2.135351   -0.652075
     24          7           0       21.309887    2.419459    0.407417
     25          6           0       22.608487    2.960934    0.435468
     26          6           0       22.631367    4.494523    0.843967
     27          6           0       21.102995    4.727384    1.266399
     28          6           0       20.461574    3.291188    0.989186
     29          6           0       23.691526    5.031684    1.929937
     30          6           0       20.317286    5.923422    0.558487
     31          6           0       19.254760    6.579777    1.571524
     32          7           0       18.978442    0.721433    0.561175
     33          6           0       18.397977    1.865252    1.070423
     34          6           0       16.983401    1.613942    1.317589
     35          6           0       16.741758    0.266756    0.943885
     36          6           0       17.989227   -0.217703    0.407915
     37          6           0       16.016341    2.535406    2.013706
     38          6           0       15.753981   -0.843720    0.746510
     39          8           0       14.550917   -0.853923    0.883020
     40          6           0       16.591492   -2.035587    0.114900
     41          6           0       16.511718   -3.178905    1.088820
     42          8           0       15.506222   -3.920843    1.220373
     43          8           0       17.748439   -3.365898    1.689088
     44          6           0       17.881470   -4.555536    2.461795
     45          1           0       22.956620   -3.095101   -2.150418
     46          1           0       24.638962    2.747895    0.288248
     47          1           0       18.610854    3.863722    1.738918
     48          1           0       18.457677   -4.364041   -0.886729
     49          1           0       20.677333   -4.217804   -2.718645
     50          1           0       21.866354   -4.602035   -0.470049
     51          1           0       20.697248   -5.897183   -1.072583
     52          1           0       20.416501   -4.864884    0.301846
     53          1           0       16.871120   -3.401373   -2.362924
     54          1           0       18.005972   -4.324913   -3.386987
     55          1           0       18.863298   -1.621325   -3.397019
     56          1           0       17.049474   -1.598177   -3.499118
     57          1           0       25.619060   -2.340140   -2.979508
     58          1           0       25.154281   -3.327964   -1.579265
     59          1           0       26.590038   -2.475906   -1.541711
     60          1           0       27.881281    2.419261   -0.883133
     61          1           0       26.652731    2.409354    0.383728
     62          1           0       26.242565    2.624993   -1.410445
     63          1           0       22.842191    4.932657   -0.130856
     64          1           0       21.015101    4.888269    2.340485
     65          1           0       24.583028    5.335222    1.382365
     66          1           0       23.932126    4.265806    2.666740
     67          1           0       23.241259    5.867869    2.465264
     68          1           0       19.679649    5.552294   -0.243795
     69          1           0       21.009011    6.656217    0.142265
     70          1           0       18.238227    6.477939    1.191319
     71          1           0       19.474830    7.640457    1.688881
     72          1           0       19.127500    6.142510    2.561229
     73          1           0       15.968807    3.468827    1.453864
     74          1           0       16.377092    2.751282    3.019598
     75          1           0       15.004414    2.131560    2.040981
     76          1           0       16.000059   -2.339322   -0.748558
     77          1           0       18.912436   -4.647996    2.802581
     78          1           0       17.491420   -5.420828    1.925576
     79          1           0       17.348788   -4.488999    3.410400
     80         12           0      -20.834198    0.651923    0.076142
     81          6           0      -18.827662   -2.204773    0.449485
     82          6           0      -17.995589    2.504345   -0.154425
     83          6           0      -22.811666    3.139661   -0.696627
     84          6           0      -23.529491   -1.668065   -0.489067
     85          7           0      -18.704126    0.186007    0.210649
     86          6           0      -18.104928   -1.034740    0.343216
     87          6           0      -16.607412   -0.869220    0.044223
     88          6           0      -16.373187    0.590023    0.418977
     89          6           0      -17.763489    1.136589    0.041798
     90          6           0      -16.069960    0.784134    1.922643
     91          6           0      -16.288297   -1.157691   -1.469323
     92          6           0      -15.394431   -2.443769   -1.830159
     93          1           0      -15.999195   -3.551097   -2.710019
     94          7           0      -20.456997    2.546349   -0.421512
     95          6           0      -19.215780    3.139942   -0.440032
     96          6           0      -19.396011    4.542144   -0.651655
     97          6           0      -20.799175    4.834422   -0.701501
     98          6           0      -21.445671    3.492987   -0.613913
     99          6           0      -18.206042    5.556292   -0.758355
    100          6           0      -21.414261    6.277469   -0.800880
    101          8           0      -20.705054    7.234544   -0.744938
    102          6           0      -22.859720    6.421715   -0.677787
    103          7           0      -22.818354    0.696395   -0.821769
    104          6           0      -23.446758    1.884080   -0.652947
    105          6           0      -24.949640    1.746760   -0.475713
    106          6           0      -25.201868    0.278358   -0.781975
    107          6           0      -23.745214   -0.297216   -0.702503
    108          6           0      -25.436649    2.145502    0.966402
    109          6           0      -25.944719   -0.129323   -2.140328
    110          6           0      -27.358040   -0.646971   -2.151997
    111          7           0      -21.203153   -1.442691    0.187379
    112          6           0      -22.328923   -2.237839   -0.062908
    113          6           0      -22.023840   -3.647400    0.054064
    114          6           0      -20.669718   -3.667399    0.281510
    115          6           0      -20.171555   -2.324043    0.336543
    116          6           0      -22.982408   -4.748803   -0.132945
    117          6           0      -19.533775   -4.550756    0.496013
    118          8           0      -19.504647   -5.781344    0.620671
    119          6           0      -18.335042   -3.652996    0.719352
    120          6           0      -17.823160   -3.924633    2.129755
    121          8           0      -18.552545   -3.768064    3.106313
    122          8           0      -16.531403   -4.473332    2.114275
    123          6           0      -15.998820   -4.786747    3.413291
    124          1           0      -17.075435    3.085278   -0.066913
    125          1           0      -23.449522    4.022319   -0.629308
    126          1           0      -24.374212   -2.357546   -0.551733
    127          1           0      -16.089597   -1.651745    0.599426
    128          1           0      -15.556223    0.968459   -0.194134
    129          1           0      -15.176105    1.399837    1.828759
    130          1           0      -15.876912   -0.221799    2.296438
    131          1           0      -16.843607    1.262088    2.523705
    132          1           0      -15.722367   -0.306019   -1.846588
    133          1           0      -17.233217   -1.152623   -2.012069
    134          1           0      -15.203139   -2.934913   -0.875770
    135          1           0      -14.414275   -2.213902   -2.246252
    136          1           0      -18.195770    6.246071   -1.601708
    137          1           0      -17.304937    4.944256   -0.809179
    138          1           0      -18.108248    6.184436    0.127248
    139          1           0      -23.432287    5.871677   -1.424913
    140          1           0      -23.106178    7.480708   -0.754091
    141          1           0      -23.168629    6.237269    0.350209
    142          1           0      -25.511468    2.416937   -1.127195
    143          1           0      -25.743312   -0.190987    0.039416
    144          1           0      -25.835563    3.158191    1.022398
    145          1           0      -24.652477    1.922867    1.689995
    146          1           0      -26.263701    1.479881    1.217597
    147          1           0      -25.388028   -0.711097   -2.874204
    148          1           0      -25.970522    0.882129   -2.546662
    149          1           0      -28.064620    0.028857   -2.632729
    150          1           0      -27.700976   -0.793684   -1.127519
    151          1           0      -27.291776   -1.596773   -2.682149
    152          1           0      -23.780442   -4.386867   -0.781779
    153          1           0      -23.411155   -4.931184    0.852864
    154          1           0      -22.486816   -5.654175   -0.480361
    155          1           0      -17.621784   -4.029409   -0.012663
    156          1           0      -15.643977   -3.924621    3.978656
    157          1           0      -15.161358   -5.480605    3.346011
    158          1           0      -16.697521   -5.299441    4.073843
 ---------------------------------------------------------------------

 SCF Done:  E(RCAM-B3LYP) =  -4069.80838286     A.U. after   17 cycles

 Excitation energies and oscillator strengths:

 Excited State   1:      Singlet-A      1.7237 eV  719.29 nm  f=0.3615  <S**2>=0.000
     309 -> 315       -0.19170
     312 -> 314        0.68301
     309 <- 315       -0.11114
 This state for optimization and/or second-order correction.
 Total Energy, E(TD-HF/TD-DFT) =  -4069.74503778
 Copying the excited state density for this state as the 1-particle RhoCI density.

 Excited State   2:      Singlet-A      1.7469 eV  709.75 nm  f=0.3601  <S**2>=0.000
     310 -> 316       -0.19411
     311 -> 313        0.68066
     310 <- 316       -0.10946

 Excited State   3:      Singlet-A      2.2374 eV  554.14 nm  f=0.1043  <S**2>=0.000
     310 -> 313        0.63523
     311 -> 316        0.29909

 Excited State   4:      Singlet-A      2.2830 eV  543.08 nm  f=0.0524  <S**2>=0.000
     309 -> 314        0.60482
     312 -> 315        0.35602

 Excited State   5:      Singlet-A      3.1276 eV  396.42 nm  f=0.0000  <S**2>=0.000
     312 -> 313        0.70709

 The electronic state is 1-A.
 Alpha  occ. eigenvalues --  -46.90404 -46.88659 -19.26048 -19.25988 -19.20545
 Alpha  occ. eigenvalues --  -19.20021 -19.19554 -19.19066 -19.19047 -19.18731
 Alpha  occ. eigenvalues --  -14.42268 -14.42110 -14.42048 -14.41820 -14.40531
 Alpha  occ. eigenvalues --  -14.39483 -14.39356 -14.39320 -10.40215 -10.39983
 Alpha  occ. eigenvalues --  -10.35797 -10.35313 -10.35029 -10.34535 -10.32839
 Alpha  occ. eigenvalues --  -10.31988 -10.31839 -10.31467 -10.31137 -10.31108
 Alpha  occ. eigenvalues --  -10.31101 -10.30858 -10.30804 -10.30628 -10.30595
 Alpha  occ. eigenvalues --  -10.30520 -10.30219 -10.29893 -10.29765 -10.29589
 Alpha  occ. eigenvalues --  -10.29557 -10.29510 -10.29273 -10.29252 -10.28964
 Alpha  occ. eigenvalues --  -10.28585 -10.28545 -10.28533 -10.28450 -10.28400
 Alpha  occ. eigenvalues --  -10.28378 -10.28138 -10.28074 -10.28053 -10.28002
 Alpha  occ. eigenvalues --  -10.27917 -10.27853 -10.27840 -10.27801 -10.27795
 Alpha  occ. eigenvalues --  -10.27790 -10.27787 -10.27754 -10.27730 -10.27513
 Alpha  occ. eigenvalues --  -10.27218 -10.26901 -10.26883 -10.26872 -10.26848
 Alpha  occ. eigenvalues --  -10.26834 -10.26829 -10.26437 -10.26412 -10.26301
 Alpha  occ. eigenvalues --  -10.26269 -10.26227 -10.26206 -10.26193 -10.26184
 Alpha  occ. eigenvalues --  -10.25977 -10.25955 -10.25895 -10.25674 -10.25479
 Alpha  occ. eigenvalues --  -10.25107  -3.18767  -3.17268  -1.93630  -1.93242
 Alpha  occ. eigenvalues --   -1.93057  -1.92143  -1.91739  -1.91568  -1.16465
 Alpha  occ. eigenvalues --   -1.15929  -1.11884  -1.11512  -1.10666  -1.09073
 Alpha  occ. eigenvalues --   -1.08188  -1.07058  -1.04794  -1.04753  -1.04248
 Alpha  occ. eigenvalues --   -1.03895  -1.02971  -1.02830  -1.02047  -1.01905
 Alpha  occ. eigenvalues --   -0.93017  -0.92521  -0.89128  -0.89027  -0.88937
 Alpha  occ. eigenvalues --   -0.88480  -0.88345  -0.87748  -0.87586  -0.87354
 Alpha  occ. eigenvalues --   -0.87078  -0.86057  -0.85673  -0.84971  -0.84859
 Alpha  occ. eigenvalues --   -0.84581  -0.84212  -0.83359  -0.82721  -0.82554
 Alpha  occ. eigenvalues --   -0.82494  -0.81890  -0.81006  -0.80827  -0.80816
 Alpha  occ. eigenvalues --   -0.80376  -0.77976  -0.77545  -0.77298  -0.77198
 Alpha  occ. eigenvalues --   -0.76715  -0.76429  -0.76371  -0.76278  -0.75331
 Alpha  occ. eigenvalues --   -0.75078  -0.72859  -0.72823  -0.72095  -0.72068
 Alpha  occ. eigenvalues --   -0.69941  -0.69412  -0.69007  -0.68587  -0.68229
 Alpha  occ. eigenvalues --   -0.68121  -0.67168  -0.66747  -0.65906  -0.65845
 Alpha  occ. eigenvalues --   -0.65569  -0.64904  -0.64847  -0.64837  -0.64638
 Alpha  occ. eigenvalues --   -0.64425  -0.63727  -0.62689  -0.60220  -0.60040
 Alpha  occ. eigenvalues --   -0.60020  -0.59283  -0.59092  -0.58966  -0.58858
 Alpha  occ. eigenvalues --   -0.58469  -0.58187  -0.57805  -0.57652  -0.57356
 Alpha  occ. eigenvalues --   -0.56303  -0.56211  -0.56101  -0.56045  -0.55500
 Alpha  occ. eigenvalues --   -0.55257  -0.55073  -0.54943  -0.54311  -0.53922
 Alpha  occ. eigenvalues --   -0.53674  -0.53514  -0.53224  -0.53172  -0.53071
 Alpha  occ. eigenvalues --   -0.52965  -0.52796  -0.52757  -0.52651  -0.52160
 Alpha  occ. eigenvalues --   -0.51939  -0.51718  -0.51646  -0.51451  -0.51097
 Alpha  occ. eigenvalues --   -0.50982  -0.50863  -0.50708  -0.50563  -0.50433
 Alpha  occ. eigenvalues --   -0.50113  -0.50056  -0.49949  -0.49795  -0.49727
 Alpha  occ. eigenvalues --   -0.49615  -0.49561  -0.49269  -0.49051  -0.48944
 Alpha  occ. eigenvalues --   -0.48700  -0.48649  -0.48386  -0.48310  -0.48061
 Alpha  occ. eigenvalues --   -0.47580  -0.47486  -0.47323  -0.47247  -0.47101
 Alpha  occ. eigenvalues --   -0.46959  -0.46681  -0.46563  -0.46326  -0.46320
 Alpha  occ. eigenvalues --   -0.46261  -0.46106  -0.46092  -0.45938  -0.45700
 Alpha  occ. eigenvalues --   -0.45567  -0.45397  -0.45335  -0.45309  -0.45214
 Alpha  occ. eigenvalues --   -0.44893  -0.44412  -0.44279  -0.44259  -0.44128
 Alpha  occ. eigenvalues --   -0.43964  -0.43867  -0.43826  -0.43647  -0.43529
 Alpha  occ. eigenvalues --   -0.43395  -0.43277  -0.43267  -0.43030  -0.42995
 Alpha  occ. eigenvalues --   -0.42794  -0.42545  -0.42377  -0.42235  -0.42223
 Alpha  occ. eigenvalues --   -0.42107  -0.42012  -0.41938  -0.41745  -0.41700
 Alpha  occ. eigenvalues --   -0.41563  -0.41244  -0.41044  -0.40838  -0.40687
 Alpha  occ. eigenvalues --   -0.40385  -0.40346  -0.40002  -0.39929  -0.39108
 Alpha  occ. eigenvalues --   -0.38955  -0.38941  -0.38132  -0.37960  -0.37430
 Alpha  occ. eigenvalues --   -0.37286  -0.37202  -0.37107  -0.36793  -0.36655
 Alpha  occ. eigenvalues --   -0.36494  -0.36328  -0.34812  -0.34699  -0.34682
 Alpha  occ. eigenvalues --   -0.34404  -0.33452  -0.33167  -0.31382  -0.31378
 Alpha  occ. eigenvalues --   -0.31215  -0.31183  -0.30915  -0.30914  -0.30618
 Alpha  occ. eigenvalues --   -0.30118  -0.29741  -0.29623  -0.24363  -0.24044
 Alpha  occ. eigenvalues --   -0.21404  -0.20964
 Alpha virt. eigenvalues --   -0.08645  -0.08289  -0.02198  -0.02088   0.00084
 Alpha virt. eigenvalues --    0.00529   0.00758   0.01857   0.01998   0.02770
 Alpha virt. eigenvalues --    0.04236   0.04425   0.05047   0.05480   0.05904

 Mulliken charges:
               1
     1  Mg   0.821409
     2  C    0.141415
     3  C   -0.072411
     4  C   -0.088176
     5  C   -0.079393
     6  N   -0.220278
     7  C   -0.143094
     8  C    0.066428
     9  C   -0.054764
    10  C   -0.010681
    11  C    0.063584
    12  C    0.064043
    13  C   -0.078559
    14  H    0.015495
    15  N   -0.372580
    16  C    0.163228
    17  C   -0.137155
    18  C   -0.058519
    19  C    0.190584
    20  C    0.093533
    21  C   -0.010336
    22  O   -0.168275
    23  C    0.051841
    24  N   -0.300587
    25  C   -0.021022
    26  C   -0.011940
    27  C   -0.040255
    28  C    0.044982
    29  C    0.055018
    30  C    0.036434
    31  C   -0.036866
    32  N   -0.352627
    33  C    0.125094
    34  C   -0.196539
    35  C    0.022504
    36  C    0.045464
    37  C    0.117946
    38  C    0.063989
    39  O   -0.137446
    40  C   -0.139028
    41  C    0.228301
    42  O   -0.237496
    43  O   -0.322908
    44  C    0.183472
    45  H   -0.018127
    46  H   -0.048426
    47  H   -0.045706
    48  H    0.002308
    49  H   -0.000441
    50  H    0.003833
    51  H    0.026708
    52  H    0.004880
    53  H    0.013095
    54  H    0.020353
    55  H    0.050683
    56  H    0.037461
    57  H    0.040195
    58  H    0.005495
    59  H    0.031868
    60  H    0.019356
    61  H    0.059879
    62  H    0.032467
    63  H    0.026043
    64  H    0.015642
    65  H    0.028260
    66  H    0.025963
    67  H    0.028346
    68  H    0.025551
    69  H    0.019007
    70  H    0.017218
    71  H    0.020686
    72  H    0.021735
    73  H    0.015700
    74  H    0.029790
    75  H    0.034169
    76  H    0.055819
    77  H    0.031244
    78  H    0.037710
    79  H    0.027410
    80  Mg   0.819065
    81  C   -0.027530
    82  C   -0.090309
    83  C   -0.046306
    84  C   -0.087382
    85  N   -0.261372
    86  C   -0.073398
    87  C   -0.067266
    88  C   -0.064324
    89  C    0.017951
    90  C    0.108016
    91  C    0.064990
    92  C   -0.081532
    93  H    0.029372
    94  N   -0.432482
    95  C    0.196309
    96  C   -0.155226
    97  C   -0.066249
    98  C    0.129213
    99  C    0.128360
   100  C    0.011604
   101  O   -0.165226
   102  C    0.046980
   103  N   -0.260882
   104  C    0.045566
   105  C   -0.043734
   106  C   -0.029953
   107  C    0.049903
   108  C    0.066799
   109  C    0.022719
   110  C    0.021388
   111  N   -0.342423
   112  C    0.111621
   113  C   -0.193864
   114  C    0.033655
   115  C    0.152515
   116  C    0.142369
   117  C    0.016942
   118  O   -0.185141
   119  C    0.043572
   120  C    0.222894
   121  O   -0.216040
   122  O   -0.330670
   123  C    0.180751
   124  H   -0.024209
   125  H   -0.052612
   126  H   -0.027363
   127  H   -0.005420
   128  H   -0.002330
   129  H    0.020629
   130  H    0.016919
   131  H    0.032927
   132  H    0.008376
   133  H    0.031335
   134  H    0.028621
   135  H    0.035581
   136  H    0.032216
   137  H   -0.009116
   138  H    0.027807
   139  H    0.050329
   140  H    0.014630
   141  H    0.046881
   142  H    0.006522
   143  H    0.001255
   144  H    0.023798
   145  H    0.019676
   146  H    0.008272
   147  H    0.019321
   148  H   -0.007813
   149  H    0.021925
   150  H    0.005673
   151  H    0.020181
   152  H    0.016060
   153  H    0.034054
   154  H    0.041582
   155  H    0.030861
   156  H    0.024083
   157  H    0.031589
   158  H    0.036518
 Sum of Mulliken charges =  -0.00000

 Dipole moment (field-independent basis, Debye):
    X=              2.7055    Y=              3.9634    Z=              2.1755  Tot=              5.2689
 Quadrupole moment (field-independent basis, Debye-Ang):
   XX=           -294.1374   YY=           -523.0679   ZZ=           -509.7133
   XY=              8.2115   XZ=             45.4048   YZ=             15.6470

 Normal termination of Gaussian 16 at Thu Sep  2 03:24:42 2021.
