 Gaussian 16, Revision A.03,
 Gaussian 16:  ES64L-G16RevA.03 25-Dec-2016

 -----------------------------------
 #p cam-b3lyp/Def2SVP td=(nstates=5)
 -----------------------------------

 --------------------------------
 TDDFT excited states in gaussian
 --------------------------------
 Symbolic Z-matrix:
 Charge =  0 Multiplicity = 1

                         Standard orientation:
 ---------------------------------------------------------------------
 Center     Atomic      Atomic             Coordinates (Angstroms)
 Number     Number       Type             X           Y           Z
 ---------------------------------------------------------------------
      1         12           0      -30.622420    0.343691    0.378836
      2          6           0      -27.755001   -1.430799   -0.317855
      3          6           0      -28.819477    3.230985    0.100959
      4          6           0      -33.477405    1.898515   -0.207934
      5          6           0      -32.328369   -2.718079    0.585689
      6          7           0      -28.608742    0.782954   -0.525159
      7          6           0      -27.562761   -0.082547   -0.496115
      8          6           0      -26.243976    0.592731   -0.731112
      9          6           0      -26.568487    2.014943   -0.169818
     10          6           0      -28.089076    1.999789   -0.118120
     11          6           0      -25.859201    2.313222    1.182200
     12          6           0      -25.858198    0.649219   -2.293778
     13          6           0      -24.299399    0.509636   -2.621126
     14          1           0      -23.860820    1.764139   -3.335205
     15          7           0      -31.083985    2.330433    0.197014
     16          6           0      -30.255010    3.381497    0.013656
     17          6           0      -31.015300    4.611560   -0.168257
     18          6           0      -32.374252    4.239961   -0.226497
     19          6           0      -32.349884    2.757419   -0.080368
     20          6           0      -30.303979    5.976836   -0.330479
     21          6           0      -33.467153    5.199432   -0.607115
     22          8           0      -33.200339    6.357748   -0.795153
     23          6           0      -34.939534    4.805540   -0.831924
     24          7           0      -32.687434   -0.271416    0.332655
     25          6           0      -33.618726    0.531841    0.065657
     26          6           0      -34.936618   -0.127627   -0.109185
     27          6           0      -34.595056   -1.645692    0.160564
     28          6           0      -33.145179   -1.570531    0.370207
     29          6           0      -36.036213    0.524538    0.795465
     30          6           0      -34.990148   -2.579388   -1.075474
     31          6           0      -35.134629   -4.118917   -0.802905
     32          7           0      -30.188297   -1.670909    0.267912
     33          6           0      -30.970442   -2.792035    0.478237
     34          6           0      -30.160119   -3.978251    0.493427
     35          6           0      -28.837591   -3.478082    0.226811
     36          6           0      -28.938272   -2.119162   -0.000798
     37          6           0      -30.599774   -5.386770    0.732441
     38          6           0      -27.475962   -3.868714    0.100183
     39          8           0      -26.863865   -4.942914    0.159207
     40          6           0      -26.748285   -2.596544   -0.447622
     41          6           0      -25.476651   -2.468065    0.322847
     42          8           0      -24.380224   -2.915496   -0.041655
     43          8           0      -25.717715   -1.835577    1.511190
     44          6           0      -24.447253   -1.760313    2.285869
     45          1           0      -28.322011    4.201008    0.170204
     46          1           0      -34.395678    2.430982   -0.462085
     47          1           0      -32.875067   -3.661606    0.516034
     48          1           0      -25.557647    0.061991   -0.072497
     49          1           0      -26.179281    2.765209   -0.858289
     50          1           0      -25.157637    3.135789    1.046343
     51          1           0      -25.254182    1.439088    1.425130
     52          1           0      -26.635241    2.479027    1.928788
     53          1           0      -26.259833    1.489632   -2.859700
     54          1           0      -26.335330   -0.170606   -2.829781
     55          1           0      -24.252806   -0.311085   -3.337067
     56          1           0      -23.602931    0.229091   -1.830900
     57          1           0      -30.521330    6.500370   -1.261411
     58          1           0      -29.221621    5.932011   -0.204679
     59          1           0      -30.613762    6.592733    0.513143
     60          1           0      -35.428393    4.435212    0.068579
     61          1           0      -35.083380    4.091074   -1.642837
     62          1           0      -35.396896    5.698034   -1.260063
     63          1           0      -35.149789    0.021264   -1.167633
     64          1           0      -34.963643   -2.105624    1.077151
     65          1           0      -36.822029    0.879242    0.128908
     66          1           0      -35.636164    1.338929    1.399744
     67          1           0      -36.615834   -0.190768    1.378762
     68          1           0      -34.256236   -2.471209   -1.874360
     69          1           0      -35.936245   -2.182270   -1.440382
     70          1           0      -36.076987   -4.636285   -0.980786
     71          1           0      -34.956393   -4.338485    0.248881
     72          1           0      -34.392978   -4.673671   -1.377648
     73          1           0      -31.625618   -5.528002    1.072167
     74          1           0      -29.860665   -5.673750    1.479327
     75          1           0      -30.327780   -5.830163   -0.225520
     76          1           0      -26.542836   -2.623170   -1.518287
     77          1           0      -24.169060   -2.759329    2.620027
     78          1           0      -24.567501   -1.256039    3.244721
     79          1           0      -23.706675   -1.267647    1.655505
     80         12           0       30.604588   -0.176470   -0.564784
     81          6           0       28.021223   -0.893937    1.764525
     82          6           0       32.308451    1.310597    2.155051
     83          6           0       32.887204    0.865902   -2.649840
     84          6           0       28.592195   -1.439796   -3.104640
     85          7           0       30.197055    0.184333    1.747637
     86          6           0       29.104183   -0.314857    2.412869
     87          6           0       29.181466   -0.123573    3.918115
     88          6           0       30.530603    0.712544    3.988722
     89          6           0       31.081527    0.713783    2.554443
     90          6           0       30.300966    2.065948    4.654889
     91          6           0       29.263100   -1.486804    4.639546
     92          6           0       28.537771   -1.648726    6.029582
     93          1           0       28.196435   -0.367840    6.826847
     94          7           0       32.406332    0.872681   -0.287692
     95          6           0       32.872820    1.458243    0.889599
     96          6           0       34.161075    2.106435    0.597093
     97          6           0       34.385971    1.891019   -0.801735
     98          6           0       33.204191    1.141499   -1.269319
     99          6           0       34.907665    2.851124    1.569990
    100          6           0       35.566550    2.344238   -1.654720
    101          8           0       35.574336    2.165475   -2.883025
    102          6           0       36.805432    2.847194   -1.024225
    103          7           0       30.675381   -0.181404   -2.607892
    104          6           0       31.783107    0.220229   -3.236803
    105          6           0       31.628206    0.089308   -4.786881
    106          6           0       30.358505   -0.813521   -4.895017
    107          6           0       29.811561   -0.820988   -3.501998
    108          6           0       31.568256    1.461660   -5.549453
    109          6           0       30.898363   -2.236467   -5.306103
    110          6           0       31.215716   -3.309796   -4.208551
    111          7           0       28.757954   -1.091947   -0.688702
    112          6           0       28.061443   -1.542868   -1.824593
    113          6           0       26.729370   -2.030982   -1.389049
    114          6           0       26.680529   -1.735684   -0.031686
    115          6           0       27.883449   -1.213122    0.393883
    116          6           0       25.714999   -2.370533   -2.371994
    117          6           0       25.746132   -1.712239    1.090988
    118          8           0       24.564174   -2.037302    1.094250
    119          6           0       26.573978   -1.130779    2.331309
    120          6           0       25.931667    0.087536    2.881648
    121          8           0       26.201903    1.247253    2.583065
    122          8           0       24.962217   -0.293679    3.828497
    123          6           0       24.128966    0.683100    4.492513
    124          1           0       33.001416    1.565065    2.960216
    125          1           0       33.622147    1.168758   -3.399071
    126          1           0       28.076414   -1.846336   -3.976744
    127          1           0       28.336397    0.440243    4.314017
    128          1           0       31.164908    0.191524    4.705345
    129          1           0       30.939486    2.269825    5.513723
    130          1           0       29.282325    2.273814    4.982489
    131          1           0       30.603373    2.820661    3.927684
    132          1           0       30.300868   -1.785102    4.787910
    133          1           0       28.832614   -2.137031    3.877185
    134          1           0       29.175892   -2.188864    6.728180
    135          1           0       27.744389   -2.374287    5.850182
    136          1           0       35.918121    2.442113    1.555503
    137          1           0       34.353845    2.937610    2.504321
    138          1           0       34.822655    3.852960    1.147859
    139          1           0       36.702499    3.844780   -0.596157
    140          1           0       37.586605    2.930035   -1.779634
    141          1           0       37.017618    2.212688   -0.164197
    142          1           0       32.579376   -0.401721   -4.992599
    143          1           0       29.681210   -0.470320   -5.677461
    144          1           0       32.555627    1.718179   -5.933606
    145          1           0       31.127569    2.181863   -4.860861
    146          1           0       30.877843    1.309988   -6.379000
    147          1           0       31.678140   -2.120368   -6.059080
    148          1           0       30.012445   -2.719785   -5.719066
    149          1           0       32.165716   -3.729324   -4.538334
    150          1           0       30.483212   -4.117375   -4.176631
    151          1           0       31.367856   -2.933066   -3.197681
    152          1           0       25.660830   -1.566464   -3.104807
    153          1           0       24.766225   -2.404956   -1.835551
    154          1           0       25.846019   -3.390083   -2.733544
    155          1           0       26.513017   -1.932643    3.067759
    156          1           0       23.154868    0.812704    4.021509
    157          1           0       24.695786    1.576317    4.755585
    158          1           0       24.033221    0.226521    5.478051
 ---------------------------------------------------------------------

 SCF Done:  E(RCAM-B3LYP) =  -4069.79727101     A.U. after   19 cycles

 Excitation energies and oscillator strengths:

 Excited State   1:      Singlet-A      1.6890 eV  734.07 nm  f=0.3591  <S**2>=0.000
     309 -> 315        0.16437
     311 -> 313        0.68793
     309 <- 315        0.10173
 This state for optimization and/or second-order correction.
 Total Energy, E(TD-HF/TD-DFT) =  -4069.73520137
 Copying the excited state density for this state as the 1-particle RhoCI density.

 Excited State   2:      Singlet-A      1.7491 eV  708.85 nm  f=0.3747  <S**2>=0.000
     310 -> 316       -0.18984
     312 -> 314        0.68132
     310 <- 316       -0.10804

 Excited State   3:      Singlet-A      2.2121 eV  560.48 nm  f=0.1068  <S**2>=0.000
     309 -> 313        0.64121
     311 -> 315       -0.27963

 Excited State   4:      Singlet-A      2.2728 eV  545.50 nm  f=0.0723  <S**2>=0.000
     310 -> 314        0.62313
     312 -> 316        0.32197

 Excited State   5:      Singlet-A      3.1038 eV  399.46 nm  f=0.0000  <S**2>=0.000
     312 -> 313        0.70711

 The electronic state is 1-A.
 Alpha  occ. eigenvalues --  -46.89212 -46.88488 -19.25548 -19.23962 -19.19865
 Alpha  occ. eigenvalues --  -19.19513 -19.19301 -19.19029 -19.18719 -19.17888
 Alpha  occ. eigenvalues --  -14.42107 -14.42102 -14.41896 -14.41267 -14.40300
 Alpha  occ. eigenvalues --  -14.39667 -14.38900 -14.38578 -10.39464 -10.38649
 Alpha  occ. eigenvalues --  -10.35746 -10.35357 -10.35269 -10.34060 -10.32304
 Alpha  occ. eigenvalues --  -10.31700 -10.31699 -10.31166 -10.30990 -10.30972
 Alpha  occ. eigenvalues --  -10.30751 -10.30671 -10.30434 -10.30371 -10.30297
 Alpha  occ. eigenvalues --  -10.30242 -10.30197 -10.29957 -10.29362 -10.29217
 Alpha  occ. eigenvalues --  -10.29170 -10.29011 -10.28853 -10.28771 -10.28380
 Alpha  occ. eigenvalues --  -10.28379 -10.28218 -10.28200 -10.28151 -10.28027
 Alpha  occ. eigenvalues --  -10.28023 -10.27838 -10.27766 -10.27676 -10.27574
 Alpha  occ. eigenvalues --  -10.27565 -10.27561 -10.27536 -10.27429 -10.27422
 Alpha  occ. eigenvalues --  -10.27376 -10.27264 -10.27248 -10.27222 -10.27157
 Alpha  occ. eigenvalues --  -10.27123 -10.27024 -10.26986 -10.26792 -10.26659
 Alpha  occ. eigenvalues --  -10.26646 -10.26603 -10.26573 -10.26490 -10.26412
 Alpha  occ. eigenvalues --  -10.26352 -10.26268 -10.26209 -10.26205 -10.25734
 Alpha  occ. eigenvalues --  -10.25321 -10.25293 -10.25261 -10.25075 -10.24678
 Alpha  occ. eigenvalues --  -10.24421  -3.17785  -3.17031  -1.92672  -1.92254
 Alpha  occ. eigenvalues --   -1.92076  -1.91938  -1.91498  -1.91318  -1.15936
 Alpha  occ. eigenvalues --   -1.14636  -1.11947  -1.09640  -1.09187  -1.08094
 Alpha  occ. eigenvalues --   -1.07228  -1.07041  -1.06414  -1.04741  -1.04580
 Alpha  occ. eigenvalues --   -1.04022  -1.03926  -1.03075  -1.02817  -1.01355
 Alpha  occ. eigenvalues --   -0.92486  -0.91961  -0.89864  -0.89721  -0.88679
 Alpha  occ. eigenvalues --   -0.88639  -0.88367  -0.88247  -0.87315  -0.87289
 Alpha  occ. eigenvalues --   -0.86867  -0.86716  -0.86618  -0.86165  -0.84289
 Alpha  occ. eigenvalues --   -0.84113  -0.83794  -0.83280  -0.82625  -0.82266
 Alpha  occ. eigenvalues --   -0.81973  -0.81818  -0.80904  -0.80812  -0.80419
 Alpha  occ. eigenvalues --   -0.80334  -0.78926  -0.78414  -0.77831  -0.77085
 Alpha  occ. eigenvalues --   -0.76835  -0.76796  -0.75960  -0.75766  -0.75481
 Alpha  occ. eigenvalues --   -0.74759  -0.72680  -0.72211  -0.72106  -0.71282
 Alpha  occ. eigenvalues --   -0.70477  -0.69302  -0.69215  -0.68890  -0.68141
 Alpha  occ. eigenvalues --   -0.67819  -0.67737  -0.66813  -0.66686  -0.65347
 Alpha  occ. eigenvalues --   -0.64982  -0.64841  -0.64658  -0.64449  -0.64438
 Alpha  occ. eigenvalues --   -0.64163  -0.62408  -0.61512  -0.60505  -0.60308
 Alpha  occ. eigenvalues --   -0.59612  -0.59341  -0.59173  -0.59022  -0.58791
 Alpha  occ. eigenvalues --   -0.58040  -0.57966  -0.57852  -0.57143  -0.56986
 Alpha  occ. eigenvalues --   -0.56680  -0.56256  -0.56198  -0.55659  -0.55468
 Alpha  occ. eigenvalues --   -0.55308  -0.55030  -0.54255  -0.54130  -0.53935
 Alpha  occ. eigenvalues --   -0.53828  -0.53577  -0.53301  -0.53130  -0.52936
 Alpha  occ. eigenvalues --   -0.52745  -0.52650  -0.52379  -0.52304  -0.51964
 Alpha  occ. eigenvalues --   -0.51787  -0.51691  -0.51476  -0.51282  -0.51222
 Alpha  occ. eigenvalues --   -0.51174  -0.50741  -0.50639  -0.50584  -0.50399
 Alpha  occ. eigenvalues --   -0.50200  -0.49906  -0.49882  -0.49761  -0.49679
 Alpha  occ. eigenvalues --   -0.49536  -0.49130  -0.49002  -0.48929  -0.48884
 Alpha  occ. eigenvalues --   -0.48613  -0.48502  -0.48363  -0.48329  -0.48057
 Alpha  occ. eigenvalues --   -0.47759  -0.47667  -0.47571  -0.47395  -0.47338
 Alpha  occ. eigenvalues --   -0.46926  -0.46913  -0.46802  -0.46655  -0.46273
 Alpha  occ. eigenvalues --   -0.46212  -0.46081  -0.45969  -0.45817  -0.45800
 Alpha  occ. eigenvalues --   -0.45368  -0.45366  -0.45093  -0.44994  -0.44654
 Alpha  occ. eigenvalues --   -0.44589  -0.44404  -0.44287  -0.44229  -0.44209
 Alpha  occ. eigenvalues --   -0.44197  -0.44025  -0.43971  -0.43907  -0.43639
 Alpha  occ. eigenvalues --   -0.43395  -0.43365  -0.43292  -0.43152  -0.42933
 Alpha  occ. eigenvalues --   -0.42907  -0.42595  -0.42529  -0.42173  -0.41951
 Alpha  occ. eigenvalues --   -0.41927  -0.41885  -0.41670  -0.41441  -0.41279
 Alpha  occ. eigenvalues --   -0.41149  -0.40997  -0.40754  -0.40640  -0.40321
 Alpha  occ. eigenvalues --   -0.40058  -0.39829  -0.39608  -0.39348  -0.38609
 Alpha  occ. eigenvalues --   -0.38554  -0.38273  -0.37724  -0.37695  -0.37399
 Alpha  occ. eigenvalues --   -0.37087  -0.36800  -0.36693  -0.36611  -0.36474
 Alpha  occ. eigenvalues --   -0.36097  -0.35658  -0.34954  -0.34152  -0.34012
 Alpha  occ. eigenvalues --   -0.33584  -0.33371  -0.33270  -0.31897  -0.31368
 Alpha  occ. eigenvalues --   -0.31173  -0.30936  -0.30799  -0.30585  -0.30131
 Alpha  occ. eigenvalues --   -0.30039  -0.29319  -0.28945  -0.24171  -0.23856
 Alpha  occ. eigenvalues --   -0.21150  -0.20759
 Alpha virt. eigenvalues --   -0.08786  -0.08119  -0.01788  -0.01681   0.00218
 Alpha virt. eigenvalues --    0.00261   0.01675   0.02209   0.02372   0.03353
 Alpha virt. eigenvalues --    0.04636   0.04854   0.05113   0.05757   0.05819

 Mulliken charges:
               1
     1  Mg   0.827948
     2  C    0.029842
     3  C   -0.080500
     4  C   -0.070065
     5  C   -0.085126
     6  N   -0.279641
     7  C   -0.085675
     8  C    0.013210
     9  C   -0.095840
    10  C    0.097081
    11  C    0.091205
    12  C    0.062614
    13  C   -0.075214
    14  H    0.013431
    15  N   -0.375434
    16  C    0.100321
    17  C   -0.121975
    18  C   -0.020112
    19  C    0.147712
    20  C    0.133010
    21  C   -0.028650
    22  O   -0.181301
    23  C    0.044391
    24  N   -0.219555
    25  C   -0.003962
    26  C   -0.028901
    27  C    0.001884
    28  C   -0.020737
    29  C    0.065834
    30  C    0.026742
    31  C   -0.008590
    32  N   -0.362105
    33  C    0.142926
    34  C   -0.189896
    35  C    0.039481
    36  C    0.070814
    37  C    0.143853
    38  C    0.011190
    39  O   -0.189826
    40  C    0.005475
    41  C    0.179209
    42  O   -0.228201
    43  O   -0.342858
    44  C    0.180406
    45  H   -0.022454
    46  H   -0.067123
    47  H   -0.047004
    48  H    0.007634
    49  H    0.015471
    50  H    0.019120
    51  H    0.006660
    52  H    0.019679
    53  H    0.017314
    54  H    0.008055
    55  H    0.035240
    56  H    0.040864
    57  H    0.046014
    58  H   -0.003624
    59  H    0.028827
    60  H    0.045395
    61  H    0.039470
    62  H    0.024599
    63  H    0.020012
    64  H    0.015936
    65  H    0.008863
    66  H    0.036927
    67  H    0.015493
    68  H    0.016347
    69  H    0.011557
    70  H    0.016003
    71  H    0.015038
    72  H    0.022410
    73  H    0.021514
    74  H    0.042228
    75  H    0.041822
    76  H    0.048104
    77  H    0.046365
    78  H    0.028323
    79  H    0.044507
    80  Mg   0.821070
    81  C    0.030429
    82  C   -0.107813
    83  C   -0.061728
    84  C   -0.079836
    85  N   -0.200744
    86  C   -0.088547
    87  C   -0.039370
    88  C   -0.030710
    89  C    0.038617
    90  C    0.062999
    91  C    0.035486
    92  C   -0.045793
    93  H    0.027970
    94  N   -0.333875
    95  C    0.142438
    96  C   -0.171148
    97  C   -0.048875
    98  C    0.118342
    99  C    0.141188
   100  C    0.013183
   101  O   -0.220268
   102  C    0.057294
   103  N   -0.336854
   104  C    0.016377
   105  C   -0.060048
   106  C    0.004128
   107  C    0.025637
   108  C    0.091677
   109  C   -0.015098
   110  C    0.015165
   111  N   -0.395363
   112  C    0.152211
   113  C   -0.185221
   114  C    0.030589
   115  C    0.122653
   116  C    0.129678
   117  C    0.041178
   118  O   -0.160922
   119  C   -0.039298
   120  C    0.232551
   121  O   -0.216970
   122  O   -0.361699
   123  C    0.186984
   124  H   -0.014582
   125  H   -0.010702
   126  H   -0.032453
   127  H    0.024582
   128  H    0.002106
   129  H    0.002997
   130  H    0.024003
   131  H    0.005972
   132  H    0.006715
   133  H    0.011628
   134  H    0.020925
   135  H    0.030092
   136  H    0.040051
   137  H    0.014424
   138  H    0.038047
   139  H    0.028231
   140  H    0.036991
   141  H    0.029777
   142  H    0.014464
   143  H    0.008530
   144  H    0.034311
   145  H    0.027500
   146  H    0.007525
   147  H    0.020649
   148  H    0.002255
   149  H    0.010454
   150  H    0.021430
   151  H    0.027514
   152  H    0.036509
   153  H    0.019153
   154  H    0.021717
   155  H    0.045247
   156  H    0.053696
   157  H    0.030209
   158  H    0.022371
 Sum of Mulliken charges =  -0.00000

 Dipole moment (field-independent basis, Debye):
    X=             -1.3004    Y=              2.6638    Z=              3.9613  Tot=              4.9476
 Quadrupole moment (field-independent basis, Debye-Ang):
   XX=             27.1877   YY=           -550.7035   ZZ=           -478.0227
   XY=            -28.6339   XZ=             42.4660   YZ=             12.2536

 Normal termination of Gaussian 16 at Thu Sep 16 03:06:35 2021.
