 Gaussian 16, Revision A.03,
 Gaussian 16:  ES64L-G16RevA.03 25-Dec-2016

 ----------------------------------------------------------
 #p cam-b3lyp/Def2SVP td=(nstates=5) density=(transition=1)
 ----------------------------------------------------------

 --------------------------------
 TDDFT excited states in gaussian
 --------------------------------
 Symbolic Z-matrix:
 Charge =  0 Multiplicity = 1

                         Standard orientation:
 ---------------------------------------------------------------------
 Center     Atomic      Atomic             Coordinates (Angstroms)
 Number     Number       Type             X           Y           Z
 ---------------------------------------------------------------------
      1         12           0        8.175855   -1.113875   -0.161735
      2          6           0       10.269351    1.807008   -0.096439
      3          6           0        5.433384    1.119169    0.089770
      4          6           0        5.964687   -3.815573   -0.072975
      5          6           0       10.835997   -3.128233    0.000471
      6          7           0        7.952213    1.270510    0.191935
      7          6           0        8.931236    2.190572    0.056630
      8          6           0        8.343946    3.632170    0.268930
      9          6           0        6.834251    3.288991    0.532932
     10          6           0        6.682011    1.792427    0.176479
     11          6           0        6.391054    3.635720    1.997146
     12          6           0        8.540470    4.551025   -0.936621
     13          6           0        8.986598    5.944858   -0.638624
     14          1           0        9.298173    6.887531   -1.810026
     15          7           0        6.048327   -1.346661   -0.221631
     16          6           0        5.131919   -0.307460   -0.099596
     17          6           0        3.799112   -0.871251   -0.181777
     18          6           0        3.901298   -2.244664   -0.328966
     19          6           0        5.359449   -2.545099   -0.131681
     20          6           0        2.528691   -0.096298    0.019687
     21          6           0        2.789959   -3.366615   -0.445428
     22          8           0        2.953065   -4.555729   -0.569995
     23          6           0        1.344565   -2.940257   -0.584347
     24          7           0        8.324469   -3.116868    0.095172
     25          6           0        7.343405   -4.073849    0.104736
     26          6           0        7.894064   -5.471823    0.471198
     27          6           0        9.456426   -5.296916    0.248033
     28          6           0        9.540651   -3.732930    0.070522
     29          6           0        7.466917   -5.941915    1.898475
     30          6           0       10.026639   -6.075213   -0.976604
     31          6           0        9.575485   -5.575300   -2.347135
     32          7           0       10.123639   -0.817739   -0.037714
     33          6           0       11.178971   -1.771955   -0.044148
     34          6           0       12.476858   -1.102511    0.006410
     35          6           0       12.159280    0.265640   -0.067139
     36          6           0       10.746780    0.406823   -0.105032
     37          6           0       13.780020   -1.755273    0.047445
     38          6           0       12.794178    1.579333   -0.095644
     39          8           0       13.978430    1.867898   -0.137605
     40          6           0       11.588264    2.662587   -0.025751
     41          6           0       11.938523    3.513166   -1.249078
     42          8           0       11.824495    3.219768   -2.452839
     43          8           0       12.470529    4.650815   -0.837349
     44          6           0       12.644310    5.790715   -1.826466
     45          1           0        4.595652    1.819200    0.092346
     46          1           0        5.352807   -4.720347   -0.038440
     47          1           0       11.659688   -3.844397   -0.021969
     48          1           0        8.938954    4.044191    1.083285
     49          1           0        6.174620    3.816819   -0.157130
     50          1           0        5.530048    4.297418    2.091608
     51          1           0        7.211090    3.933306    2.650937
     52          1           0        5.959310    2.817734    2.574296
     53          1           0        7.506114    4.792950   -1.181560
     54          1           0        9.043649    4.062851   -1.771975
     55          1           0        9.813326    6.116348    0.052638
     56          1           0        8.115919    6.377258   -0.145501
     57          1           0        2.719016    0.976020    0.056443
     58          1           0        1.965031   -0.354187    0.917633
     59          1           0        1.790979   -0.185123   -0.777973
     60          1           0        1.176166   -2.324656   -1.467896
     61          1           0        1.177544   -2.433789    0.366335
     62          1           0        0.801820   -3.883192   -0.517748
     63          1           0        7.365043   -6.141227   -0.208049
     64          1           0       10.098828   -5.359587    1.126658
     65          1           0        6.766378   -6.776585    1.873902
     66          1           0        7.102275   -5.192212    2.599798
     67          1           0        8.428848   -6.250996    2.307848
     68          1           0        9.953070   -7.138777   -0.749194
     69          1           0       11.105866   -5.923335   -0.980616
     70          1           0        8.813523   -4.796727   -2.343099
     71          1           0        9.139489   -6.442368   -2.842699
     72          1           0       10.333968   -5.063278   -2.938165
     73          1           0       14.633745   -1.078623    0.089960
     74          1           0       13.820662   -2.358096   -0.859692
     75          1           0       13.779251   -2.433963    0.901549
     76          1           0       11.695232    3.347817    0.815133
     77          1           0       12.781001    6.686674   -1.220529
     78          1           0       11.750623    5.975943   -2.421608
     79          1           0       13.454762    5.629161   -2.538168
     80         12           0       -8.640762   -0.332320   -0.321803
     81          6           0       -6.601760    2.403724    0.833759
     82          6           0      -10.614841    1.851461   -1.899748
     83          6           0      -10.902747   -2.791666   -0.578305
     84          6           0       -6.734716   -2.399144    1.775693
     85          7           0       -8.624956    1.839077   -0.450614
     86          6           0       -7.619204    2.748653   -0.081799
     87          6           0       -7.871300    4.170801   -0.713067
     88          6           0       -9.189970    3.952689   -1.515004
     89          6           0       -9.477490    2.438950   -1.329746
     90          6           0      -10.377223    4.802609   -1.139417
     91          6           0       -6.607598    4.707726   -1.575622
     92          6           0       -6.104182    6.105978   -1.196658
     93          1           0       -6.125395    7.137253   -2.385514
     94          7           0      -10.454380   -0.486547   -1.256092
     95          6           0      -11.123783    0.507503   -1.848504
     96          6           0      -12.410825    0.051185   -2.376133
     97          6           0      -12.518472   -1.298181   -1.891815
     98          6           0      -11.266293   -1.590640   -1.186406
     99          6           0      -13.311031    0.903479   -3.163186
    100          6           0      -13.803358   -2.172440   -2.038642
    101          8           0      -13.838678   -3.335636   -1.673582
    102          6           0      -15.065518   -1.659578   -2.655325
    103          7           0       -8.771211   -2.245810    0.464321
    104          6           0       -9.775067   -3.135390    0.096754
    105          6           0       -9.516852   -4.553809    0.703049
    106          6           0       -8.008910   -4.472178    1.147771
    107          6           0       -7.784139   -2.961684    1.082600
    108          6           0      -10.538415   -5.094993    1.755636
    109          6           0       -7.027923   -5.231915    0.213350
    110          6           0       -5.880555   -5.990656    0.831067
    111          7           0       -7.035194   -0.079606    1.075753
    112          6           0       -6.384062   -1.009039    1.836111
    113          6           0       -5.188433   -0.336166    2.508821
    114          6           0       -5.209696    0.976480    2.103560
    115          6           0       -6.388555    1.102867    1.291412
    116          6           0       -4.180413   -1.099886    3.337116
    117          6           0       -4.587447    2.285415    2.192976
    118          8           0       -3.556002    2.525961    2.854610
    119          6           0       -5.559784    3.352724    1.408541
    120          6           0       -6.227166    4.378146    2.301098
    121          8           0       -6.896992    4.023843    3.291378
    122          8           0       -5.851428    5.685193    1.988266
    123          6           0       -6.137651    6.617513    3.072432
    124          1           0      -11.240575    2.490370   -2.526077
    125          1           0      -11.663822   -3.551648   -0.765329
    126          1           0       -6.117647   -3.126496    2.308209
    127          1           0       -7.989941    4.799473    0.169209
    128          1           0       -8.969348    4.335521   -2.512380
    129          1           0      -10.183599    5.460833   -0.292344
    130          1           0      -11.027837    4.026392   -0.737994
    131          1           0      -10.738024    5.426097   -1.958010
    132          1           0       -6.982985    4.667621   -2.597777
    133          1           0       -5.815428    3.960122   -1.544809
    134          1           0       -5.116171    5.971186   -0.756473
    135          1           0       -6.753583    6.522563   -0.425637
    136          1           0      -14.340725    1.056293   -2.841466
    137          1           0      -13.520476    0.318290   -4.057889
    138          1           0      -12.861401    1.807270   -3.574984
    139          1           0      -14.792482   -1.396511   -3.677963
    140          1           0      -15.306562   -0.729798   -2.139292
    141          1           0      -15.795792   -2.459126   -2.537184
    142          1           0       -9.582816   -5.215865   -0.160367
    143          1           0       -7.859375   -4.742845    2.192723
    144          1           0      -11.342010   -4.358949    1.747928
    145          1           0      -10.112027   -5.277211    2.741677
    146          1           0      -11.060882   -5.984369    1.401133
    147          1           0       -6.674678   -4.370633   -0.353344
    148          1           0       -7.503763   -5.905239   -0.499903
    149          1           0       -5.829490   -6.934334    0.287834
    150          1           0       -6.044572   -6.235899    1.880874
    151          1           0       -4.977796   -5.453831    0.538569
    152          1           0       -4.511898   -2.137640    3.368040
    153          1           0       -4.240725   -0.735924    4.362541
    154          1           0       -3.180030   -0.937778    2.936307
    155          1           0       -4.982112    3.816197    0.608793
    156          1           0       -5.264261    7.020109    3.583589
    157          1           0       -6.806988    6.221191    3.836122
    158          1           0       -6.666298    7.454855    2.617644
 ---------------------------------------------------------------------

 SCF Done:  E(RCAM-B3LYP) =  -4069.78399637     A.U. after   19 cycles

 Excitation energies and oscillator strengths:

 Excited State   1:      Singlet-A      1.6468 eV  752.88 nm  f=0.5800  <S**2>=0.000
     310 -> 315        0.17610
     311 -> 314        0.17386
     312 -> 313        0.62188
     312 -> 314        0.22273
     310 <- 315        0.10817
 This state for optimization and/or second-order correction.
 Total Energy, E(TD-HF/TD-DFT) =  -4069.72347767
 Copying the excited state density for this state as the 1-particle RhoCI density.

 Excited State   2:      Singlet-A      1.6993 eV  729.61 nm  f=0.2499  <S**2>=0.000
     309 -> 316        0.16743
     311 -> 313       -0.22411
     311 -> 314        0.62424
     312 -> 313       -0.17112
     309 <- 316        0.10411

 Excited State   3:      Singlet-A      2.2170 eV  559.24 nm  f=0.0831  <S**2>=0.000
     310 -> 313        0.58882
     310 -> 314        0.21113
     312 -> 315       -0.32031

 Excited State   4:      Singlet-A      2.2853 eV  542.53 nm  f=0.0916  <S**2>=0.000
     309 -> 313       -0.21278
     309 -> 314        0.59330
     311 -> 316       -0.31203

 Excited State   5:      Singlet-A      2.7607 eV  449.10 nm  f=0.0000  <S**2>=0.000
     312 -> 313       -0.23853
     312 -> 314        0.66525

 The electronic state is 1-A.
 Alpha  occ. eigenvalues --  -46.88542 -46.88194 -19.26898 -19.24863 -19.21048
 Alpha  occ. eigenvalues --  -19.20153 -19.19452 -19.19272 -19.18681 -19.17920
 Alpha  occ. eigenvalues --  -14.42730 -14.42362 -14.41805 -14.41447 -14.40003
 Alpha  occ. eigenvalues --  -14.39853 -14.39580 -14.39527 -10.41033 -10.38384
 Alpha  occ. eigenvalues --  -10.36730 -10.35527 -10.35300 -10.35059 -10.32134
 Alpha  occ. eigenvalues --  -10.31939 -10.31749 -10.31293 -10.31274 -10.31133
 Alpha  occ. eigenvalues --  -10.31130 -10.31002 -10.30935 -10.30804 -10.30539
 Alpha  occ. eigenvalues --  -10.30475 -10.30281 -10.30163 -10.29951 -10.29898
 Alpha  occ. eigenvalues --  -10.29809 -10.29678 -10.29303 -10.29195 -10.29040
 Alpha  occ. eigenvalues --  -10.28777 -10.28732 -10.28680 -10.28643 -10.28462
 Alpha  occ. eigenvalues --  -10.28405 -10.28334 -10.28299 -10.28294 -10.28251
 Alpha  occ. eigenvalues --  -10.28219 -10.28185 -10.28023 -10.27879 -10.27589
 Alpha  occ. eigenvalues --  -10.27479 -10.27475 -10.27433 -10.27382 -10.27215
 Alpha  occ. eigenvalues --  -10.27187 -10.27105 -10.26771 -10.26691 -10.26661
 Alpha  occ. eigenvalues --  -10.26522 -10.26370 -10.26263 -10.26045 -10.26015
 Alpha  occ. eigenvalues --  -10.25999 -10.25992 -10.25935 -10.25905 -10.25658
 Alpha  occ. eigenvalues --  -10.25649 -10.25643 -10.25499 -10.25373 -10.25347
 Alpha  occ. eigenvalues --  -10.25321  -3.17194  -3.16885  -1.92075  -1.91771
 Alpha  occ. eigenvalues --   -1.91632  -1.91522  -1.91357  -1.91190  -1.16542
 Alpha  occ. eigenvalues --   -1.15864  -1.11393  -1.10242  -1.09945  -1.09275
 Alpha  occ. eigenvalues --   -1.08157  -1.05205  -1.04083  -1.03695  -1.03464
 Alpha  occ. eigenvalues --   -1.03021  -1.02800  -1.02117  -1.02045  -1.01601
 Alpha  occ. eigenvalues --   -0.92818  -0.90765  -0.89251  -0.89141  -0.88908
 Alpha  occ. eigenvalues --   -0.88671  -0.88173  -0.87896  -0.87504  -0.87379
 Alpha  occ. eigenvalues --   -0.87254  -0.86848  -0.86340  -0.86299  -0.84455
 Alpha  occ. eigenvalues --   -0.84014  -0.83802  -0.83505  -0.82872  -0.82264
 Alpha  occ. eigenvalues --   -0.82067  -0.81429  -0.81383  -0.80942  -0.80403
 Alpha  occ. eigenvalues --   -0.80075  -0.78593  -0.78011  -0.77756  -0.77221
 Alpha  occ. eigenvalues --   -0.77107  -0.76836  -0.76381  -0.75865  -0.75025
 Alpha  occ. eigenvalues --   -0.74862  -0.72626  -0.72495  -0.71544  -0.71130
 Alpha  occ. eigenvalues --   -0.69991  -0.69160  -0.68646  -0.68535  -0.68090
 Alpha  occ. eigenvalues --   -0.67434  -0.66871  -0.66184  -0.65480  -0.65379
 Alpha  occ. eigenvalues --   -0.65154  -0.65066  -0.65034  -0.64526  -0.64472
 Alpha  occ. eigenvalues --   -0.63962  -0.62769  -0.61694  -0.60444  -0.59947
 Alpha  occ. eigenvalues --   -0.59492  -0.59177  -0.59114  -0.58835  -0.58678
 Alpha  occ. eigenvalues --   -0.58510  -0.57604  -0.57478  -0.57274  -0.56421
 Alpha  occ. eigenvalues --   -0.56153  -0.55616  -0.55537  -0.55401  -0.55292
 Alpha  occ. eigenvalues --   -0.55098  -0.54937  -0.54590  -0.53905  -0.53875
 Alpha  occ. eigenvalues --   -0.53666  -0.53307  -0.53249  -0.53090  -0.52801
 Alpha  occ. eigenvalues --   -0.52760  -0.52628  -0.52593  -0.52348  -0.52037
 Alpha  occ. eigenvalues --   -0.51999  -0.51750  -0.51669  -0.51420  -0.51401
 Alpha  occ. eigenvalues --   -0.51297  -0.50997  -0.50878  -0.50809  -0.50391
 Alpha  occ. eigenvalues --   -0.50008  -0.49813  -0.49702  -0.49558  -0.49509
 Alpha  occ. eigenvalues --   -0.49311  -0.49182  -0.49127  -0.48955  -0.48866
 Alpha  occ. eigenvalues --   -0.48772  -0.48559  -0.48484  -0.48351  -0.48307
 Alpha  occ. eigenvalues --   -0.48108  -0.48031  -0.47417  -0.47404  -0.47365
 Alpha  occ. eigenvalues --   -0.47168  -0.46909  -0.46648  -0.46603  -0.46553
 Alpha  occ. eigenvalues --   -0.46244  -0.46190  -0.46114  -0.46092  -0.45834
 Alpha  occ. eigenvalues --   -0.45723  -0.45542  -0.45405  -0.45147  -0.44817
 Alpha  occ. eigenvalues --   -0.44751  -0.44499  -0.44326  -0.44312  -0.44195
 Alpha  occ. eigenvalues --   -0.44076  -0.43970  -0.43869  -0.43765  -0.43533
 Alpha  occ. eigenvalues --   -0.43425  -0.43383  -0.43171  -0.43039  -0.43025
 Alpha  occ. eigenvalues --   -0.42896  -0.42873  -0.42843  -0.42421  -0.42034
 Alpha  occ. eigenvalues --   -0.41893  -0.41839  -0.41716  -0.41315  -0.41289
 Alpha  occ. eigenvalues --   -0.40896  -0.40825  -0.40670  -0.40338  -0.40300
 Alpha  occ. eigenvalues --   -0.40094  -0.39657  -0.39476  -0.39267  -0.39096
 Alpha  occ. eigenvalues --   -0.38557  -0.38441  -0.37977  -0.37948  -0.37613
 Alpha  occ. eigenvalues --   -0.37586  -0.37418  -0.36585  -0.36526  -0.36259
 Alpha  occ. eigenvalues --   -0.35970  -0.35551  -0.35346  -0.34595  -0.33798
 Alpha  occ. eigenvalues --   -0.33054  -0.33030  -0.32641  -0.31766  -0.31569
 Alpha  occ. eigenvalues --   -0.31342  -0.30911  -0.30829  -0.30709  -0.30570
 Alpha  occ. eigenvalues --   -0.30258  -0.29939  -0.29883  -0.24331  -0.24007
 Alpha  occ. eigenvalues --   -0.20939  -0.20857
 Alpha virt. eigenvalues --   -0.08598  -0.08598  -0.01936  -0.01477  -0.00244
 Alpha virt. eigenvalues --    0.00751   0.01623   0.02174   0.02478   0.02609
 Alpha virt. eigenvalues --    0.03494   0.04358   0.05255   0.05358   0.05379

 Mulliken charges:
               1
     1  Mg  12.000876
     2  C    5.978980
     3  C    6.022187
     4  C    6.027531
     5  C    5.993050
     6  N    6.991176
     7  C    6.028146
     8  C    5.995389
     9  C    6.006028
    10  C    5.968086
    11  C    6.002601
    12  C    5.994433
    13  C    5.998052
    14  H    1.000873
    15  N    7.009618
    16  C    5.950294
    17  C    5.985878
    18  C    5.982318
    19  C    5.957743
    20  C    6.007085
    21  C    5.988308
    22  O    7.974824
    23  C    6.003417
    24  N    7.011836
    25  C    5.959067
    26  C    6.006931
    27  C    5.995977
    28  C    6.032398
    29  C    6.005159
    30  C    5.994616
    31  C    5.993256
    32  N    6.994467
    33  C    6.039496
    34  C    6.027533
    35  C    6.004137
    36  C    6.034749
    37  C    5.997957
    38  C    6.014035
    39  O    8.027529
    40  C    6.002742
    41  C    6.003391
    42  O    8.004899
    43  O    8.000120
    44  C    5.997627
    45  H    0.989742
    46  H    0.994180
    47  H    1.012498
    48  H    0.996573
    49  H    1.001066
    50  H    0.996913
    51  H    0.987662
    52  H    1.001954
    53  H    1.009327
    54  H    0.996558
    55  H    0.996863
    56  H    1.005549
    57  H    0.982185
    58  H    0.978849
    59  H    0.980614
    60  H    0.992763
    61  H    0.994037
    62  H    0.985891
    63  H    1.002508
    64  H    0.997756
    65  H    1.000117
    66  H    1.000998
    67  H    0.986843
    68  H    1.010338
    69  H    0.996200
    70  H    1.011186
    71  H    1.008580
    72  H    0.996084
    73  H    1.015047
    74  H    1.018118
    75  H    1.018164
    76  H    1.008637
    77  H    1.004551
    78  H    1.005126
    79  H    1.001710
    80  Mg  11.999548
    81  C    5.992614
    82  C    6.005228
    83  C    6.004574
    84  C    5.994588
    85  N    6.998195
    86  C    6.010760
    87  C    5.996979
    88  C    6.003786
    89  C    5.991047
    90  C    6.000445
    91  C    5.998561
    92  C    5.999559
    93  H    1.001527
    94  N    7.002295
    95  C    5.987977
    96  C    5.993295
    97  C    5.996614
    98  C    5.988307
    99  C    6.002468
   100  C    5.996327
   101  O    7.993287
   102  C    6.000606
   103  N    6.999910
   104  C    5.991785
   105  C    6.002376
   106  C    5.997443
   107  C    6.008502
   108  C    5.999669
   109  C    5.999439
   110  C    5.999137
   111  N    6.999086
   112  C    6.012318
   113  C    6.009387
   114  C    6.001366
   115  C    6.010233
   116  C    5.998528
   117  C    6.005694
   118  O    8.009637
   119  C    6.001032
   120  C    6.001297
   121  O    8.000409
   122  O    8.000891
   123  C    5.999507
   124  H    0.997004
   125  H    0.997237
   126  H    1.003298
   127  H    1.000028
   128  H    0.998008
   129  H    0.996106
   130  H    1.001591
   131  H    0.998668
   132  H    1.002856
   133  H    1.000232
   134  H    0.999773
   135  H    0.999918
   136  H    0.992732
   137  H    0.994001
   138  H    0.994312
   139  H    0.998291
   140  H    0.998382
   141  H    0.995355
   142  H    0.999651
   143  H    0.999480
   144  H    1.001016
   145  H    0.996459
   146  H    0.998843
   147  H    1.000699
   148  H    1.002707
   149  H    1.000901
   150  H    0.999616
   151  H    1.001492
   152  H    1.005108
   153  H    1.004723
   154  H    1.009955
   155  H    1.003220
   156  H    1.000579
   157  H    1.000401
   158  H    1.001128
 Sum of Mulliken charges = 624.00000

 Dipole moment (field-independent basis, Debye):
    X=             13.4989    Y=              1.2674    Z=              1.3807  Tot=             13.6284
 Quadrupole moment (field-independent basis, Debye-Ang):
   XX=            117.6300   YY=              0.9713   ZZ=              0.0540
   XY=             -7.9559   XZ=            -17.4835   YZ=             -0.5849

 Normal termination of Gaussian 16 at Wed Sep 22 11:21:35 2021.
