 Gaussian 16, Revision A.03,
 Gaussian 16:  ES64L-G16RevA.03 25-Dec-2016

 ---------------------------------------------------
 #p cam-b3lyp/Def2SVP td=(nstates=5) density=(CIS=1)
 ---------------------------------------------------

 --------------------------------
 TDDFT excited states in gaussian
 --------------------------------
 Symbolic Z-matrix:
 Charge =  0 Multiplicity = 1

                         Standard orientation:
 ---------------------------------------------------------------------
 Center     Atomic      Atomic             Coordinates (Angstroms)
 Number     Number       Type             X           Y           Z
 ---------------------------------------------------------------------
      1         12           0       -0.698684    0.104617    0.126591
      2          6           0        2.722280    0.309396    0.284228
      3          6           0       -0.427539   -3.312761    0.052844
      4          6           0       -4.148732   -0.119959   -0.147061
      5          6           0       -0.890924    3.546606   -0.242352
      6          7           0        0.977712   -1.386847    0.112517
      7          6           0        2.281602   -1.015176    0.277317
      8          6           0        3.149566   -2.176584    0.351772
      9          6           0        2.252036   -3.372497    0.075635
     10          6           0        0.817194   -2.685825    0.037185
     11          6           0        2.530607   -4.247384   -1.195156
     12          6           0        3.900527   -2.252016    1.724688
     13          6           0        5.341676   -2.869253    1.715799
     14          1           0        5.652721   -3.916259    0.628295
     15          7           0       -2.082430   -1.527224    0.090337
     16          6           0       -1.737616   -2.867935    0.086265
     17          6           0       -2.971521   -3.677879    0.031941
     18          6           0       -4.092085   -2.741260   -0.021692
     19          6           0       -3.479019   -1.401723   -0.003980
     20          6           0       -3.007881   -5.196979   -0.004546
     21          6           0       -5.566873   -3.064711    0.034790
     22          8           0       -6.388907   -2.131914    0.059072
     23          6           0       -6.132554   -4.435488    0.029028
     24          7           0       -2.301452    1.496159   -0.232932
     25          6           0       -3.591745    1.149411   -0.240878
     26          6           0       -4.491093    2.395840   -0.288960
     27          6           0       -3.471969    3.641456   -0.064113
     28          6           0       -2.128881    2.830662   -0.102811
     29          6           0       -5.312509    2.453386   -1.613699
     30          6           0       -3.622832    4.393454    1.286646
     31          6           0       -4.153975    5.831639    1.192322
     32          7           0        0.623417    1.663423   -0.036040
     33          6           0        0.411930    3.034314   -0.200233
     34          6           0        1.706869    3.749977   -0.226698
     35          6           0        2.613949    2.677907   -0.054378
     36          6           0        1.913630    1.446001    0.045637
     37          6           0        1.949047    5.174773   -0.330687
     38          6           0        4.042661    2.369117    0.161444
     39          8           0        5.007806    3.079522    0.259229
     40          6           0        4.158381    0.813923    0.344900
     41          6           0        5.142000    0.303503   -0.623467
     42          8           0        4.866889    0.262552   -1.833494
     43          8           0        6.268249   -0.226074   -0.071853
     44          6           0        7.204681   -0.937297   -0.936383
     45          1           0       -0.306630   -4.397854    0.032289
     46          1           0       -5.230096   -0.212289   -0.269812
     47          1           0       -1.007850    4.632176   -0.231488
     48          1           0        3.888406   -2.092558   -0.445941
     49          1           0        2.159179   -4.010463    0.955314
     50          1           0        3.364647   -4.039168   -1.866110
     51          1           0        1.627411   -4.246453   -1.804858
     52          1           0        2.624819   -5.311551   -0.977479
     53          1           0        3.265170   -2.742310    2.462372
     54          1           0        3.890436   -1.263662    2.183820
     55          1           0        5.559228   -3.322041    2.683555
     56          1           0        6.115655   -2.136470    1.489501
     57          1           0       -2.031363   -5.656163    0.145377
     58          1           0       -3.347439   -5.558083   -0.975729
     59          1           0       -3.542468   -5.578624    0.865135
     60          1           0       -7.207392   -4.323148    0.167930
     61          1           0       -5.718367   -5.081373    0.804331
     62          1           0       -5.846857   -4.941613   -0.893256
     63          1           0       -5.106881    2.373902    0.610258
     64          1           0       -3.479626    4.343070   -0.898174
     65          1           0       -6.375861    2.635966   -1.458053
     66          1           0       -5.234347    1.512801   -2.159626
     67          1           0       -4.816316    3.230218   -2.195927
     68          1           0       -2.691899    4.460799    1.848369
     69          1           0       -4.287996    3.867617    1.971945
     70          1           0       -4.784341    5.927931    0.308241
     71          1           0       -3.299232    6.497465    1.077438
     72          1           0       -4.620449    6.053460    2.151281
     73          1           0        2.943163    5.460425    0.012456
     74          1           0        1.222792    5.776597    0.215277
     75          1           0        2.027872    5.418132   -1.390345
     76          1           0        4.496172    0.754973    1.380118
     77          1           0        7.701226   -0.306811   -1.674473
     78          1           0        6.733831   -1.810883   -1.387114
     79          1           0        8.028551   -1.324239   -0.336906
 ---------------------------------------------------------------------

 SCF Done:  E(RCAM-B3LYP) =  -2034.94413259     A.U. after   19 cycles

 Excitation energies and oscillator strengths:

 Excited State   1:      Singlet-A      1.7299 eV  716.71 nm  f=0.0000  <S**2>=0.000
     155 ->158         0.18872
     156 ->157         0.68238
     155 <-158         0.10888
 This state for optimization and/or second-order correction.
 Total Energy, E(TD-HF/TD-DFT) =  -2034.88055994
 Copying the excited state density for this state as the 1-particle RhoCI density.

 Excited State   2:      Singlet-A      2.2550 eV  549.81 nm  f=0.0000  <S**2>=0.000
     155 ->157         0.62546
     156 ->158        -0.31649

 Excited State   3:      Singlet-A      3.4111 eV  363.47 nm  f=0.0000  <S**2>=0.000
     154 ->157         0.55352
     155 ->157         0.15562
     156 ->158         0.39314

 Excited State   4:      Singlet-A      3.5360 eV  350.64 nm  f=0.0000  <S**2>=0.000
     152 ->157         0.10801
     153 ->157         0.28776
     154 ->157        -0.38978
     155 ->157         0.22588
     156 ->158         0.42763

 Excited State   5:      Singlet-A      3.6451 eV  340.14 nm  f=0.0000  <S**2>=0.000
     150 ->157         0.34339
     150 ->158         0.11119
     150 ->159         0.19564
     150 ->160        -0.14901
     151 ->157         0.26133
     151 ->158         0.11679
     151 ->159         0.24964
     151 ->160        -0.10265
     152 ->157         0.28502
     152 ->160        -0.10637
     153 ->157         0.12240

 The electronic state is 1-A.
 Alpha  occ. eigenvalues --  -46.88890 -19.25976 -19.19304 -19.19048 -19.18370
 Alpha  occ. eigenvalues --  -14.41833 -14.41726 -14.39495 -14.39249 -10.39563
 Alpha  occ. eigenvalues --  -10.34966 -10.34855 -10.32321 -10.30918 -10.30652
 Alpha  occ. eigenvalues --  -10.30614 -10.30419 -10.30110 -10.30021 -10.29924
 Alpha  occ. eigenvalues --  -10.29309 -10.29157 -10.28698 -10.28399 -10.28285
 Alpha  occ. eigenvalues --  -10.28006 -10.27905 -10.27771 -10.27530 -10.27462
 Alpha  occ. eigenvalues --  -10.27394 -10.27383 -10.27222 -10.26992 -10.26488
 Alpha  occ. eigenvalues --  -10.26108 -10.26072 -10.26070 -10.26020 -10.26014
 Alpha  occ. eigenvalues --  -10.25514 -10.25359 -10.25256  -3.17313  -1.92234
 Alpha  occ. eigenvalues --   -1.91752  -1.91620  -1.16441  -1.10951  -1.08924
 Alpha  occ. eigenvalues --   -1.07129  -1.05124  -1.04055  -1.03379  -1.00961
 Alpha  occ. eigenvalues --   -0.92491  -0.89131  -0.88284  -0.87712  -0.87197
 Alpha  occ. eigenvalues --   -0.86737  -0.86262  -0.83949  -0.83569  -0.82329
 Alpha  occ. eigenvalues --   -0.81877  -0.81219  -0.80554  -0.78440  -0.77559
 Alpha  occ. eigenvalues --   -0.77312  -0.76240  -0.74894  -0.72600  -0.71511
 Alpha  occ. eigenvalues --   -0.69243  -0.68359  -0.68032  -0.66923  -0.65840
 Alpha  occ. eigenvalues --   -0.65449  -0.65031  -0.64331  -0.62728  -0.59853
 Alpha  occ. eigenvalues --   -0.59591  -0.59223  -0.58754  -0.58226  -0.57291
 Alpha  occ. eigenvalues --   -0.56054  -0.55969  -0.55345  -0.54724  -0.53977
 Alpha  occ. eigenvalues --   -0.53450  -0.52925  -0.52787  -0.52417  -0.52218
 Alpha  occ. eigenvalues --   -0.51664  -0.51507  -0.51282  -0.51170  -0.50210
 Alpha  occ. eigenvalues --   -0.49963  -0.49845  -0.49371  -0.48994  -0.48540
 Alpha  occ. eigenvalues --   -0.48476  -0.48114  -0.47952  -0.47473  -0.47200
 Alpha  occ. eigenvalues --   -0.47107  -0.46699  -0.46289  -0.45870  -0.45707
 Alpha  occ. eigenvalues --   -0.45514  -0.45202  -0.44921  -0.44531  -0.44328
 Alpha  occ. eigenvalues --   -0.43805  -0.43601  -0.43491  -0.43165  -0.43012
 Alpha  occ. eigenvalues --   -0.42621  -0.42145  -0.41844  -0.41489  -0.41155
 Alpha  occ. eigenvalues --   -0.40912  -0.40688  -0.40337  -0.39993  -0.39539
 Alpha  occ. eigenvalues --   -0.38188  -0.37477  -0.37221  -0.36715  -0.36625
 Alpha  occ. eigenvalues --   -0.36025  -0.34041  -0.33972  -0.33116  -0.31135
 Alpha  occ. eigenvalues --   -0.30896  -0.30697  -0.30066  -0.29507  -0.23884
 Alpha  occ. eigenvalues --   -0.20805
 Alpha virt. eigenvalues --   -0.08292  -0.01723   0.00543   0.02543   0.03089
 Alpha virt. eigenvalues --    0.04465   0.05234   0.06002   0.06792   0.08228
 Alpha virt. eigenvalues --    0.08864   0.09206   0.09487   0.10219   0.10742

 Mulliken charges:
               1
     1  Mg   0.805746
     2  C   -0.066672
     3  C   -0.100407
     4  C   -0.099236
     5  C   -0.097764
     6  N   -0.296200
     7  C   -0.000698
     8  C   -0.006873
     9  C    0.011929
    10  C    0.002936
    11  C    0.067637
    12  C    0.064515
    13  C   -0.063804
    14  H    0.001551
    15  N   -0.385179
    16  C    0.198626
    17  C   -0.175506
    18  C   -0.038190
    19  C    0.141603
    20  C    0.107236
    21  C   -0.015870
    22  O   -0.241325
    23  C    0.074265
    24  N   -0.308795
    25  C    0.092800
    26  C   -0.042827
    27  C   -0.046852
    28  C    0.086480
    29  C    0.080729
    30  C    0.029942
    31  C    0.003487
    32  N   -0.357228
    33  C    0.153824
    34  C   -0.160187
    35  C   -0.015872
    36  C    0.146164
    37  C    0.122118
    38  C    0.002331
    39  O   -0.156665
    40  C    0.027536
    41  C    0.217418
    42  O   -0.249617
    43  O   -0.321448
    44  C    0.184505
    45  H   -0.049519
    46  H    0.000714
    47  H   -0.028924
    48  H    0.026554
    49  H    0.009620
    50  H    0.027555
    51  H    0.010119
    52  H    0.005060
    53  H   -0.006168
    54  H    0.001657
    55  H    0.031463
    56  H    0.046797
    57  H    0.001971
    58  H    0.040587
    59  H    0.029419
    60  H    0.037697
    61  H    0.020402
    62  H    0.030870
    63  H    0.016117
    64  H    0.016956
    65  H    0.025867
    66  H    0.024740
    67  H    0.008222
    68  H    0.007499
    69  H    0.002022
    70  H    0.019738
    71  H    0.010822
    72  H    0.018692
    73  H    0.024999
    74  H    0.025968
    75  H    0.033413
    76  H    0.037384
    77  H    0.048261
    78  H    0.035172
    79  H    0.032089
 Sum of Mulliken charges =  -0.00000

 Dipole moment (field-independent basis, Debye):
    X=              0.0004    Y=             -2.2286    Z=              1.8553  Tot=              2.8997
 Quadrupole moment (field-independent basis, Debye-Ang):
   XX=           -275.8862   YY=           -226.7600   ZZ=           -258.0090
   XY=            -30.0835   XZ=              3.3238   YZ=              1.0470

 Normal termination of Gaussian 16 at Fri Oct  8 19:29:19 2021.
