 Gaussian 16, Revision A.03,
 Gaussian 16:  ES64L-G16RevA.03 25-Dec-2016

 -----------------------------------
 #p cam-b3lyp/Def2SVP td=(nstates=5)
 -----------------------------------

 --------------------------------
 TDDFT excited states in gaussian
 --------------------------------
 Symbolic Z-matrix:
 Charge =  0 Multiplicity = 1

                         Standard orientation:
 ---------------------------------------------------------------------
 Center     Atomic      Atomic             Coordinates (Angstroms)
 Number     Number       Type             X           Y           Z
 ---------------------------------------------------------------------
      1         12           0      -25.532591   -0.827740   -0.075127
      2          6           0      -26.183639    2.511449    0.629039
      3          6           0      -24.315788    0.265454   -3.133556
      4          6           0      -25.359373   -4.097984   -0.992590
      5          6           0      -26.947657   -1.710912    2.953650
      6          7           0      -25.333394    1.162713   -1.146404
      7          6           0      -25.631369    2.423834   -0.653049
      8          6           0      -25.403974    3.586939   -1.696769
      9          6           0      -25.108329    2.732616   -2.989983
     10          6           0      -24.939687    1.276668   -2.418476
     11          6           0      -26.098186    2.698548   -4.158114
     12          6           0      -24.281316    4.531796   -1.230383
     13          6           0      -24.691287    5.896320   -0.742373
     14          1           0      -23.756507    7.067786   -1.092257
     15          7           0      -24.755275   -1.827030   -1.717024
     16          6           0      -24.250085   -1.169349   -2.794946
     17          6           0      -23.832722   -2.224708   -3.738567
     18          6           0      -24.202666   -3.472593   -3.213104
     19          6           0      -24.775656   -3.210241   -1.950292
     20          6           0      -23.044057   -1.898110   -4.941367
     21          6           0      -24.087553   -4.845457   -3.808027
     22          8           0      -24.361587   -5.903047   -3.175556
     23          6           0      -23.689781   -5.099225   -5.157043
     24          7           0      -25.986326   -2.602521    0.851767
     25          6           0      -25.805223   -3.831054    0.294585
     26          6           0      -26.234123   -4.945482    1.165646
     27          6           0      -26.694569   -4.203697    2.471621
     28          6           0      -26.593240   -2.786975    2.046830
     29          6           0      -27.279793   -6.014513    0.731735
     30          6           0      -25.908661   -4.615255    3.813041
     31          6           0      -24.550751   -3.977885    4.232540
     32          7           0      -26.432913    0.122486    1.482685
     33          6           0      -26.925964   -0.353728    2.663303
     34          6           0      -27.226180    0.706715    3.522687
     35          6           0      -27.017971    1.870277    2.686297
     36          6           0      -26.510624    1.448469    1.473504
     37          6           0      -27.657905    0.638117    4.986361
     38          6           0      -27.013008    3.303693    2.747801
     39          8           0      -27.200852    4.120285    3.626572
     40          6           0      -26.678289    3.772810    1.288514
     41          6           0      -27.891205    4.315617    0.645197
     42          8           0      -28.508505    3.814111   -0.320042
     43          8           0      -28.359139    5.453795    1.202558
     44          6           0      -29.436365    6.235326    0.504638
     45          1           0      -23.994196    0.610047   -4.117942
     46          1           0      -25.363830   -5.161496   -1.241088
     47          1           0      -27.244664   -1.898247    3.988129
     48          1           0      -26.341694    4.048552   -2.007886
     49          1           0      -24.138701    3.077436   -3.349043
     50          1           0      -26.567419    1.716687   -4.224705
     51          1           0      -25.495026    2.731168   -5.064239
     52          1           0      -26.865622    3.473289   -4.147479
     53          1           0      -23.672238    4.704755   -2.118406
     54          1           0      -23.661347    3.993332   -0.513590
     55          1           0      -24.759781    5.846015    0.344629
     56          1           0      -25.686935    6.223881   -1.041852
     57          1           0      -22.094839   -2.412907   -4.798518
     58          1           0      -22.843109   -0.854943   -5.188735
     59          1           0      -23.531566   -2.317649   -5.821342
     60          1           0      -24.239613   -4.374791   -5.757286
     61          1           0      -23.758173   -6.161520   -5.387884
     62          1           0      -22.655777   -4.797893   -5.324973
     63          1           0      -25.269928   -5.433245    1.305871
     64          1           0      -27.756047   -4.387279    2.633725
     65          1           0      -26.838138   -7.007185    0.643863
     66          1           0      -27.689333   -5.787973   -0.253255
     67          1           0      -28.152037   -6.057166    1.383918
     68          1           0      -25.693728   -5.668694    3.632423
     69          1           0      -26.704870   -4.503597    4.549187
     70          1           0      -24.235932   -3.117682    3.642309
     71          1           0      -23.725744   -4.671936    4.395530
     72          1           0      -24.735357   -3.642287    5.252184
     73          1           0      -28.609032    1.144299    5.154690
     74          1           0      -26.920748    1.188814    5.570459
     75          1           0      -27.671579   -0.367019    5.408628
     76          1           0      -26.035867    4.649714    1.370548
     77          1           0      -29.318603    7.155883    1.076481
     78          1           0      -30.436539    5.809155    0.575713
     79          1           0      -29.185657    6.344460   -0.550964
     80         12           0       26.231194   -0.599868    0.156927
     81          6           0       24.715858    2.651687    0.532376
     82          6           0       27.180283    0.415258   -3.062712
     83          6           0       27.720198   -3.508645   -0.162095
     84          6           0       24.923237   -1.518189    3.266117
     85          7           0       25.919042    1.370910   -1.106202
     86          6           0       25.482188    2.584115   -0.676617
     87          6           0       25.826249    3.693162   -1.657476
     88          6           0       26.317449    2.898169   -2.992330
     89          6           0       26.461189    1.476461   -2.376355
     90          6           0       25.377848    3.032094   -4.216833
     91          6           0       26.896864    4.687876   -1.094531
     92          6           0       26.433384    6.167555   -1.074283
     93          1           0       27.306788    7.144498   -2.053693
     94          7           0       27.274563   -1.402360   -1.348607
     95          6           0       27.573896   -0.887279   -2.655223
     96          6           0       28.385724   -1.812233   -3.481006
     97          6           0       28.569034   -2.913528   -2.582082
     98          6           0       27.854222   -2.633467   -1.325502
     99          6           0       28.829246   -1.545024   -4.920750
    100          6           0       29.253506   -4.202931   -2.833417
    101          8           0       29.587683   -5.013334   -1.975904
    102          6           0       29.714341   -4.505403   -4.272810
    103          7           0       26.439295   -2.165395    1.439837
    104          6           0       27.085714   -3.294856    1.071066
    105          6           0       26.867679   -4.434855    2.026675
    106          6           0       26.014329   -3.823538    3.165137
    107          6           0       25.804697   -2.382533    2.647802
    108          6           0       26.313746   -5.694715    1.394976
    109          6           0       26.847646   -3.826829    4.578162
    110          6           0       26.098602   -4.530677    5.835858
    111          7           0       24.831486    0.249434    1.513645
    112          6           0       24.475177   -0.247783    2.790385
    113          6           0       23.663201    0.776885    3.456637
    114          6           0       23.872085    1.931072    2.656698
    115          6           0       24.467735    1.533221    1.458829
    116          6           0       22.842093    0.694657    4.739935
    117          6           0       23.396936    3.336402    2.515102
    118          8           0       22.641668    4.101414    3.176747
    119          6           0       24.055156    3.854385    1.178192
    120          6           0       22.978559    4.446556    0.317312
    121          8           0       21.905943    3.943779    0.135376
    122          8           0       23.368758    5.683093   -0.116467
    123          6           0       22.242523    6.468921   -0.680934
    124          1           0       27.332493    0.727935   -4.097655
    125          1           0       28.190953   -4.493231   -0.207110
    126          1           0       24.536140   -1.769099    4.255651
    127          1           0       24.883949    4.188526   -1.891678
    128          1           0       27.322726    3.184472   -3.302604
    129          1           0       24.932217    2.070059   -4.471517
    130          1           0       25.923862    3.426691   -5.074712
    131          1           0       24.577624    3.766452   -4.124539
    132          1           0       27.816173    4.665289   -1.680308
    133          1           0       27.164122    4.450014   -0.064576
    134          1           0       26.629412    6.664499   -0.123810
    135          1           0       25.366407    6.322435   -1.231402
    136          1           0       28.796499   -0.511270   -5.266263
    137          1           0       28.340808   -2.152382   -5.682686
    138          1           0       29.878808   -1.839750   -4.946687
    139          1           0       28.857252   -4.546277   -4.944937
    140          1           0       30.308335   -5.417830   -4.335181
    141          1           0       30.365554   -3.691303   -4.590986
    142          1           0       27.844950   -4.766658    2.379916
    143          1           0       25.050072   -4.323901    3.249274
    144          1           0       27.044706   -6.500064    1.317748
    145          1           0       25.988331   -5.588717    0.360162
    146          1           0       25.448018   -6.008069    1.978803
    147          1           0       27.128870   -2.834318    4.928697
    148          1           0       27.798348   -4.353600    4.500154
    149          1           0       25.351826   -5.191349    5.395033
    150          1           0       25.636674   -3.795917    6.496575
    151          1           0       26.763386   -5.215868    6.361212
    152          1           0       22.811226    1.646064    5.270590
    153          1           0       23.383877    0.046073    5.429330
    154          1           0       21.916320    0.218732    4.416288
    155          1           0       24.689970    4.690473    1.470469
    156          1           0       21.777125    5.858226   -1.454362
    157          1           0       22.741561    7.292387   -1.191547
    158          1           0       21.432878    6.787059   -0.024209
 ---------------------------------------------------------------------

 SCF Done:  E(RCAM-B3LYP) =  -4069.80779347     A.U. after   19 cycles

 Excitation energies and oscillator strengths:

 Excited State   1:      Singlet-A      1.6722 eV  741.46 nm  f=0.3688  <S**2>=0.000
     309 -> 315        0.18800
     311 -> 313        0.68427
     309 <- 315        0.11182
 This state for optimization and/or second-order correction.
 Total Energy, E(TD-HF/TD-DFT) =  -4069.74634223
 Copying the excited state density for this state as the 1-particle RhoCI density.

 Excited State   2:      Singlet-A      1.7035 eV  727.83 nm  f=0.3890  <S**2>=0.000
     310 -> 316        0.17723
     312 -> 314        0.68476
     310 <- 316        0.10753

 Excited State   3:      Singlet-A      2.1741 eV  570.29 nm  f=0.1335  <S**2>=0.000
     309 -> 313        0.64732
     311 -> 315       -0.27757

 Excited State   4:      Singlet-A      2.2075 eV  561.65 nm  f=0.1421  <S**2>=0.000
     310 -> 314        0.65096
     312 -> 316       -0.26118

 Excited State   5:      Singlet-A      3.1152 eV  397.99 nm  f=0.0000  <S**2>=0.000
     312 -> 313        0.70711

 The electronic state is 1-A.
 Alpha  occ. eigenvalues --  -46.88539 -46.87518 -19.25655 -19.24053 -19.19754
 Alpha  occ. eigenvalues --  -19.18961 -19.18693 -19.18249 -19.18212 -19.17941
 Alpha  occ. eigenvalues --  -14.42615 -14.41990 -14.41943 -14.41848 -14.40724
 Alpha  occ. eigenvalues --  -14.39520 -14.39258 -14.38347 -10.38828 -10.38528
 Alpha  occ. eigenvalues --  -10.35150 -10.35131 -10.34506 -10.34167 -10.32003
 Alpha  occ. eigenvalues --  -10.31934 -10.31837 -10.31585 -10.31497 -10.31297
 Alpha  occ. eigenvalues --  -10.30946 -10.30875 -10.30807 -10.30792 -10.30676
 Alpha  occ. eigenvalues --  -10.30581 -10.30455 -10.30111 -10.30012 -10.29987
 Alpha  occ. eigenvalues --  -10.29108 -10.29048 -10.29002 -10.28914 -10.28892
 Alpha  occ. eigenvalues --  -10.28637 -10.28544 -10.28539 -10.28459 -10.28353
 Alpha  occ. eigenvalues --  -10.28281 -10.28247 -10.28136 -10.28091 -10.27969
 Alpha  occ. eigenvalues --  -10.27838 -10.27826 -10.27719 -10.27651 -10.27365
 Alpha  occ. eigenvalues --  -10.27336 -10.27247 -10.27244 -10.27240 -10.27152
 Alpha  occ. eigenvalues --  -10.27131 -10.27080 -10.26893 -10.26870 -10.26765
 Alpha  occ. eigenvalues --  -10.26736 -10.26684 -10.26603 -10.26303 -10.26133
 Alpha  occ. eigenvalues --  -10.26119 -10.26063 -10.25988 -10.25922 -10.25902
 Alpha  occ. eigenvalues --  -10.25878 -10.25706 -10.25655 -10.25499 -10.25197
 Alpha  occ. eigenvalues --  -10.24598  -3.17182  -3.16233  -1.92079  -1.91637
 Alpha  occ. eigenvalues --   -1.91503  -1.91143  -1.90692  -1.90537  -1.16971
 Alpha  occ. eigenvalues --   -1.15123  -1.09976  -1.09514  -1.08694  -1.07938
 Alpha  occ. eigenvalues --   -1.07073  -1.05119  -1.04827  -1.04073  -1.04007
 Alpha  occ. eigenvalues --   -1.03275  -1.03226  -1.02591  -1.02215  -1.02024
 Alpha  occ. eigenvalues --   -0.93069  -0.91584  -0.89023  -0.88650  -0.88505
 Alpha  occ. eigenvalues --   -0.88435  -0.88286  -0.88136  -0.87563  -0.87421
 Alpha  occ. eigenvalues --   -0.87003  -0.86995  -0.86085  -0.85644  -0.84366
 Alpha  occ. eigenvalues --   -0.84030  -0.83633  -0.83179  -0.82795  -0.82449
 Alpha  occ. eigenvalues --   -0.81824  -0.81402  -0.80974  -0.80683  -0.80532
 Alpha  occ. eigenvalues --   -0.79768  -0.79104  -0.78542  -0.77496  -0.77106
 Alpha  occ. eigenvalues --   -0.76855  -0.76794  -0.76197  -0.76043  -0.75283
 Alpha  occ. eigenvalues --   -0.75235  -0.73099  -0.72564  -0.71427  -0.71321
 Alpha  occ. eigenvalues --   -0.70091  -0.69184  -0.68761  -0.68755  -0.67988
 Alpha  occ. eigenvalues --   -0.67602  -0.67098  -0.67087  -0.65928  -0.65642
 Alpha  occ. eigenvalues --   -0.65186  -0.65074  -0.64598  -0.64394  -0.64352
 Alpha  occ. eigenvalues --   -0.64005  -0.62375  -0.61478  -0.60809  -0.59947
 Alpha  occ. eigenvalues --   -0.59631  -0.59271  -0.59135  -0.58745  -0.58580
 Alpha  occ. eigenvalues --   -0.58355  -0.57966  -0.57782  -0.57292  -0.57146
 Alpha  occ. eigenvalues --   -0.56156  -0.56146  -0.55624  -0.55285  -0.55071
 Alpha  occ. eigenvalues --   -0.54882  -0.54505  -0.54429  -0.53815  -0.53787
 Alpha  occ. eigenvalues --   -0.53402  -0.53234  -0.52898  -0.52675  -0.52571
 Alpha  occ. eigenvalues --   -0.52514  -0.52425  -0.52163  -0.52061  -0.51872
 Alpha  occ. eigenvalues --   -0.51662  -0.51458  -0.51384  -0.51057  -0.50856
 Alpha  occ. eigenvalues --   -0.50825  -0.50468  -0.50338  -0.50151  -0.50072
 Alpha  occ. eigenvalues --   -0.49976  -0.49811  -0.49749  -0.49624  -0.49435
 Alpha  occ. eigenvalues --   -0.49413  -0.49217  -0.48927  -0.48792  -0.48792
 Alpha  occ. eigenvalues --   -0.48464  -0.48253  -0.48174  -0.48122  -0.48014
 Alpha  occ. eigenvalues --   -0.47915  -0.47752  -0.47573  -0.47476  -0.47214
 Alpha  occ. eigenvalues --   -0.47054  -0.46849  -0.46740  -0.46575  -0.46482
 Alpha  occ. eigenvalues --   -0.46236  -0.46210  -0.45977  -0.45953  -0.45692
 Alpha  occ. eigenvalues --   -0.45582  -0.45388  -0.45251  -0.45158  -0.44995
 Alpha  occ. eigenvalues --   -0.44822  -0.44789  -0.44782  -0.44383  -0.44236
 Alpha  occ. eigenvalues --   -0.44107  -0.43967  -0.43891  -0.43804  -0.43795
 Alpha  occ. eigenvalues --   -0.43779  -0.43403  -0.43327  -0.42879  -0.42869
 Alpha  occ. eigenvalues --   -0.42746  -0.42616  -0.42440  -0.42225  -0.42043
 Alpha  occ. eigenvalues --   -0.41587  -0.41552  -0.41468  -0.41320  -0.41111
 Alpha  occ. eigenvalues --   -0.40801  -0.40779  -0.40702  -0.40442  -0.40319
 Alpha  occ. eigenvalues --   -0.40186  -0.39967  -0.39690  -0.39386  -0.38911
 Alpha  occ. eigenvalues --   -0.38607  -0.38241  -0.38190  -0.37804  -0.37497
 Alpha  occ. eigenvalues --   -0.37349  -0.36898  -0.36490  -0.36387  -0.36375
 Alpha  occ. eigenvalues --   -0.35590  -0.35510  -0.34647  -0.34429  -0.34293
 Alpha  occ. eigenvalues --   -0.33175  -0.33027  -0.32868  -0.31641  -0.31000
 Alpha  occ. eigenvalues --   -0.30980  -0.30604  -0.30601  -0.30280  -0.30020
 Alpha  occ. eigenvalues --   -0.29881  -0.29392  -0.29305  -0.23914  -0.23627
 Alpha  occ. eigenvalues --   -0.21313  -0.21096
 Alpha virt. eigenvalues --   -0.08988  -0.08676  -0.01842  -0.01295   0.00123
 Alpha virt. eigenvalues --    0.00699   0.02048   0.02375   0.03549   0.03584
 Alpha virt. eigenvalues --    0.04220   0.05060   0.05207   0.05656   0.05691

 Mulliken charges:
               1
     1  Mg   0.842044
     2  C   -0.018391
     3  C   -0.053909
     4  C   -0.067815
     5  C   -0.096687
     6  N   -0.267834
     7  C   -0.058728
     8  C   -0.002141
     9  C   -0.086426
    10  C    0.002203
    11  C    0.086090
    12  C    0.098656
    13  C   -0.086494
    14  H    0.020493
    15  N   -0.397027
    16  C    0.159478
    17  C   -0.172382
    18  C    0.028792
    19  C    0.105198
    20  C    0.105042
    21  C   -0.012494
    22  O   -0.250256
    23  C    0.087506
    24  N   -0.298719
    25  C    0.055457
    26  C   -0.041438
    27  C   -0.007405
    28  C    0.040354
    29  C    0.076563
    30  C    0.015291
    31  C    0.012080
    32  N   -0.356455
    33  C    0.119050
    34  C   -0.160407
    35  C   -0.009439
    36  C    0.183598
    37  C    0.132492
    38  C    0.018588
    39  O   -0.153158
    40  C   -0.051989
    41  C    0.191727
    42  O   -0.263456
    43  O   -0.324255
    44  C    0.186505
    45  H   -0.034019
    46  H   -0.005145
    47  H   -0.038783
    48  H    0.013777
    49  H    0.000844
    50  H    0.026198
    51  H    0.010487
    52  H    0.029929
    53  H    0.011965
    54  H    0.021654
    55  H    0.043724
    56  H    0.030151
    57  H    0.034877
    58  H    0.019930
    59  H    0.013920
    60  H    0.022506
    61  H    0.040309
    62  H    0.021402
    63  H    0.020252
    64  H    0.009398
    65  H    0.022357
    66  H    0.017752
    67  H    0.015171
    68  H    0.010521
    69  H    0.016448
    70  H    0.036097
    71  H    0.017603
    72  H    0.007441
    73  H    0.037959
    74  H    0.031052
    75  H    0.003131
    76  H    0.027422
    77  H    0.047676
    78  H    0.049080
    79  H    0.037013
    80  Mg   0.847860
    81  C   -0.001735
    82  C   -0.070339
    83  C   -0.074620
    84  C   -0.071507
    85  N   -0.234931
    86  C   -0.059642
    87  C   -0.007886
    88  C   -0.060927
    89  C   -0.011729
    90  C    0.063509
    91  C    0.083073
    92  C   -0.087396
    93  H   -0.024404
    94  N   -0.426835
    95  C    0.167410
    96  C   -0.118203
    97  C   -0.023602
    98  C    0.155983
    99  C    0.116654
   100  C   -0.017496
   101  O   -0.205537
   102  C    0.043891
   103  N   -0.341304
   104  C    0.066798
   105  C   -0.028591
   106  C   -0.019872
   107  C    0.079924
   108  C    0.060067
   109  C    0.009269
   110  C   -0.025248
   111  N   -0.337591
   112  C    0.099373
   113  C   -0.169952
   114  C   -0.076872
   115  C    0.107710
   116  C    0.138080
   117  C    0.126507
   118  O   -0.213866
   119  C   -0.017324
   120  C    0.167635
   121  O   -0.184930
   122  O   -0.341782
   123  C    0.175208
   124  H   -0.029242
   125  H   -0.005844
   126  H   -0.030414
   127  H    0.018811
   128  H    0.016874
   129  H    0.026957
   130  H    0.012703
   131  H    0.019566
   132  H    0.025449
   133  H    0.021780
   134  H    0.031697
   135  H    0.040529
   136  H    0.023779
   137  H    0.039967
   138  H    0.023464
   139  H    0.031139
   140  H    0.026928
   141  H    0.018581
   142  H    0.019952
   143  H    0.024844
   144  H    0.017946
   145  H    0.020713
   146  H    0.007137
   147  H    0.019128
   148  H    0.011321
   149  H    0.007534
   150  H    0.031108
   151  H    0.018749
   152  H    0.040485
   153  H    0.005577
   154  H    0.045661
   155  H    0.036811
   156  H    0.033028
   157  H    0.034366
   158  H    0.058084
 Sum of Mulliken charges =  -0.00000

 Dipole moment (field-independent basis, Debye):
    X=              4.2579    Y=             -1.2654    Z=             -5.9900  Tot=              7.4573
 Quadrupole moment (field-independent basis, Debye-Ang):
   XX=           -465.2766   YY=           -518.4611   ZZ=           -470.1775
   XY=              2.9219   XZ=            -37.4227   YZ=            -53.2932

 Normal termination of Gaussian 16 at Tue Sep 14 23:27:19 2021.
