 Gaussian 16, Revision A.03,
 Gaussian 16:  ES64L-G16RevA.03 25-Dec-2016

 -----------------------------------
 #p cam-b3lyp/Def2SVP td=(nstates=5)
 -----------------------------------

 --------------------------------
 TDDFT excited states in gaussian
 --------------------------------
 Symbolic Z-matrix:
 Charge =  0 Multiplicity = 1

                         Standard orientation:
 ---------------------------------------------------------------------
 Center     Atomic      Atomic             Coordinates (Angstroms)
 Number     Number       Type             X           Y           Z
 ---------------------------------------------------------------------
      1         12           0       13.371634   -0.662739    0.265712
      2          6           0       12.382063    2.282432   -1.593075
      3          6           0       15.400432    1.282804    1.858265
      4          6           0       14.327420   -3.498918    1.645968
      5          6           0       11.655821   -2.760275   -2.156264
      6          7           0       13.731799    1.605232    0.199559
      7          6           0       13.260584    2.622836   -0.603738
      8          6           0       13.915740    3.908250   -0.246866
      9          6           0       15.199282    3.465359    0.501461
     10          6           0       14.797628    2.013375    0.852758
     11          6           0       16.480254    3.488170   -0.361028
     12          6           0       13.003300    4.709218    0.731311
     13          6           0       12.851890    6.253536    0.445366
     14          1           0       11.628585    7.052953    1.047432
     15          7           0       14.727960   -1.025259    1.679556
     16          6           0       15.401333   -0.102939    2.314051
     17          6           0       16.158533   -0.743372    3.372906
     18          6           0       15.721751   -2.088892    3.350904
     19          6           0       14.909738   -2.244713    2.174635
     20          6           0       17.036112    0.083578    4.329992
     21          6           0       16.096529   -3.163903    4.332688
     22          8           0       15.686473   -4.277028    4.190667
     23          6           0       16.900262   -2.801759    5.538817
     24          7           0       13.225865   -2.885864   -0.420718
     25          6           0       13.606905   -3.775783    0.493331
     26          6           0       13.078040   -5.130954    0.207124
     27          6           0       12.371020   -4.882055   -1.162758
     28          6           0       12.397502   -3.383651   -1.310431
     29          6           0       14.082914   -6.337788    0.252154
     30          6           0       10.924115   -5.512984   -1.179815
     31          6           0       10.659154   -6.810827   -1.992734
     32          7           0       12.289939   -0.408464   -1.440884
     33          6           0       11.583993   -1.290730   -2.288997
     34          6           0       10.871304   -0.512366   -3.323057
     35          6           0       11.150888    0.821132   -3.055753
     36          6           0       12.019433    0.867241   -1.978440
     37          6           0       10.117977   -1.115973   -4.533116
     38          6           0       10.856858    2.203023   -3.554644
     39          8           0       10.155951    2.644678   -4.434322
     40          6           0       11.793448    3.212493   -2.720073
     41          6           0       11.085660    4.369070   -2.309248
     42          8           0       10.521652    4.438491   -1.208286
     43          8           0       11.014357    5.417598   -3.221117
     44          6           0       10.457008    6.730462   -2.772549
     45          1           0       16.092638    1.831119    2.499679
     46          1           0       14.592700   -4.434458    2.142611
     47          1           0       11.127647   -3.375538   -2.886293
     48          1           0       14.242891    4.421706   -1.151366
     49          1           0       15.464351    4.035256    1.391785
     50          1           0       17.215550    4.171226    0.065304
     51          1           0       16.186515    3.826938   -1.354099
     52          1           0       16.949372    2.514454   -0.504892
     53          1           0       13.471442    4.585460    1.708022
     54          1           0       12.045963    4.188475    0.736048
     55          1           0       12.880256    6.391350   -0.635175
     56          1           0       13.771902    6.654732    0.872140
     57          1           0       16.605172    0.022505    5.330165
     58          1           0       17.206730    1.121218    4.045185
     59          1           0       17.997739   -0.407822    4.475191
     60          1           0       16.382697   -2.096288    6.188317
     61          1           0       17.827163   -2.255076    5.365698
     62          1           0       17.046492   -3.697740    6.142606
     63          1           0       12.308265   -5.345475    0.948437
     64          1           0       13.008782   -5.247774   -1.967792
     65          1           0       15.026373   -5.933664    0.617653
     66          1           0       14.191833   -6.933264   -0.654979
     67          1           0       13.702265   -7.073148    0.961195
     68          1           0       10.227712   -4.785258   -1.597286
     69          1           0       10.607135   -5.496964   -0.137053
     70          1           0       10.082086   -7.512774   -1.390990
     71          1           0       11.609751   -7.246752   -2.300511
     72          1           0       10.064177   -6.593488   -2.880600
     73          1           0        9.692597   -2.067746   -4.216112
     74          1           0       10.838820   -1.369450   -5.310790
     75          1           0        9.338650   -0.450386   -4.904977
     76          1           0       12.620113    3.509453   -3.364803
     77          1           0       11.072246    7.169800   -1.986062
     78          1           0        9.379974    6.676309   -2.618519
     79          1           0       10.673214    7.443653   -3.567882
     80         12           0      -13.543282   -0.665852    0.013156
     81          6           0      -11.532259    2.288155    0.502487
     82          6           0      -16.342210    1.363724    0.599794
     83          6           0      -15.399090   -3.315933   -0.546255
     84          6           0      -10.616733   -2.562198   -0.232427
     85          7           0      -13.839949    1.619662    0.528241
     86          6           0      -12.925063    2.622384    0.459095
     87          6           0      -13.582552    3.992711    0.440219
     88          6           0      -15.135218    3.688489    0.829841
     89          6           0      -15.115170    2.140499    0.672789
     90          6           0      -15.585032    4.240573    2.205728
     91          6           0      -13.416276    4.724471   -0.934358
     92          6           0      -12.741111    6.116545   -0.829686
     93          1           0      -13.713405    7.354920   -1.274172
     94          7           0      -15.525967   -0.926948    0.018979
     95          6           0      -16.587719   -0.005084    0.310534
     96          6           0      -17.937310   -0.607801    0.201650
     97          6           0      -17.621294   -1.950273   -0.188757
     98          6           0      -16.157907   -2.101267   -0.252663
     99          6           0      -19.251326    0.123768    0.482976
    100          6           0      -18.545002   -3.088223   -0.403389
    101          8           0      -18.260190   -4.144961   -0.956511
    102          6           0      -20.027513   -2.893186   -0.029448
    103          7           0      -13.062339   -2.575223   -0.499717
    104          6           0      -14.015396   -3.522477   -0.654390
    105          6           0      -13.453251   -4.915110   -0.724340
    106          6           0      -11.918797   -4.712586   -0.674889
    107          6           0      -11.819570   -3.178846   -0.514036
    108          6           0      -14.021272   -5.880170    0.295045
    109          6           0      -11.225104   -5.203929   -2.077900
    110          6           0      -10.018525   -6.280891   -1.927599
    111          7           0      -11.479104   -0.305662    0.374557
    112          6           0      -10.406293   -1.199860    0.142754
    113          6           0       -9.156678   -0.449434    0.311468
    114          6           0       -9.585123    0.904123    0.309896
    115          6           0      -10.971619    0.926037    0.468392
    116          6           0       -7.717371   -0.949001    0.393105
    117          6           0       -9.054499    2.281014    0.518173
    118          8           0       -7.911233    2.787844    0.689963
    119          6           0      -10.328865    3.211004    0.519115
    120          6           0      -10.286309    4.073476    1.745970
    121          8           0      -10.007961    3.676127    2.841884
    122          8           0      -10.493432    5.378486    1.394556
    123          6           0      -10.132620    6.323829    2.481154
    124          1           0      -17.165180    2.005354    0.920847
    125          1           0      -15.959210   -4.233764   -0.738345
    126          1           0       -9.689110   -3.127200   -0.343183
    127          1           0      -13.135081    4.550700    1.262767
    128          1           0      -15.833674    4.049166    0.074267
    129          1           0      -15.824159    3.427089    2.891311
    130          1           0      -16.450496    4.894226    2.089523
    131          1           0      -14.883487    4.911366    2.701740
    132          1           0      -14.377048    4.888587   -1.422986
    133          1           0      -12.797387    4.149293   -1.623530
    134          1           0      -11.942527    6.260755   -1.557867
    135          1           0      -12.261513    6.329726    0.125119
    136          1           0      -19.221581    1.213817    0.485794
    137          1           0      -19.775491   -0.184074    1.387678
    138          1           0      -19.907815   -0.159003   -0.340541
    139          1           0      -20.126596   -2.693211    1.037425
    140          1           0      -20.646279   -3.738901   -0.331337
    141          1           0      -20.397815   -2.028314   -0.579853
    142          1           0      -13.777802   -5.359813   -1.666060
    143          1           0      -11.483389   -5.198945    0.197526
    144          1           0      -14.694125   -6.621933   -0.136129
    145          1           0      -14.650369   -5.426679    1.060912
    146          1           0      -13.184448   -6.360536    0.802494
    147          1           0      -10.813893   -4.391907   -2.676701
    148          1           0      -11.936306   -5.686191   -2.747989
    149          1           0      -10.163852   -6.743838   -0.951357
    150          1           0       -9.039060   -5.806170   -1.998918
    151          1           0      -10.139348   -7.112097   -2.621803
    152          1           0       -7.008701   -0.232270   -0.021387
    153          1           0       -7.631501   -1.799475   -0.284226
    154          1           0       -7.622581   -1.275214    1.428917
    155          1           0      -10.194564    3.890709   -0.321969
    156          1           0      -10.679081    6.016415    3.372563
    157          1           0      -10.574508    7.264532    2.153015
    158          1           0       -9.089883    6.412456    2.785900
 ---------------------------------------------------------------------

 SCF Done:  E(RCAM-B3LYP) =  -4069.77386058     A.U. after   19 cycles

 Excitation energies and oscillator strengths:

 Excited State   1:      Singlet-A      1.6718 eV  741.61 nm  f=0.3905  <S**2>=0.000
     309 -> 315        0.18793
     312 -> 314        0.68391
     309 <- 315        0.11179
 This state for optimization and/or second-order correction.
 Total Energy, E(TD-HF/TD-DFT) =  -4069.71242189
 Copying the excited state density for this state as the 1-particle RhoCI density.

 Excited State   2:      Singlet-A      1.7379 eV  713.41 nm  f=0.3671  <S**2>=0.000
     310 -> 316        0.16380
     311 -> 313        0.68857
     310 <- 316        0.10273

 Excited State   3:      Singlet-A      2.1717 eV  570.92 nm  f=0.1239  <S**2>=0.000
     309 -> 314        0.18505
     310 -> 313        0.64641
     311 -> 316       -0.19347

 Excited State   4:      Singlet-A      2.1742 eV  570.24 nm  f=0.2326  <S**2>=0.000
     309 -> 314        0.62023
     310 -> 313       -0.19246
     312 -> 315       -0.26631

 Excited State   5:      Singlet-A      2.9806 eV  415.98 nm  f=0.0000  <S**2>=0.000
     312 -> 313        0.70707

 The electronic state is 1-A.
 Alpha  occ. eigenvalues --  -46.89372 -46.88464 -19.25571 -19.23887 -19.19670
 Alpha  occ. eigenvalues --  -19.19565 -19.19197 -19.18893 -19.18606 -19.18446
 Alpha  occ. eigenvalues --  -14.42540 -14.41870 -14.41692 -14.40650 -14.40104
 Alpha  occ. eigenvalues --  -14.39753 -14.39705 -14.39181 -10.38744 -10.38434
 Alpha  occ. eigenvalues --  -10.35880 -10.35069 -10.35064 -10.35063 -10.31850
 Alpha  occ. eigenvalues --  -10.31759 -10.31531 -10.31509 -10.31419 -10.31222
 Alpha  occ. eigenvalues --  -10.31070 -10.30952 -10.30799 -10.30734 -10.30601
 Alpha  occ. eigenvalues --  -10.30527 -10.29969 -10.29956 -10.29912 -10.29771
 Alpha  occ. eigenvalues --  -10.29303 -10.29248 -10.29031 -10.28975 -10.28926
 Alpha  occ. eigenvalues --  -10.28867 -10.28836 -10.28641 -10.28562 -10.28472
 Alpha  occ. eigenvalues --  -10.28387 -10.28172 -10.28170 -10.28120 -10.28045
 Alpha  occ. eigenvalues --  -10.28017 -10.27937 -10.27891 -10.27836 -10.27755
 Alpha  occ. eigenvalues --  -10.27259 -10.27195 -10.27174 -10.27095 -10.27082
 Alpha  occ. eigenvalues --  -10.27073 -10.26741 -10.26690 -10.26533 -10.26460
 Alpha  occ. eigenvalues --  -10.26298 -10.26230 -10.26214 -10.26059 -10.26026
 Alpha  occ. eigenvalues --  -10.26002 -10.25972 -10.25856 -10.25849 -10.25656
 Alpha  occ. eigenvalues --  -10.25651 -10.25474 -10.25432 -10.25375 -10.25117
 Alpha  occ. eigenvalues --  -10.25031  -3.17895  -3.17107  -1.92781  -1.92357
 Alpha  occ. eigenvalues --   -1.92194  -1.92004  -1.91562  -1.91428  -1.16887
 Alpha  occ. eigenvalues --   -1.14100  -1.12106  -1.10772  -1.09909  -1.08610
 Alpha  occ. eigenvalues --   -1.06985  -1.06341  -1.05572  -1.04888  -1.04814
 Alpha  occ. eigenvalues --   -1.03933  -1.03199  -1.02515  -1.01948  -1.00916
 Alpha  occ. eigenvalues --   -0.91504  -0.91185  -0.89188  -0.88802  -0.88576
 Alpha  occ. eigenvalues --   -0.88433  -0.88061  -0.87928  -0.87732  -0.87569
 Alpha  occ. eigenvalues --   -0.87348  -0.86927  -0.85563  -0.85124  -0.84272
 Alpha  occ. eigenvalues --   -0.83955  -0.83102  -0.82988  -0.82075  -0.81952
 Alpha  occ. eigenvalues --   -0.81749  -0.81333  -0.80883  -0.80606  -0.80334
 Alpha  occ. eigenvalues --   -0.79695  -0.79031  -0.78702  -0.77048  -0.77031
 Alpha  occ. eigenvalues --   -0.76713  -0.76632  -0.76150  -0.75967  -0.75339
 Alpha  occ. eigenvalues --   -0.75161  -0.72705  -0.72487  -0.71352  -0.71034
 Alpha  occ. eigenvalues --   -0.69150  -0.69111  -0.68717  -0.68680  -0.67867
 Alpha  occ. eigenvalues --   -0.67524  -0.67264  -0.67023  -0.66040  -0.65855
 Alpha  occ. eigenvalues --   -0.65567  -0.65556  -0.64904  -0.64317  -0.64153
 Alpha  occ. eigenvalues --   -0.63928  -0.62294  -0.61370  -0.60965  -0.60737
 Alpha  occ. eigenvalues --   -0.60035  -0.59194  -0.58992  -0.58668  -0.58280
 Alpha  occ. eigenvalues --   -0.57981  -0.57885  -0.57495  -0.57109  -0.57068
 Alpha  occ. eigenvalues --   -0.56484  -0.56072  -0.55669  -0.55437  -0.55207
 Alpha  occ. eigenvalues --   -0.54990  -0.54429  -0.53936  -0.53805  -0.53712
 Alpha  occ. eigenvalues --   -0.53327  -0.53320  -0.52967  -0.52607  -0.52567
 Alpha  occ. eigenvalues --   -0.52491  -0.52352  -0.52092  -0.51910  -0.51777
 Alpha  occ. eigenvalues --   -0.51587  -0.51385  -0.51303  -0.51248  -0.50779
 Alpha  occ. eigenvalues --   -0.50485  -0.50395  -0.50171  -0.50022  -0.49992
 Alpha  occ. eigenvalues --   -0.49903  -0.49781  -0.49732  -0.49631  -0.49491
 Alpha  occ. eigenvalues --   -0.49367  -0.49211  -0.49148  -0.48766  -0.48723
 Alpha  occ. eigenvalues --   -0.48672  -0.48238  -0.48171  -0.48047  -0.47939
 Alpha  occ. eigenvalues --   -0.47873  -0.47702  -0.47498  -0.47485  -0.47400
 Alpha  occ. eigenvalues --   -0.47377  -0.46982  -0.46773  -0.46501  -0.46363
 Alpha  occ. eigenvalues --   -0.46163  -0.46131  -0.45877  -0.45716  -0.45503
 Alpha  occ. eigenvalues --   -0.45461  -0.45330  -0.44916  -0.44851  -0.44746
 Alpha  occ. eigenvalues --   -0.44709  -0.44702  -0.44483  -0.44397  -0.44310
 Alpha  occ. eigenvalues --   -0.44033  -0.43937  -0.43813  -0.43722  -0.43369
 Alpha  occ. eigenvalues --   -0.43262  -0.43249  -0.42919  -0.42794  -0.42678
 Alpha  occ. eigenvalues --   -0.42602  -0.42538  -0.42147  -0.42147  -0.41973
 Alpha  occ. eigenvalues --   -0.41807  -0.41472  -0.41240  -0.41232  -0.40974
 Alpha  occ. eigenvalues --   -0.40727  -0.40629  -0.40549  -0.40366  -0.40297
 Alpha  occ. eigenvalues --   -0.40123  -0.40115  -0.39822  -0.39784  -0.39313
 Alpha  occ. eigenvalues --   -0.38531  -0.38255  -0.38165  -0.37597  -0.37422
 Alpha  occ. eigenvalues --   -0.37266  -0.36962  -0.36450  -0.36311  -0.35987
 Alpha  occ. eigenvalues --   -0.35644  -0.35433  -0.34569  -0.34349  -0.33525
 Alpha  occ. eigenvalues --   -0.32970  -0.32951  -0.32536  -0.31779  -0.31568
 Alpha  occ. eigenvalues --   -0.31458  -0.31028  -0.30932  -0.30667  -0.30517
 Alpha  occ. eigenvalues --   -0.30204  -0.29607  -0.29311  -0.23838  -0.23464
 Alpha  occ. eigenvalues --   -0.21551  -0.21237
 Alpha virt. eigenvalues --   -0.09000  -0.08913  -0.01768  -0.00282   0.00199
 Alpha virt. eigenvalues --    0.01009   0.02126   0.02396   0.02732   0.03624
 Alpha virt. eigenvalues --    0.04296   0.04616   0.05236   0.05282   0.05769

 Mulliken charges:
               1
     1  Mg   0.836611
     2  C   -0.017099
     3  C   -0.043195
     4  C   -0.045038
     5  C   -0.101651
     6  N   -0.239080
     7  C   -0.040129
     8  C   -0.024284
     9  C   -0.084489
    10  C    0.050304
    11  C    0.081922
    12  C    0.071403
    13  C   -0.043386
    14  H    0.034506
    15  N   -0.366941
    16  C    0.065577
    17  C   -0.128954
    18  C   -0.029971
    19  C    0.104869
    20  C    0.110715
    21  C    0.002083
    22  O   -0.168124
    23  C    0.040348
    24  N   -0.199802
    25  C   -0.011583
    26  C   -0.045169
    27  C    0.011744
    28  C    0.027166
    29  C    0.070650
    30  C    0.014190
    31  C    0.026939
    32  N   -0.397712
    33  C    0.109426
    34  C   -0.209527
    35  C   -0.008075
    36  C    0.122767
    37  C    0.119281
    38  C    0.086681
    39  O   -0.137925
    40  C   -0.010440
    41  C    0.199186
    42  O   -0.246227
    43  O   -0.357506
    44  C    0.195810
    45  H   -0.050916
    46  H   -0.004384
    47  H   -0.024531
    48  H   -0.003161
    49  H    0.009551
    50  H    0.019354
    51  H    0.006365
    52  H    0.023142
    53  H    0.001084
    54  H    0.050277
    55  H    0.026153
    56  H    0.013944
    57  H    0.026298
    58  H    0.029634
    59  H    0.019695
    60  H    0.028425
    61  H    0.022233
    62  H    0.029297
    63  H    0.020312
    64  H    0.004686
    65  H    0.028942
    66  H    0.015396
    67  H    0.009499
    68  H   -0.002081
    69  H   -0.009301
    70  H    0.017869
    71  H    0.014349
    72  H    0.016677
    73  H    0.008536
    74  H    0.029825
    75  H    0.038536
    76  H    0.050116
    77  H    0.028621
    78  H    0.055749
    79  H    0.023938
    80  Mg   0.847843
    81  C   -0.001743
    82  C   -0.070362
    83  C   -0.074635
    84  C   -0.071473
    85  N   -0.234921
    86  C   -0.059606
    87  C   -0.007894
    88  C   -0.060892
    89  C   -0.011795
    90  C    0.063537
    91  C    0.083062
    92  C   -0.087383
    93  H   -0.024526
    94  N   -0.426814
    95  C    0.167340
    96  C   -0.118275
    97  C   -0.023662
    98  C    0.155935
    99  C    0.116681
   100  C   -0.017525
   101  O   -0.205629
   102  C    0.043921
   103  N   -0.341291
   104  C    0.066736
   105  C   -0.028530
   106  C   -0.019905
   107  C    0.079957
   108  C    0.060099
   109  C    0.009259
   110  C   -0.025241
   111  N   -0.337640
   112  C    0.099382
   113  C   -0.169845
   114  C   -0.076761
   115  C    0.107731
   116  C    0.138081
   117  C    0.126578
   118  O   -0.213471
   119  C   -0.017372
   120  C    0.167636
   121  O   -0.184927
   122  O   -0.341774
   123  C    0.175240
   124  H   -0.029345
   125  H   -0.005932
   126  H   -0.030331
   127  H    0.018811
   128  H    0.016819
   129  H    0.026904
   130  H    0.012613
   131  H    0.019548
   132  H    0.025401
   133  H    0.021853
   134  H    0.031822
   135  H    0.040549
   136  H    0.023729
   137  H    0.039850
   138  H    0.023379
   139  H    0.031081
   140  H    0.026812
   141  H    0.018542
   142  H    0.019899
   143  H    0.024818
   144  H    0.017856
   145  H    0.020670
   146  H    0.007084
   147  H    0.019234
   148  H    0.011268
   149  H    0.007456
   150  H    0.031248
   151  H    0.018682
   152  H    0.040839
   153  H    0.005658
   154  H    0.045654
   155  H    0.036940
   156  H    0.032928
   157  H    0.034313
   158  H    0.058223
 Sum of Mulliken charges =  -0.00000

 Dipole moment (field-independent basis, Debye):
    X=             -0.3502    Y=              0.8135    Z=              2.3788  Tot=              2.5383
 Quadrupole moment (field-independent basis, Debye-Ang):
   XX=           -287.2972   YY=           -480.1169   ZZ=           -519.7252
   XY=             -4.9348   XZ=             25.7715   YZ=             18.3549

 Normal termination of Gaussian 16 at Wed Sep 15 14:36:27 2021.
