 Gaussian 16, Revision A.03,
 Gaussian 16:  ES64L-G16RevA.03 25-Dec-2016

 -----------------------------------
 #p cam-b3lyp/Def2SVP td=(nstates=5)
 -----------------------------------

 --------------------------------
 TDDFT excited states in gaussian
 --------------------------------
 Symbolic Z-matrix:
 Charge =  0 Multiplicity = 1

                         Standard orientation:
 ---------------------------------------------------------------------
 Center     Atomic      Atomic             Coordinates (Angstroms)
 Number     Number       Type             X           Y           Z
 ---------------------------------------------------------------------
      1         12           0       13.795629   -0.091267   -0.008487
      2          6           0       10.405019   -0.642769   -0.883894
      3          6           0       13.630212    2.844856   -1.705378
      4          6           0       16.709212    0.783345    1.509892
      5          6           0       13.594765   -2.844960    2.086643
      6          7           0       12.065064    0.961572   -1.010105
      7          6           0       10.805690    0.548767   -1.356013
      8          6           0       10.119481    1.528976   -2.233086
      9          6           0       11.316606    2.463537   -2.739217
     10          6           0       12.391908    2.097891   -1.773900
     11          6           0       11.668807    2.195871   -4.193623
     12          6           0        9.010892    2.190000   -1.398999
     13          6           0        7.535111    2.157124   -1.981154
     14          1           0        6.710284    3.465511   -2.172176
     15          7           0       15.063528    1.532954   -0.078417
     16          6           0       14.840738    2.621161   -0.933512
     17          6           0       16.016339    3.438735   -0.911507
     18          6           0       16.943166    2.897395    0.042204
     19          6           0       16.278733    1.641336    0.481960
     20          6           0       16.138138    4.654933   -1.820584
     21          6           0       18.290307    3.435297    0.470142
     22          8           0       18.666511    4.440985   -0.198842
     23          6           0       19.184289    2.985499    1.660223
     24          7           0       15.025851   -0.915169    1.593313
     25          6           0       16.196182   -0.381483    2.007335
     26          6           0       16.851048   -1.172520    3.170576
     27          6           0       15.891424   -2.407904    3.273633
     28          6           0       14.714082   -1.995853    2.270152
     29          6           0       18.282847   -1.523134    2.807305
     30          6           0       15.349513   -2.688308    4.642017
     31          6           0       15.864627   -3.964177    5.250901
     32          7           0       12.458912   -1.558492    0.406639
     33          6           0       12.480017   -2.682428    1.242156
     34          6           0       11.411025   -3.514066    1.014769
     35          6           0       10.576954   -2.772607    0.153267
     36          6           0       11.222021   -1.568466   -0.119422
     37          6           0       11.334547   -4.940294    1.517139
     38          6           0        9.316976   -2.842662   -0.633554
     39          8           0        8.528153   -3.732132   -0.717715
     40          6           0        9.195268   -1.392240   -1.236661
     41          6           0        8.686221   -1.545246   -2.653383
     42          8           0        7.530697   -1.315669   -3.010461
     43          8           0        9.739249   -1.937965   -3.514867
     44          6           0        9.326793   -1.977697   -4.917555
     45          1           0       13.666931    3.670930   -2.418971
     46          1           0       17.690351    0.973128    1.951474
     47          1           0       13.375111   -3.578728    2.864147
     48          1           0        9.660831    1.005577   -3.072106
     49          1           0       10.994659    3.501182   -2.655358
     50          1           0       11.601579    1.143382   -4.465589
     51          1           0       12.719015    2.449031   -4.342575
     52          1           0       11.109838    2.807990   -4.901376
     53          1           0        9.301556    3.229874   -1.250444
     54          1           0        8.967921    1.840760   -0.367355
     55          1           0        7.047459    1.553587   -1.215183
     56          1           0        7.478334    1.502989   -2.850406
     57          1           0       15.262227    5.298001   -1.734747
     58          1           0       16.171817    4.267375   -2.838729
     59          1           0       16.947013    5.357821   -1.616480
     60          1           0       19.535325    2.002644    1.347407
     61          1           0       18.562956    2.915409    2.553121
     62          1           0       19.994739    3.685943    1.863588
     63          1           0       16.897804   -0.623623    4.110782
     64          1           0       16.350472   -3.274588    2.798686
     65          1           0       18.775344   -0.605872    2.484100
     66          1           0       18.257913   -2.239942    1.985908
     67          1           0       18.902230   -2.056965    3.527068
     68          1           0       14.266235   -2.806452    4.667655
     69          1           0       15.508487   -1.920986    5.399420
     70          1           0       16.289305   -3.721788    6.224285
     71          1           0       16.693361   -4.395808    4.689656
     72          1           0       15.121625   -4.759534    5.318688
     73          1           0       10.568188   -5.429140    0.914758
     74          1           0       11.059202   -4.994055    2.570148
     75          1           0       12.334899   -5.342301    1.358112
     76          1           0        8.328822   -1.001486   -0.701852
     77          1           0       10.181892   -1.808070   -5.572012
     78          1           0        8.683425   -1.135036   -5.166734
     79          1           0        8.800342   -2.894956   -5.182779
     80         12           0      -13.238586    0.860507    0.159968
     81          6           0      -13.312359   -2.504517   -0.553317
     82          6           0       -9.807281    0.828949   -0.535543
     83          6           0      -13.057981    4.141625    0.931999
     84          6           0      -16.474352    0.738400    1.175923
     85          7           0      -11.686043   -0.766250   -0.223731
     86          6           0      -12.036262   -2.032844   -0.707828
     87          6           0      -10.852181   -2.735732   -1.400729
     88          6           0       -9.735924   -1.637195   -1.252950
     89          6           0      -10.412961   -0.409735   -0.682030
     90          6           0       -8.556180   -2.094223   -0.404261
     91          6           0      -11.004472   -3.230753   -2.882560
     92          6           0      -10.990471   -4.835523   -3.131960
     93          1           0       -9.845801   -5.241989   -4.065241
     94          7           0      -11.679846    2.246314    0.297090
     95          6           0      -10.364831    2.063717   -0.160446
     96          6           0       -9.640278    3.337232   -0.224985
     97          6           0      -10.566032    4.393658    0.295966
     98          6           0      -11.873973    3.647426    0.482708
     99          6           0       -8.207697    3.451030   -0.697556
    100          6           0      -10.368233    5.815198    0.539260
    101          8           0      -11.268286    6.478610    1.075045
    102          6           0       -9.067920    6.535990    0.229486
    103          7           0      -14.531747    2.146289    0.994584
    104          6           0      -14.308502    3.530397    1.115415
    105          6           0      -15.576097    4.378026    1.537049
    106          6           0      -16.659351    3.183717    1.630394
    107          6           0      -15.832140    1.943978    1.221473
    108          6           0      -15.405437    5.197771    2.909688
    109          6           0      -17.890677    3.443159    0.695840
    110          6           0      -19.244939    3.043681    1.192180
    111          7           0      -14.602389   -0.649209    0.381660
    112          6           0      -15.940864   -0.535166    0.768196
    113          6           0      -16.632600   -1.763653    0.574973
    114          6           0      -15.619619   -2.575550   -0.057234
    115          6           0      -14.420927   -1.851053   -0.059819
    116          6           0      -18.038592   -2.133010    0.800302
    117          6           0      -15.344767   -3.899896   -0.519683
    118          8           0      -16.015007   -4.924859   -0.686511
    119          6           0      -13.762645   -3.935854   -0.726020
    120          6           0      -13.178424   -4.915434    0.227935
    121          8           0      -12.658928   -4.712574    1.254130
    122          8           0      -13.208606   -6.195972   -0.319377
    123          6           0      -12.202394   -7.104319    0.190114
    124          1           0       -8.758387    0.829767   -0.839411
    125          1           0      -13.149644    5.208121    1.147659
    126          1           0      -17.550956    0.729452    1.358189
    127          1           0      -10.557829   -3.593733   -0.797295
    128          1           0       -9.261077   -1.413047   -2.208539
    129          1           0       -8.526879   -1.494452    0.505026
    130          1           0       -7.702436   -1.856893   -1.037853
    131          1           0       -8.507493   -3.162438   -0.194024
    132          1           0      -10.198051   -2.786122   -3.466268
    133          1           0      -11.955938   -2.913532   -3.309620
    134          1           0      -11.926040   -4.988841   -3.670122
    135          1           0      -10.921524   -5.367420   -2.183310
    136          1           0       -7.585131    3.037825    0.096993
    137          1           0       -7.982470    4.507684   -0.833545
    138          1           0       -7.985365    2.828928   -1.564807
    139          1           0       -9.106425    7.462346    0.802988
    140          1           0       -8.912014    6.726704   -0.832830
    141          1           0       -8.151334    6.112882    0.640045
    142          1           0      -15.890019    5.009644    0.706652
    143          1           0      -17.116954    3.053851    2.611391
    144          1           0      -16.346220    5.147300    3.458247
    145          1           0      -15.271026    6.275332    2.823564
    146          1           0      -14.592427    4.823155    3.531920
    147          1           0      -17.778256    3.033217   -0.307725
    148          1           0      -18.064538    4.504713    0.520889
    149          1           0      -19.541935    2.221468    0.541329
    150          1           0      -20.104195    3.697438    1.042539
    151          1           0      -19.173610    2.707036    2.226951
    152          1           0      -18.647742   -1.233112    0.710976
    153          1           0      -18.058133   -2.473162    1.835613
    154          1           0      -18.274912   -2.997743    0.179939
    155          1           0      -13.525859   -4.253528   -1.741150
    156          1           0      -12.586445   -7.395495    1.167182
    157          1           0      -11.298291   -6.505925    0.301322
    158          1           0      -12.099774   -7.986018   -0.443130
 ---------------------------------------------------------------------

 SCF Done:  E(RCAM-B3LYP) =  -4069.79693287     A.U. after   19 cycles

 Excitation energies and oscillator strengths:

 Excited State   1:      Singlet-A      1.6723 eV  741.40 nm  f=0.4150  <S**2>=0.000
     310 -> 315        0.15712
     312 -> 314        0.68850
 This state for optimization and/or second-order correction.
 Total Energy, E(TD-HF/TD-DFT) =  -4069.73547711
 Copying the excited state density for this state as the 1-particle RhoCI density.

 Excited State   2:      Singlet-A      1.6837 eV  736.39 nm  f=0.3569  <S**2>=0.000
     309 -> 316       -0.17398
     311 -> 313        0.68685
     309 <- 316       -0.10799

 Excited State   3:      Singlet-A      2.1912 eV  565.83 nm  f=0.1296  <S**2>=0.000
     310 -> 314        0.64524
     312 -> 315       -0.25750

 Excited State   4:      Singlet-A      2.2199 eV  558.51 nm  f=0.1583  <S**2>=0.000
     309 -> 313        0.64855
     311 -> 316        0.26691

 Excited State   5:      Singlet-A      2.9089 eV  426.22 nm  f=0.0000  <S**2>=0.000
     312 -> 313        0.70707

 The electronic state is 1-A.
 Alpha  occ. eigenvalues --  -46.89103 -46.87855 -19.25748 -19.22091 -19.21134
 Alpha  occ. eigenvalues --  -19.19960 -19.19507 -19.18787 -19.18389 -19.17880
 Alpha  occ. eigenvalues --  -14.42489 -14.42468 -14.42323 -14.41920 -14.40197
 Alpha  occ. eigenvalues --  -14.40182 -14.39095 -14.38510 -10.40477 -10.38029
 Alpha  occ. eigenvalues --  -10.35748 -10.35586 -10.35264 -10.34132 -10.32087
 Alpha  occ. eigenvalues --  -10.31785 -10.31762 -10.31213 -10.31208 -10.30979
 Alpha  occ. eigenvalues --  -10.30958 -10.30947 -10.30760 -10.30732 -10.30680
 Alpha  occ. eigenvalues --  -10.30653 -10.30536 -10.30396 -10.30210 -10.29435
 Alpha  occ. eigenvalues --  -10.29215 -10.29178 -10.29158 -10.28956 -10.28716
 Alpha  occ. eigenvalues --  -10.28651 -10.28630 -10.28487 -10.28484 -10.28440
 Alpha  occ. eigenvalues --  -10.28416 -10.28319 -10.28191 -10.28164 -10.28069
 Alpha  occ. eigenvalues --  -10.27819 -10.27772 -10.27679 -10.27638 -10.27579
 Alpha  occ. eigenvalues --  -10.27515 -10.27452 -10.27395 -10.27378 -10.27232
 Alpha  occ. eigenvalues --  -10.27127 -10.27098 -10.27086 -10.26851 -10.26695
 Alpha  occ. eigenvalues --  -10.26569 -10.26462 -10.26427 -10.26420 -10.26387
 Alpha  occ. eigenvalues --  -10.26384 -10.26133 -10.26030 -10.25919 -10.25767
 Alpha  occ. eigenvalues --  -10.25752 -10.25458 -10.25275 -10.25274 -10.25182
 Alpha  occ. eigenvalues --  -10.24415  -3.17667  -3.16616  -1.92547  -1.92128
 Alpha  occ. eigenvalues --   -1.91972  -1.91485  -1.91081  -1.90934  -1.16698
 Alpha  occ. eigenvalues --   -1.15712  -1.12149  -1.09493  -1.08076  -1.08045
 Alpha  occ. eigenvalues --   -1.07715  -1.07640  -1.05346  -1.04561  -1.04371
 Alpha  occ. eigenvalues --   -1.03455  -1.03364  -1.02850  -1.01987  -1.00553
 Alpha  occ. eigenvalues --   -0.93423  -0.92515  -0.90017  -0.89417  -0.89173
 Alpha  occ. eigenvalues --   -0.89121  -0.88546  -0.88420  -0.87969  -0.87276
 Alpha  occ. eigenvalues --   -0.87130  -0.87109  -0.86603  -0.86049  -0.84932
 Alpha  occ. eigenvalues --   -0.84376  -0.84148  -0.83402  -0.82738  -0.82333
 Alpha  occ. eigenvalues --   -0.82044  -0.81815  -0.80804  -0.80794  -0.80605
 Alpha  occ. eigenvalues --   -0.80151  -0.78704  -0.77910  -0.77559  -0.77338
 Alpha  occ. eigenvalues --   -0.77012  -0.76617  -0.76605  -0.75607  -0.75177
 Alpha  occ. eigenvalues --   -0.75163  -0.73626  -0.72996  -0.72329  -0.71616
 Alpha  occ. eigenvalues --   -0.69512  -0.69251  -0.69081  -0.68634  -0.67865
 Alpha  occ. eigenvalues --   -0.67838  -0.67480  -0.67338  -0.66441  -0.65804
 Alpha  occ. eigenvalues --   -0.65610  -0.65457  -0.65223  -0.65039  -0.64919
 Alpha  occ. eigenvalues --   -0.63814  -0.63238  -0.60783  -0.60631  -0.60205
 Alpha  occ. eigenvalues --   -0.60119  -0.59695  -0.59325  -0.59061  -0.58926
 Alpha  occ. eigenvalues --   -0.58387  -0.58223  -0.58159  -0.57624  -0.57001
 Alpha  occ. eigenvalues --   -0.56431  -0.56327  -0.55942  -0.55736  -0.55502
 Alpha  occ. eigenvalues --   -0.55212  -0.55058  -0.54461  -0.54006  -0.53861
 Alpha  occ. eigenvalues --   -0.53685  -0.53550  -0.53316  -0.53190  -0.52921
 Alpha  occ. eigenvalues --   -0.52804  -0.52597  -0.52386  -0.52210  -0.52143
 Alpha  occ. eigenvalues --   -0.52080  -0.51813  -0.51539  -0.51296  -0.51230
 Alpha  occ. eigenvalues --   -0.51118  -0.50992  -0.50676  -0.50637  -0.50470
 Alpha  occ. eigenvalues --   -0.50390  -0.50148  -0.50049  -0.49977  -0.49936
 Alpha  occ. eigenvalues --   -0.49761  -0.49716  -0.49553  -0.49004  -0.48893
 Alpha  occ. eigenvalues --   -0.48759  -0.48516  -0.48460  -0.48440  -0.48110
 Alpha  occ. eigenvalues --   -0.48002  -0.47951  -0.47822  -0.47313  -0.47217
 Alpha  occ. eigenvalues --   -0.46983  -0.46877  -0.46764  -0.46703  -0.46562
 Alpha  occ. eigenvalues --   -0.46399  -0.46124  -0.46074  -0.46014  -0.45924
 Alpha  occ. eigenvalues --   -0.45854  -0.45605  -0.45418  -0.45333  -0.45251
 Alpha  occ. eigenvalues --   -0.45198  -0.45000  -0.44899  -0.44566  -0.44153
 Alpha  occ. eigenvalues --   -0.44081  -0.44064  -0.43781  -0.43593  -0.43451
 Alpha  occ. eigenvalues --   -0.43366  -0.43263  -0.42989  -0.42834  -0.42757
 Alpha  occ. eigenvalues --   -0.42612  -0.42542  -0.42504  -0.42437  -0.42167
 Alpha  occ. eigenvalues --   -0.41911  -0.41845  -0.41677  -0.41582  -0.41487
 Alpha  occ. eigenvalues --   -0.41350  -0.41228  -0.41114  -0.40947  -0.40557
 Alpha  occ. eigenvalues --   -0.40226  -0.40073  -0.39805  -0.39143  -0.38989
 Alpha  occ. eigenvalues --   -0.38883  -0.38618  -0.38321  -0.37927  -0.37734
 Alpha  occ. eigenvalues --   -0.37613  -0.37438  -0.37371  -0.37000  -0.36541
 Alpha  occ. eigenvalues --   -0.36055  -0.35536  -0.34841  -0.34795  -0.34382
 Alpha  occ. eigenvalues --   -0.34007  -0.33287  -0.33112  -0.31848  -0.31478
 Alpha  occ. eigenvalues --   -0.31359  -0.31233  -0.30670  -0.30114  -0.29958
 Alpha  occ. eigenvalues --   -0.29885  -0.29705  -0.29203  -0.24511  -0.24306
 Alpha  occ. eigenvalues --   -0.21740  -0.21392
 Alpha virt. eigenvalues --   -0.09424  -0.09211  -0.02103  -0.01929  -0.00161
 Alpha virt. eigenvalues --    0.00133   0.01707   0.02009   0.02302   0.02486
 Alpha virt. eigenvalues --    0.04027   0.04891   0.05209   0.05435   0.05589

 Mulliken charges:
               1
     1  Mg   0.834345
     2  C    0.054361
     3  C   -0.069545
     4  C   -0.042560
     5  C   -0.089260
     6  N   -0.294797
     7  C   -0.091745
     8  C   -0.014716
     9  C   -0.026191
    10  C    0.046669
    11  C    0.078038
    12  C    0.043379
    13  C   -0.061001
    14  H    0.031245
    15  N   -0.389566
    16  C    0.137891
    17  C   -0.128909
    18  C   -0.023586
    19  C    0.152826
    20  C    0.116437
    21  C   -0.019979
    22  O   -0.248350
    23  C    0.085880
    24  N   -0.230537
    25  C   -0.019135
    26  C    0.006661
    27  C   -0.010679
    28  C    0.025260
    29  C    0.054990
    30  C    0.043077
    31  C   -0.008651
    32  N   -0.375658
    33  C    0.100414
    34  C   -0.182896
    35  C   -0.033797
    36  C    0.116704
    37  C    0.133517
    38  C    0.043011
    39  O   -0.120605
    40  C    0.002796
    41  C    0.187364
    42  O   -0.212648
    43  O   -0.363208
    44  C    0.180055
    45  H   -0.018645
    46  H   -0.075847
    47  H   -0.016088
    48  H    0.012518
    49  H    0.010742
    50  H    0.016031
    51  H    0.003332
    52  H    0.023844
    53  H    0.007007
    54  H    0.023852
    55  H    0.028216
    56  H    0.032996
    57  H    0.012464
    58  H    0.023926
    59  H    0.040230
    60  H    0.042633
    61  H    0.043410
    62  H    0.036607
    63  H    0.016380
    64  H    0.018897
    65  H    0.011236
    66  H    0.003404
    67  H    0.016533
    68  H    0.007484
    69  H    0.001285
    70  H    0.009241
    71  H    0.000980
    72  H    0.018480
    73  H    0.037245
    74  H    0.028883
    75  H    0.025085
    76  H    0.038628
    77  H    0.029007
    78  H    0.027973
    79  H    0.045130
    80  Mg   0.825902
    81  C    0.028266
    82  C   -0.094076
    83  C   -0.058408
    84  C   -0.101791
    85  N   -0.299870
    86  C   -0.077929
    87  C    0.037534
    88  C   -0.089722
    89  C    0.070679
    90  C    0.065525
    91  C    0.032587
    92  C   -0.092816
    93  H    0.019873
    94  N   -0.403878
    95  C    0.188333
    96  C   -0.166042
    97  C    0.011921
    98  C    0.173267
    99  C    0.129706
   100  C   -0.020958
   101  O   -0.222492
   102  C    0.027945
   103  N   -0.333171
   104  C    0.018360
   105  C    0.006446
   106  C   -0.041482
   107  C    0.114549
   108  C    0.047072
   109  C    0.002855
   110  C   -0.000887
   111  N   -0.324945
   112  C    0.108862
   113  C   -0.169754
   114  C    0.001121
   115  C    0.101982
   116  C    0.151116
   117  C    0.020430
   118  O   -0.181880
   119  C   -0.047684
   120  C    0.190018
   121  O   -0.156519
   122  O   -0.359308
   123  C    0.189226
   124  H   -0.036171
   125  H   -0.001794
   126  H   -0.045939
   127  H    0.009345
   128  H    0.007097
   129  H    0.028683
   130  H    0.006213
   131  H    0.024242
   132  H    0.019644
   133  H    0.016277
   134  H    0.052333
   135  H    0.038981
   136  H    0.034647
   137  H    0.012935
   138  H    0.031665
   139  H    0.024544
   140  H    0.050706
   141  H    0.032509
   142  H    0.024954
   143  H    0.015804
   144  H    0.012178
   145  H    0.024042
   146  H    0.035894
   147  H    0.008772
   148  H    0.005328
   149  H    0.005612
   150  H    0.014852
   151  H    0.015275
   152  H    0.020483
   153  H    0.030138
   154  H    0.042838
   155  H    0.023866
   156  H    0.031414
   157  H    0.021728
   158  H    0.040941
 Sum of Mulliken charges =  -0.00000

 Dipole moment (field-independent basis, Debye):
    X=              6.9054    Y=              3.2028    Z=             -1.4224  Tot=              7.7437
 Quadrupole moment (field-independent basis, Debye-Ang):
   XX=           -498.6307   YY=           -547.8708   ZZ=           -487.0503
   XY=           -116.1986   XZ=             42.6425   YZ=            -11.5978

 Normal termination of Gaussian 16 at Wed Sep 15 19:28:05 2021.
