 Gaussian 16, Revision A.03,
 Gaussian 16:  ES64L-G16RevA.03 25-Dec-2016

 -----------------------------------
 #p cam-b3lyp/Def2SVP td=(nstates=5)
 -----------------------------------

 --------------------------------
 TDDFT excited states in gaussian
 --------------------------------
 Symbolic Z-matrix:
 Charge =  0 Multiplicity = 1

                         Standard orientation:
 ---------------------------------------------------------------------
 Center     Atomic      Atomic             Coordinates (Angstroms)
 Number     Number       Type             X           Y           Z
 ---------------------------------------------------------------------
      1         12           0      -11.199715    0.288225   -0.369277
      2          6           0       -9.258577   -2.503596   -0.535751
      3          6           0      -13.789927   -1.747034    0.715974
      4          6           0      -12.987014    3.081276    0.157053
      5          6           0       -8.356062    2.312197   -0.819766
      6          7           0      -11.397408   -1.861043    0.289161
      7          6           0      -10.442753   -2.785920    0.064188
      8          6           0      -10.820332   -4.129287    0.572298
      9          6           0      -12.460498   -3.929964    0.623530
     10          6           0      -12.596773   -2.395160    0.537905
     11          6           0      -13.201053   -4.721872   -0.494260
     12          6           0      -10.217517   -4.344585    1.951436
     13          6           0      -10.516105   -3.283235    3.109070
     14          1           0      -10.777527   -3.750988    4.535346
     15          7           0      -13.107532    0.631024    0.333730
     16          6           0      -14.089686   -0.354594    0.606139
     17          6           0      -15.326846    0.328465    0.787840
     18          6           0      -15.147222    1.702718    0.690320
     19          6           0      -13.729517    1.897605    0.342887
     20          6           0      -16.564171   -0.501611    1.063139
     21          6           0      -16.164726    2.785763    0.958511
     22          8           0      -17.307052    2.386648    1.296171
     23          6           0      -15.897049    4.180776    1.064925
     24          7           0      -10.663002    2.394496   -0.126763
     25          6           0      -11.621613    3.353148    0.022755
     26          6           0      -11.000014    4.770188    0.040493
     27          6           0       -9.493984    4.483661   -0.278510
     28          6           0       -9.473085    2.965812   -0.342523
     29          6           0      -11.665633    5.734108   -0.918342
     30          6           0       -8.524025    5.109986    0.859221
     31          6           0       -7.263127    5.782542    0.304436
     32          7           0       -9.133509    0.036808   -0.646932
     33          6           0       -8.146476    0.895065   -1.012722
     34          6           0       -7.034349    0.093164   -1.445159
     35          6           0       -7.389453   -1.295733   -1.333996
     36          6           0       -8.673319   -1.258357   -0.815593
     37          6           0       -5.654490    0.598435   -1.694080
     38          6           0       -6.989331   -2.662907   -1.427706
     39          8           0       -5.890193   -3.043624   -1.849973
     40          6           0       -8.180322   -3.476645   -0.956284
     41          6           0       -8.595888   -4.384208   -2.053294
     42          8           0       -7.788498   -5.167927   -2.512507
     43          8           0       -9.912804   -4.302999   -2.389022
     44          6           0      -10.340225   -5.210915   -3.455285
     45          1           0      -14.662574   -2.399671    0.785067
     46          1           0      -13.633175    3.959434    0.098503
     47          1           0       -7.472418    2.865964   -1.144744
     48          1           0      -10.527978   -5.001866   -0.011942
     49          1           0      -12.882085   -4.406561    1.509485
     50          1           0      -13.914968   -5.414039   -0.049291
     51          1           0      -12.446219   -5.312469   -1.014094
     52          1           0      -13.703346   -4.100520   -1.236831
     53          1           0       -9.148482   -4.504093    1.809146
     54          1           0      -10.528780   -5.364263    2.177999
     55          1           0      -11.375092   -2.632624    2.944381
     56          1           0       -9.574570   -2.736349    3.150051
     57          1           0      -16.560993   -0.675687    2.139308
     58          1           0      -16.460915   -1.464249    0.563932
     59          1           0      -17.516879   -0.067982    0.757662
     60          1           0      -16.587372    4.674849    1.749354
     61          1           0      -15.802069    4.682248    0.100940
     62          1           0      -14.954939    4.238376    1.608407
     63          1           0      -11.125700    5.079550    1.078674
     64          1           0       -9.267232    4.824289   -1.288603
     65          1           0      -12.551643    5.331516   -1.408541
     66          1           0      -11.088207    6.280013   -1.663956
     67          1           0      -12.134481    6.449154   -0.241699
     68          1           0       -8.176047    4.382065    1.592197
     69          1           0       -9.048111    5.821028    1.497607
     70          1           0       -7.381421    6.860374    0.412357
     71          1           0       -7.223609    5.596918   -0.769127
     72          1           0       -6.352059    5.462716    0.810409
     73          1           0       -5.497724    1.224144   -2.571897
     74          1           0       -5.031226   -0.294888   -1.749195
     75          1           0       -5.292050    1.221656   -0.876492
     76          1           0       -7.825507   -4.070727   -0.113594
     77          1           0      -10.109094   -6.228085   -3.137688
     78          1           0       -9.912859   -4.969096   -4.428547
     79          1           0      -11.395467   -5.063713   -3.684806
     80         12           0       10.607224    0.710279   -0.187384
     81          6           0       11.897654   -2.441524    0.413023
     82          6           0        7.600214   -0.308205    1.397987
     83          6           0        9.469923    3.942581   -0.217941
     84          6           0       13.684579    1.826151   -1.289076
     85          7           0        9.839425   -1.210323    0.660024
     86          6           0       10.602211   -2.337109    0.884246
     87          6           0        9.891875   -3.421683    1.777981
     88          6           0        8.381032   -2.892252    1.743046
     89          6           0        8.542247   -1.367204    1.194480
     90          6           0        7.300274   -3.698330    0.926590
     91          6           0       10.416520   -3.544789    3.165245
     92          6           0       11.020324   -4.847338    3.654092
     93          1           0       10.901754   -5.121773    5.161866
     94          7           0        8.730570    1.671214    0.417486
     95          6           0        7.630797    1.011920    0.998188
     96          6           0        6.551181    1.932927    1.160722
     97          6           0        7.141476    3.256484    0.829861
     98          6           0        8.528684    3.022473    0.321856
     99          6           0        5.215476    1.583303    1.825087
    100          6           0        6.335782    4.556248    1.000008
    101          8           0        5.191032    4.670697    1.428462
    102          6           0        7.096558    5.833618    0.946603
    103          7           0       11.542539    2.734012   -0.533095
    104          6           0       10.784571    3.832848   -0.650077
    105          6           0       11.747208    5.014185   -0.761955
    106          6           0       13.148479    4.384123   -1.207907
    107          6           0       12.792542    2.840494   -1.033500
    108          6           0       11.255474    5.989852   -1.889182
    109          6           0       14.472415    4.779522   -0.433703
    110          6           0       15.575557    5.557571   -1.135366
    111          7           0       12.457864   -0.151937   -0.486414
    112          6           0       13.635722    0.415728   -0.982281
    113          6           0       14.688726   -0.553088   -0.964967
    114          6           0       14.078848   -1.723421   -0.416391
    115          6           0       12.685095   -1.391592   -0.197301
    116          6           0       16.113866   -0.389373   -1.390292
    117          6           0       14.243778   -3.075339   -0.072416
    118          8           0       15.249098   -3.751723   -0.158662
    119          6           0       12.883776   -3.578086    0.549794
    120          6           0       12.564211   -4.894715   -0.023814
    121          8           0       12.700770   -5.947130    0.589702
    122          8           0       12.126298   -4.752693   -1.332080
    123          6           0       11.828616   -6.046547   -1.986560
    124          1           0        6.617863   -0.516428    1.826029
    125          1           0        8.997787    4.926109   -0.272904
    126          1           0       14.659064    2.208349   -1.599733
    127          1           0        9.948432   -4.390794    1.283493
    128          1           0        8.070185   -2.781545    2.782521
    129          1           0        7.739559   -4.666225    0.685325
    130          1           0        6.956319   -3.204919    0.017459
    131          1           0        6.423027   -3.787538    1.566268
    132          1           0        9.564775   -3.388884    3.829019
    133          1           0       11.202855   -2.809279    3.331532
    134          1           0       12.094101   -4.800840    3.474950
    135          1           0       10.574666   -5.729290    3.194600
    136          1           0        5.039292    0.601084    2.263044
    137          1           0        4.502555    1.834195    1.040046
    138          1           0        5.057659    2.414390    2.511723
    139          1           0        7.230927    6.341972   -0.007222
    140          1           0        8.050875    5.767315    1.469301
    141          1           0        6.501008    6.557613    1.503951
    142          1           0       11.852486    5.564991    0.173005
    143          1           0       13.287442    4.501113   -2.282095
    144          1           0       11.252405    6.990666   -1.457391
    145          1           0       10.275889    5.763872   -2.312315
    146          1           0       11.901273    5.992237   -2.767571
    147          1           0       14.863528    3.824342   -0.084022
    148          1           0       14.140990    5.434140    0.373551
    149          1           0       16.483185    5.323032   -0.578645
    150          1           0       15.383570    6.624354   -1.018324
    151          1           0       15.808392    5.352889   -2.179818
    152          1           0       16.586629   -1.357903   -1.225275
    153          1           0       16.535050    0.423013   -0.798839
    154          1           0       16.259941   -0.147695   -2.443230
    155          1           0       13.127578   -3.732841    1.601389
    156          1           0       12.720781   -6.429696   -2.481763
    157          1           0       10.970719   -5.861722   -2.633016
    158          1           0       11.471148   -6.788840   -1.273461
 ---------------------------------------------------------------------

 SCF Done:  E(RCAM-B3LYP) =  -4069.79508504     A.U. after   18 cycles

 Excitation energies and oscillator strengths:

 Excited State   1:      Singlet-A      1.7123 eV  724.07 nm  f=0.5379  <S**2>=0.000
     309 -> 315        0.17052
     311 -> 313        0.67391
     312 -> 314        0.13075
     309 <- 315        0.10279
 This state for optimization and/or second-order correction.
 Total Energy, E(TD-HF/TD-DFT) =  -4069.73215824
 Copying the excited state density for this state as the 1-particle RhoCI density.

 Excited State   2:      Singlet-A      1.7428 eV  711.42 nm  f=0.2551  <S**2>=0.000
     310 -> 316        0.17393
     311 -> 313       -0.13020
     312 -> 314        0.67270
     310 <- 316        0.10207

 Excited State   3:      Singlet-A      2.1719 eV  570.86 nm  f=0.1497  <S**2>=0.000
     309 -> 313        0.65179
     311 -> 315       -0.25331

 Excited State   4:      Singlet-A      2.2174 eV  559.14 nm  f=0.1337  <S**2>=0.000
     310 -> 314        0.65047
     312 -> 316       -0.25305

 Excited State   5:      Singlet-A      2.8252 eV  438.85 nm  f=0.0000  <S**2>=0.000
     312 -> 313        0.70696

 The electronic state is 1-A.
 Alpha  occ. eigenvalues --  -46.90396 -46.89132 -19.26435 -19.25022 -19.19731
 Alpha  occ. eigenvalues --  -19.19523 -19.19044 -19.18317 -19.18216 -19.18184
 Alpha  occ. eigenvalues --  -14.43398 -14.42101 -14.42086 -14.41908 -14.39963
 Alpha  occ. eigenvalues --  -14.39813 -14.39786 -14.38631 -10.39511 -10.39029
 Alpha  occ. eigenvalues --  -10.35210 -10.34858 -10.34488 -10.34104 -10.33014
 Alpha  occ. eigenvalues --  -10.32786 -10.31995 -10.31699 -10.31608 -10.31576
 Alpha  occ. eigenvalues --  -10.31403 -10.31241 -10.31214 -10.30746 -10.30537
 Alpha  occ. eigenvalues --  -10.30414 -10.30331 -10.30239 -10.30040 -10.29751
 Alpha  occ. eigenvalues --  -10.29303 -10.29222 -10.29078 -10.29003 -10.28612
 Alpha  occ. eigenvalues --  -10.28600 -10.28598 -10.28469 -10.28434 -10.28381
 Alpha  occ. eigenvalues --  -10.28372 -10.28348 -10.28303 -10.28235 -10.28204
 Alpha  occ. eigenvalues --  -10.28202 -10.28167 -10.28104 -10.28054 -10.27806
 Alpha  occ. eigenvalues --  -10.27757 -10.27423 -10.27384 -10.27379 -10.27316
 Alpha  occ. eigenvalues --  -10.27264 -10.27251 -10.27201 -10.26987 -10.26975
 Alpha  occ. eigenvalues --  -10.26826 -10.26790 -10.26723 -10.26556 -10.26486
 Alpha  occ. eigenvalues --  -10.26372 -10.26148 -10.26124 -10.25979 -10.25855
 Alpha  occ. eigenvalues --  -10.25593 -10.25578 -10.25366 -10.24993 -10.24823
 Alpha  occ. eigenvalues --  -10.24579  -3.18607  -3.17585  -1.93535  -1.93038
 Alpha  occ. eigenvalues --   -1.92909  -1.92461  -1.92060  -1.91867  -1.17459
 Alpha  occ. eigenvalues --   -1.15437  -1.09993  -1.09684  -1.09095  -1.08420
 Alpha  occ. eigenvalues --   -1.08035  -1.07382  -1.05010  -1.04734  -1.04562
 Alpha  occ. eigenvalues --   -1.03975  -1.02757  -1.02482  -1.01647  -1.01540
 Alpha  occ. eigenvalues --   -0.94103  -0.92497  -0.89416  -0.89307  -0.89279
 Alpha  occ. eigenvalues --   -0.89055  -0.88776  -0.88132  -0.87817  -0.87610
 Alpha  occ. eigenvalues --   -0.87090  -0.86349  -0.85869  -0.85728  -0.85126
 Alpha  occ. eigenvalues --   -0.84421  -0.84142  -0.83776  -0.83375  -0.82826
 Alpha  occ. eigenvalues --   -0.82800  -0.82157  -0.81487  -0.80928  -0.80804
 Alpha  occ. eigenvalues --   -0.80662  -0.78650  -0.78019  -0.77760  -0.77100
 Alpha  occ. eigenvalues --   -0.77076  -0.76888  -0.76194  -0.76119  -0.75448
 Alpha  occ. eigenvalues --   -0.74983  -0.73418  -0.72539  -0.72197  -0.72150
 Alpha  occ. eigenvalues --   -0.70179  -0.69328  -0.69135  -0.68909  -0.68856
 Alpha  occ. eigenvalues --   -0.67902  -0.67154  -0.67042  -0.66574  -0.65569
 Alpha  occ. eigenvalues --   -0.65374  -0.65364  -0.65248  -0.65165  -0.64718
 Alpha  occ. eigenvalues --   -0.64424  -0.63857  -0.62909  -0.60268  -0.60172
 Alpha  occ. eigenvalues --   -0.59765  -0.59663  -0.59369  -0.59364  -0.58979
 Alpha  occ. eigenvalues --   -0.58864  -0.58412  -0.58050  -0.57716  -0.56898
 Alpha  occ. eigenvalues --   -0.56875  -0.56608  -0.56470  -0.55891  -0.55832
 Alpha  occ. eigenvalues --   -0.55357  -0.55182  -0.54723  -0.54555  -0.54283
 Alpha  occ. eigenvalues --   -0.53786  -0.53772  -0.53506  -0.53432  -0.53132
 Alpha  occ. eigenvalues --   -0.53099  -0.52738  -0.52720  -0.52511  -0.52376
 Alpha  occ. eigenvalues --   -0.51999  -0.51912  -0.51832  -0.51779  -0.51459
 Alpha  occ. eigenvalues --   -0.51241  -0.51103  -0.50929  -0.50856  -0.50357
 Alpha  occ. eigenvalues --   -0.50292  -0.50107  -0.49632  -0.49625  -0.49497
 Alpha  occ. eigenvalues --   -0.49404  -0.49142  -0.49069  -0.48785  -0.48780
 Alpha  occ. eigenvalues --   -0.48709  -0.48577  -0.48512  -0.48210  -0.48190
 Alpha  occ. eigenvalues --   -0.47851  -0.47717  -0.47651  -0.47117  -0.47089
 Alpha  occ. eigenvalues --   -0.46933  -0.46748  -0.46624  -0.46486  -0.46453
 Alpha  occ. eigenvalues --   -0.46424  -0.46075  -0.46035  -0.45898  -0.45759
 Alpha  occ. eigenvalues --   -0.45758  -0.45669  -0.45588  -0.45262  -0.45226
 Alpha  occ. eigenvalues --   -0.45095  -0.44883  -0.44686  -0.44645  -0.44576
 Alpha  occ. eigenvalues --   -0.44566  -0.44439  -0.44040  -0.43756  -0.43638
 Alpha  occ. eigenvalues --   -0.43580  -0.43544  -0.42904  -0.42842  -0.42670
 Alpha  occ. eigenvalues --   -0.42465  -0.42354  -0.42316  -0.42271  -0.42133
 Alpha  occ. eigenvalues --   -0.41924  -0.41804  -0.41525  -0.41408  -0.41301
 Alpha  occ. eigenvalues --   -0.41206  -0.41183  -0.40988  -0.40496  -0.40392
 Alpha  occ. eigenvalues --   -0.39886  -0.39619  -0.39531  -0.39360  -0.39204
 Alpha  occ. eigenvalues --   -0.38707  -0.38282  -0.37853  -0.37731  -0.37726
 Alpha  occ. eigenvalues --   -0.37546  -0.37320  -0.37119  -0.36920  -0.36683
 Alpha  occ. eigenvalues --   -0.35994  -0.35800  -0.34732  -0.34394  -0.34229
 Alpha  occ. eigenvalues --   -0.34020  -0.33247  -0.33134  -0.31805  -0.31672
 Alpha  occ. eigenvalues --   -0.31154  -0.30901  -0.30483  -0.30439  -0.30125
 Alpha  occ. eigenvalues --   -0.30103  -0.29495  -0.29015  -0.24526  -0.24321
 Alpha  occ. eigenvalues --   -0.22065  -0.21691
 Alpha virt. eigenvalues --   -0.09636  -0.09165  -0.02252  -0.01904   0.00109
 Alpha virt. eigenvalues --    0.00120   0.01318   0.01987   0.02300   0.02438
 Alpha virt. eigenvalues --    0.04596   0.04952   0.05367   0.05482   0.05938

 Mulliken charges:
               1
     1  Mg   0.798141
     2  C    0.011945
     3  C   -0.057791
     4  C   -0.074830
     5  C   -0.069241
     6  N   -0.239907
     7  C   -0.031578
     8  C   -0.030213
     9  C   -0.077615
    10  C    0.066880
    11  C    0.065558
    12  C    0.047208
    13  C   -0.074951
    14  H    0.019476
    15  N   -0.433563
    16  C    0.129044
    17  C   -0.132437
    18  C   -0.006604
    19  C    0.148050
    20  C    0.133183
    21  C   -0.016208
    22  O   -0.242213
    23  C    0.083979
    24  N   -0.253737
    25  C    0.012187
    26  C   -0.005294
    27  C   -0.034253
    28  C    0.078876
    29  C    0.065234
    30  C    0.032660
    31  C   -0.000139
    32  N   -0.354075
    33  C    0.076861
    34  C   -0.160959
    35  C    0.052091
    36  C    0.082347
    37  C    0.092146
    38  C   -0.004327
    39  O   -0.166659
    40  C   -0.004983
    41  C    0.184425
    42  O   -0.197630
    43  O   -0.322734
    44  C    0.181863
    45  H   -0.028855
    46  H   -0.058490
    47  H   -0.032834
    48  H   -0.003291
    49  H    0.010751
    50  H    0.015797
    51  H    0.005703
    52  H    0.017990
    53  H   -0.000013
    54  H    0.007498
    55  H    0.057268
    56  H    0.043820
    57  H    0.029004
    58  H    0.009120
    59  H    0.039474
    60  H    0.034010
    61  H    0.054635
    62  H    0.027293
    63  H    0.023386
    64  H    0.016283
    65  H    0.015838
    66  H    0.029128
    67  H    0.005159
    68  H    0.011850
    69  H    0.004242
    70  H    0.012678
    71  H    0.012386
    72  H    0.025525
    73  H    0.015466
    74  H    0.034026
    75  H    0.016209
    76  H    0.059547
    77  H    0.045611
    78  H    0.040550
    79  H    0.033022
    80  Mg   0.797082
    81  C    0.074299
    82  C   -0.042905
    83  C   -0.055069
    84  C   -0.052528
    85  N   -0.300176
    86  C   -0.060021
    87  C   -0.022701
    88  C   -0.080419
    89  C    0.067121
    90  C    0.078314
    91  C    0.079071
    92  C   -0.093675
    93  H    0.007857
    94  N   -0.374641
    95  C    0.119175
    96  C   -0.138937
    97  C   -0.092665
    98  C    0.150673
    99  C    0.136796
   100  C    0.043226
   101  O   -0.209588
   102  C    0.005715
   103  N   -0.267944
   104  C    0.091705
   105  C   -0.078106
   106  C   -0.006978
   107  C   -0.004248
   108  C    0.049124
   109  C    0.036202
   110  C    0.003172
   111  N   -0.332657
   112  C    0.107744
   113  C   -0.159089
   114  C    0.031361
   115  C    0.039512
   116  C    0.122515
   117  C   -0.007905
   118  O   -0.164906
   119  C    0.009220
   120  C    0.181864
   121  O   -0.214920
   122  O   -0.355671
   123  C    0.174416
   124  H   -0.037833
   125  H   -0.042764
   126  H   -0.028877
   127  H    0.010078
   128  H    0.015626
   129  H    0.021583
   130  H    0.027427
   131  H    0.022045
   132  H    0.016807
   133  H    0.017968
   134  H    0.046833
   135  H    0.036696
   136  H    0.034779
   137  H    0.033679
   138  H    0.040173
   139  H    0.045697
   140  H    0.034600
   141  H    0.021128
   142  H    0.028467
   143  H    0.005358
   144  H    0.013535
   145  H    0.019627
   146  H    0.009688
   147  H    0.018899
   148  H    0.003470
   149  H    0.014467
   150  H    0.015771
   151  H    0.017340
   152  H    0.038907
   153  H    0.023619
   154  H    0.023950
   155  H    0.036531
   156  H    0.051102
   157  H    0.034556
   158  H    0.038648
 Sum of Mulliken charges =  -0.00000

 Dipole moment (field-independent basis, Debye):
    X=             -4.6200    Y=              6.6597    Z=             -2.3753  Tot=              8.4461
 Quadrupole moment (field-independent basis, Debye-Ang):
   XX=           -558.4043   YY=           -487.5977   ZZ=           -509.9283
   XY=             83.9521   XZ=              2.2769   YZ=             -6.3050

 Normal termination of Gaussian 16 at Wed Sep 15 19:07:01 2021.
