 Gaussian 16, Revision A.03,
 Gaussian 16:  ES64L-G16RevA.03 25-Dec-2016

 -----------------------------------
 #p cam-b3lyp/Def2SVP td=(nstates=5)
 -----------------------------------

 --------------------------------
 TDDFT excited states in gaussian
 --------------------------------
 Symbolic Z-matrix:
 Charge =  0 Multiplicity = 1

                         Standard orientation:
 ---------------------------------------------------------------------
 Center     Atomic      Atomic             Coordinates (Angstroms)
 Number     Number       Type             X           Y           Z
 ---------------------------------------------------------------------
      1         12           0       11.002962    0.184931   -0.057984
      2          6           0        7.818428    0.160910    1.765141
      3          6           0       10.500936   -3.223649   -0.388489
      4          6           0       13.094381    0.293423   -2.462993
      5          6           0       10.808442    3.763915    0.196583
      6          7           0        9.174152   -1.346876    0.545171
      7          6           0        8.023326   -1.137651    1.273242
      8          6           0        7.182189   -2.465764    1.310333
      9          6           0        8.171087   -3.561038    0.874831
     10          6           0        9.346761   -2.674822    0.312438
     11          6           0        8.735256   -4.553851    1.974341
     12          6           0        5.863850   -2.400717    0.465564
     13          6           0        4.647494   -3.073873    1.064019
     14          1           0        4.266396   -4.474229    0.489276
     15          7           0       11.794232   -1.248249   -1.170275
     16          6           0       11.568183   -2.596683   -1.114110
     17          6           0       12.424327   -3.293900   -2.112458
     18          6           0       13.161831   -2.251693   -2.732259
     19          6           0       12.664313   -1.004561   -2.156864
     20          6           0       12.429146   -4.795045   -2.444503
     21          6           0       14.093435   -2.333853   -3.944899
     22          8           0       14.331727   -3.451341   -4.394948
     23          6           0       14.719433   -1.229884   -4.558551
     24          7           0       11.636482    1.867667   -1.183135
     25          6           0       12.733392    1.577711   -1.970042
     26          6           0       13.368685    2.941968   -2.443874
     27          6           0       12.417987    4.027142   -1.822585
     28          6           0       11.638252    3.168147   -0.798355
     29          6           0       14.864421    3.150786   -2.080292
     30          6           0       11.480341    4.862896   -2.784177
     31          6           0       12.099100    6.045251   -3.549966
     32          7           0        9.679405    1.732252    0.816039
     33          6           0        9.824871    3.100248    0.931817
     34          6           0        8.835619    3.673965    1.811612
     35          6           0        8.023985    2.536604    2.180452
     36          6           0        8.503349    1.348259    1.526479
     37          6           0        8.722326    5.137117    2.110490
     38          6           0        6.875345    2.174293    2.883064
     39          8           0        6.010642    2.855907    3.416780
     40          6           0        6.601256    0.677089    2.559076
     41          6           0        6.532555    0.003837    3.909922
     42          8           0        5.622367   -0.759045    4.243328
     43          8           0        7.702581    0.176050    4.753958
     44          6           0        7.733088   -0.773188    5.865507
     45          1           0       10.407007   -4.309608   -0.446254
     46          1           0       13.936912    0.470505   -3.134728
     47          1           0       10.933812    4.847311    0.249672
     48          1           0        6.997383   -2.726923    2.353301
     49          1           0        7.801500   -4.123072    0.017152
     50          1           0        8.220366   -5.495050    1.782801
     51          1           0        8.450377   -4.234808    2.976497
     52          1           0        9.819838   -4.657992    2.003125
     53          1           0        5.908046   -2.927807   -0.487840
     54          1           0        5.567708   -1.363803    0.305333
     55          1           0        3.830573   -2.354043    1.012827
     56          1           0        4.853088   -3.240307    2.121916
     57          1           0       13.452853   -5.133577   -2.606459
     58          1           0       11.784892   -4.869144   -3.320524
     59          1           0       12.054880   -5.382062   -1.606894
     60          1           0       15.437368   -0.814033   -3.850911
     61          1           0       14.037120   -0.481470   -4.961691
     62          1           0       15.142725   -1.704096   -5.444679
     63          1           0       13.336053    3.089216   -3.522869
     64          1           0       12.972135    4.732620   -1.203929
     65          1           0       14.889475    4.074311   -1.501702
     66          1           0       15.426226    3.273992   -3.005670
     67          1           0       15.118719    2.246252   -1.526442
     68          1           0       10.705938    5.237816   -2.114176
     69          1           0       11.089158    4.237966   -3.587279
     70          1           0       13.107221    6.046589   -3.134496
     71          1           0       11.663308    6.993467   -3.231983
     72          1           0       12.126442    5.973787   -4.637008
     73          1           0        8.606493    5.619007    1.140571
     74          1           0        9.638217    5.571510    2.510770
     75          1           0        7.799611    5.394102    2.630875
     76          1           0        5.613112    0.629920    2.101827
     77          1           0        8.816662   -0.757063    5.988573
     78          1           0        7.208268   -1.699266    5.630994
     79          1           0        7.315882   -0.248651    6.725190
     80         12           0      -10.433942    0.135682   -0.639335
     81          6           0       -7.999636   -1.753972    0.879606
     82          6           0       -9.625632    2.781882    1.597601
     83          6           0      -13.122683    1.918589   -1.650069
     84          6           0      -11.411302   -2.468723   -2.513497
     85          7           0       -8.971146    0.463380    1.054475
     86          6           0       -8.089943   -0.494204    1.479768
     87          6           0       -7.157496    0.057513    2.560551
     88          6           0       -7.867459    1.453071    2.881070
     89          6           0       -8.886470    1.585791    1.787378
     90          6           0       -8.432428    1.567561    4.344423
     91          6           0       -5.648046    0.240478    2.072841
     92          6           0       -4.464298   -0.156676    2.921604
     93          1           0       -4.447301    0.256865    4.350330
     94          7           0      -11.264428    2.123092   -0.153053
     95          6           0      -10.702746    3.078307    0.620106
     96          6           0      -11.389320    4.320276    0.495289
     97          6           0      -12.411638    4.110769   -0.483289
     98          6           0      -12.327248    2.642343   -0.742020
     99          6           0      -10.965887    5.462672    1.361115
    100          6           0      -13.486733    5.073851   -0.957181
    101          8           0      -14.478039    4.698792   -1.590997
    102          6           0      -13.380436    6.555230   -0.640245
    103          7           0      -12.164177   -0.274317   -1.811586
    104          6           0      -13.060649    0.677588   -2.182037
    105          6           0      -13.997033    0.145054   -3.265376
    106          6           0      -13.310191   -1.218488   -3.656247
    107          6           0      -12.221434   -1.335955   -2.607930
    108          6           0      -15.534008    0.054234   -3.031596
    109          6           0      -12.814085   -1.363857   -5.155299
    110          6           0      -11.391738   -1.005504   -5.530613
    111          7           0       -9.929693   -1.745102   -0.743895
    112          6           0      -10.281768   -2.718993   -1.643594
    113          6           0       -9.617109   -3.952266   -1.427974
    114          6           0       -8.664522   -3.615246   -0.471488
    115          6           0       -8.881839   -2.261414   -0.107479
    116          6           0       -9.717972   -5.321029   -2.088470
    117          6           0       -7.606806   -4.080087    0.314191
    118          8           0       -7.149863   -5.206919    0.370789
    119          6           0       -7.084778   -2.890337    1.299440
    120          6           0       -7.258386   -3.341172    2.674742
    121          8           0       -8.346946   -3.576470    3.235685
    122          8           0       -6.084631   -3.547498    3.328638
    123          6           0       -6.098816   -4.294095    4.591629
    124          1           0       -9.233453    3.545207    2.272318
    125          1           0      -13.816952    2.557603   -2.199334
    126          1           0      -11.446544   -3.190618   -3.331186
    127          1           0       -7.113223   -0.664678    3.376769
    128          1           0       -7.159480    2.280371    2.828862
    129          1           0       -7.939818    2.413300    4.822947
    130          1           0       -8.254806    0.585562    4.783204
    131          1           0       -9.482372    1.852585    4.417916
    132          1           0       -5.613390    1.316336    1.900392
    133          1           0       -5.522598   -0.114548    1.050488
    134          1           0       -3.536910    0.116729    2.418365
    135          1           0       -4.516443   -1.242145    2.998002
    136          1           0      -10.932078    6.320665    0.690687
    137          1           0       -9.948280    5.316833    1.724327
    138          1           0      -11.603041    5.680943    2.218821
    139          1           0      -12.377197    6.964574   -0.762406
    140          1           0      -13.891559    6.766068    0.300117
    141          1           0      -13.975451    7.034863   -1.418015
    142          1           0      -13.942269    0.915795   -4.034480
    143          1           0      -14.002854   -2.059125   -3.640870
    144          1           0      -15.840984   -0.987552   -2.940280
    145          1           0      -16.001407    0.482876   -3.917952
    146          1           0      -15.728593    0.632182   -2.128818
    147          1           0      -13.477280   -0.745906   -5.759087
    148          1           0      -12.934566   -2.396376   -5.483934
    149          1           0      -11.356448   -0.309398   -6.368973
    150          1           0      -10.775485   -1.869680   -5.782212
    151          1           0      -10.979363   -0.537415   -4.636760
    152          1           0      -10.445333   -5.271868   -2.899704
    153          1           0      -10.009017   -6.058452   -1.339979
    154          1           0       -8.737451   -5.586844   -2.482465
    155          1           0       -6.022619   -2.892503    1.052954
    156          1           0       -5.147692   -4.765250    4.839956
    157          1           0       -6.931114   -4.985487    4.719923
    158          1           0       -6.148252   -3.528415    5.365988
 ---------------------------------------------------------------------

 SCF Done:  E(RCAM-B3LYP) =  -4069.78239415     A.U. after   18 cycles

 Excitation energies and oscillator strengths:

 Excited State   1:      Singlet-A      1.7187 eV  721.37 nm  f=0.1451  <S**2>=0.000
     310 -> 316       -0.16220
     311 -> 314       -0.27682
     312 -> 313        0.62717
 This state for optimization and/or second-order correction.
 Total Energy, E(TD-HF/TD-DFT) =  -4069.71923155
 Copying the excited state density for this state as the 1-particle RhoCI density.

 Excited State   2:      Singlet-A      1.7234 eV  719.43 nm  f=0.6171  <S**2>=0.000
     309 -> 315        0.17997
     311 -> 314        0.62042
     312 -> 313        0.27937
     309 <- 315        0.10080

 Excited State   3:      Singlet-A      2.1900 eV  566.14 nm  f=0.1782  <S**2>=0.000
     310 -> 313        0.66244
     312 -> 316        0.23681

 Excited State   4:      Singlet-A      2.2418 eV  553.05 nm  f=0.0693  <S**2>=0.000
     309 -> 314        0.61597
     311 -> 315       -0.33039

 Excited State   5:      Singlet-A      2.9482 eV  420.54 nm  f=0.0000  <S**2>=0.000
     312 -> 314        0.70702

 The electronic state is 1-A.
 Alpha  occ. eigenvalues --  -46.90820 -46.88956 -19.24878 -19.23782 -19.20157
 Alpha  occ. eigenvalues --  -19.18839 -19.18743 -19.18442 -19.18349 -19.17941
 Alpha  occ. eigenvalues --  -14.42772 -14.42074 -14.41974 -14.41395 -14.40868
 Alpha  occ. eigenvalues --  -14.39431 -14.39351 -14.39201 -10.39458 -10.38759
 Alpha  occ. eigenvalues --  -10.35233 -10.34983 -10.34367 -10.33580 -10.32373
 Alpha  occ. eigenvalues --  -10.31943 -10.31643 -10.31587 -10.31427 -10.31418
 Alpha  occ. eigenvalues --  -10.31068 -10.30904 -10.30844 -10.30710 -10.30288
 Alpha  occ. eigenvalues --  -10.29988 -10.29929 -10.29899 -10.29737 -10.29712
 Alpha  occ. eigenvalues --  -10.29454 -10.29298 -10.28974 -10.28960 -10.28883
 Alpha  occ. eigenvalues --  -10.28855 -10.28583 -10.28461 -10.28395 -10.28357
 Alpha  occ. eigenvalues --  -10.28276 -10.28252 -10.28240 -10.28213 -10.28122
 Alpha  occ. eigenvalues --  -10.28098 -10.27859 -10.27814 -10.27797 -10.27526
 Alpha  occ. eigenvalues --  -10.27517 -10.27398 -10.27379 -10.27314 -10.27194
 Alpha  occ. eigenvalues --  -10.27018 -10.26913 -10.26911 -10.26851 -10.26764
 Alpha  occ. eigenvalues --  -10.26702 -10.26701 -10.26606 -10.26460 -10.26292
 Alpha  occ. eigenvalues --  -10.26286 -10.26258 -10.26122 -10.26056 -10.25909
 Alpha  occ. eigenvalues --  -10.25864 -10.25602 -10.25298 -10.25061 -10.24930
 Alpha  occ. eigenvalues --  -10.24471  -3.19231  -3.17565  -1.94076  -1.93738
 Alpha  occ. eigenvalues --   -1.93496  -1.92448  -1.91981  -1.91914  -1.15667
 Alpha  occ. eigenvalues --   -1.14014  -1.10507  -1.09734  -1.09329  -1.09057
 Alpha  occ. eigenvalues --   -1.06416  -1.05671  -1.05224  -1.05091  -1.04495
 Alpha  occ. eigenvalues --   -1.04003  -1.03428  -1.03399  -1.03321  -1.01145
 Alpha  occ. eigenvalues --   -0.92953  -0.92451  -0.89060  -0.88999  -0.88881
 Alpha  occ. eigenvalues --   -0.88569  -0.88120  -0.87996  -0.87627  -0.87277
 Alpha  occ. eigenvalues --   -0.87050  -0.86986  -0.86265  -0.85996  -0.85078
 Alpha  occ. eigenvalues --   -0.84108  -0.83930  -0.83752  -0.83622  -0.82591
 Alpha  occ. eigenvalues --   -0.82508  -0.81687  -0.81216  -0.81002  -0.80171
 Alpha  occ. eigenvalues --   -0.79946  -0.78314  -0.78245  -0.77420  -0.77335
 Alpha  occ. eigenvalues --   -0.77094  -0.76917  -0.76081  -0.75893  -0.75337
 Alpha  occ. eigenvalues --   -0.75334  -0.73393  -0.72904  -0.71985  -0.71389
 Alpha  occ. eigenvalues --   -0.69510  -0.69205  -0.69054  -0.68663  -0.67925
 Alpha  occ. eigenvalues --   -0.67774  -0.67067  -0.66952  -0.65626  -0.65438
 Alpha  occ. eigenvalues --   -0.65434  -0.65111  -0.64975  -0.64629  -0.64091
 Alpha  occ. eigenvalues --   -0.64053  -0.62069  -0.61975  -0.60444  -0.60040
 Alpha  occ. eigenvalues --   -0.59876  -0.59673  -0.59328  -0.58981  -0.58904
 Alpha  occ. eigenvalues --   -0.58125  -0.57745  -0.57230  -0.57159  -0.57059
 Alpha  occ. eigenvalues --   -0.56832  -0.56096  -0.55670  -0.55232  -0.54854
 Alpha  occ. eigenvalues --   -0.54834  -0.54742  -0.54389  -0.54008  -0.53903
 Alpha  occ. eigenvalues --   -0.53848  -0.53609  -0.53365  -0.53127  -0.52969
 Alpha  occ. eigenvalues --   -0.52952  -0.52630  -0.52546  -0.52473  -0.52060
 Alpha  occ. eigenvalues --   -0.52048  -0.51902  -0.51804  -0.51499  -0.51281
 Alpha  occ. eigenvalues --   -0.51087  -0.50685  -0.50602  -0.50425  -0.50058
 Alpha  occ. eigenvalues --   -0.49960  -0.49916  -0.49700  -0.49572  -0.49385
 Alpha  occ. eigenvalues --   -0.49192  -0.49042  -0.49017  -0.48933  -0.48703
 Alpha  occ. eigenvalues --   -0.48640  -0.48611  -0.48453  -0.48406  -0.48226
 Alpha  occ. eigenvalues --   -0.48062  -0.48026  -0.47799  -0.47655  -0.47403
 Alpha  occ. eigenvalues --   -0.47332  -0.47003  -0.46796  -0.46719  -0.46577
 Alpha  occ. eigenvalues --   -0.46333  -0.46207  -0.46013  -0.45963  -0.45826
 Alpha  occ. eigenvalues --   -0.45731  -0.45436  -0.45159  -0.45032  -0.44790
 Alpha  occ. eigenvalues --   -0.44754  -0.44536  -0.44393  -0.44318  -0.44182
 Alpha  occ. eigenvalues --   -0.43870  -0.43798  -0.43783  -0.43654  -0.43500
 Alpha  occ. eigenvalues --   -0.43250  -0.43215  -0.43065  -0.42807  -0.42621
 Alpha  occ. eigenvalues --   -0.42519  -0.42366  -0.42119  -0.42040  -0.41999
 Alpha  occ. eigenvalues --   -0.41733  -0.41682  -0.41551  -0.41412  -0.41320
 Alpha  occ. eigenvalues --   -0.41143  -0.40927  -0.40450  -0.40329  -0.40264
 Alpha  occ. eigenvalues --   -0.40027  -0.39864  -0.39696  -0.39363  -0.39298
 Alpha  occ. eigenvalues --   -0.38920  -0.38384  -0.38088  -0.37926  -0.37581
 Alpha  occ. eigenvalues --   -0.37220  -0.37120  -0.36421  -0.36385  -0.35855
 Alpha  occ. eigenvalues --   -0.35479  -0.35436  -0.34547  -0.34403  -0.33923
 Alpha  occ. eigenvalues --   -0.33263  -0.33262  -0.32731  -0.31804  -0.31457
 Alpha  occ. eigenvalues --   -0.31192  -0.31098  -0.31082  -0.30743  -0.30264
 Alpha  occ. eigenvalues --   -0.30232  -0.29949  -0.28810  -0.24530  -0.23684
 Alpha  occ. eigenvalues --   -0.21518  -0.21317
 Alpha virt. eigenvalues --   -0.08938  -0.08850  -0.02761  -0.01042  -0.00425
 Alpha virt. eigenvalues --    0.00375   0.00524   0.01995   0.02107   0.02622
 Alpha virt. eigenvalues --    0.04324   0.04748   0.04939   0.05449   0.06308

 Mulliken charges:
               1
     1  Mg   0.834537
     2  C   -0.008392
     3  C   -0.051015
     4  C   -0.074910
     5  C   -0.087964
     6  N   -0.224682
     7  C   -0.070897
     8  C    0.059382
     9  C   -0.071655
    10  C   -0.036522
    11  C    0.062043
    12  C    0.059750
    13  C   -0.072383
    14  H    0.008784
    15  N   -0.409513
    16  C    0.147911
    17  C   -0.174396
    18  C   -0.015296
    19  C    0.192251
    20  C    0.144593
    21  C   -0.033239
    22  O   -0.215544
    23  C    0.089220
    24  N   -0.319294
    25  C    0.023146
    26  C   -0.073002
    27  C   -0.047440
    28  C    0.019157
    29  C    0.084294
    30  C    0.042813
    31  C    0.012932
    32  N   -0.344536
    33  C    0.143185
    34  C   -0.151220
    35  C    0.030803
    36  C    0.129188
    37  C    0.139522
    38  C   -0.006601
    39  O   -0.180380
    40  C   -0.020383
    41  C    0.217619
    42  O   -0.226461
    43  O   -0.389984
    44  C    0.179619
    45  H   -0.026096
    46  H   -0.046856
    47  H   -0.027892
    48  H    0.012245
    49  H    0.018022
    50  H    0.026604
    51  H    0.015295
    52  H    0.028918
    53  H    0.025306
    54  H    0.018661
    55  H    0.033877
    56  H    0.030219
    57  H    0.044931
    58  H    0.045557
    59  H    0.009123
    60  H    0.054042
    61  H    0.041900
    62  H    0.028174
    63  H    0.008483
    64  H   -0.003895
    65  H    0.016889
    66  H    0.020128
    67  H    0.021343
    68  H    0.004756
    69  H    0.011178
    70  H   -0.004424
    71  H    0.017387
    72  H    0.028239
    73  H    0.012301
    74  H    0.025077
    75  H    0.037330
    76  H    0.040160
    77  H    0.031640
    78  H    0.052891
    79  H    0.033446
    80  Mg   0.838472
    81  C    0.011661
    82  C   -0.053382
    83  C   -0.054371
    84  C   -0.075096
    85  N   -0.259041
    86  C   -0.044524
    87  C   -0.039968
    88  C   -0.067841
    89  C    0.025086
    90  C    0.071283
    91  C    0.050612
    92  C   -0.047115
    93  H    0.017759
    94  N   -0.276087
    95  C    0.108746
    96  C   -0.140126
    97  C   -0.039058
    98  C    0.073787
    99  C    0.126544
   100  C   -0.001627
   101  O   -0.216744
   102  C    0.046257
   103  N   -0.278558
   104  C    0.028270
   105  C   -0.031786
   106  C    0.005597
   107  C    0.043856
   108  C    0.083035
   109  C   -0.011393
   110  C    0.012564
   111  N   -0.385165
   112  C    0.091533
   113  C   -0.180451
   114  C    0.092712
   115  C    0.102407
   116  C    0.138706
   117  C   -0.042620
   118  O   -0.171851
   119  C    0.016480
   120  C    0.193062
   121  O   -0.253244
   122  O   -0.327046
   123  C    0.186288
   124  H   -0.035086
   125  H   -0.008623
   126  H   -0.024329
   127  H    0.024703
   128  H    0.018731
   129  H    0.010517
   130  H    0.028688
   131  H    0.018597
   132  H   -0.011243
   133  H    0.007438
   134  H    0.033696
   135  H    0.033009
   136  H    0.009084
   137  H    0.015047
   138  H    0.039509
   139  H    0.033254
   140  H    0.047528
   141  H    0.024559
   142  H    0.009655
   143  H    0.009680
   144  H    0.014984
   145  H    0.018286
   146  H    0.029834
   147  H    0.004165
   148  H    0.004578
   149  H    0.014577
   150  H    0.015272
   151  H    0.016316
   152  H    0.004142
   153  H    0.043639
   154  H    0.038407
   155  H    0.031078
   156  H    0.035483
   157  H    0.057722
   158  H    0.019479
 Sum of Mulliken charges =  -0.00000

 Dipole moment (field-independent basis, Debye):
    X=              7.3490    Y=              4.0781    Z=             -2.7456  Tot=              8.8418
 Quadrupole moment (field-independent basis, Debye-Ang):
   XX=           -482.3338   YY=           -506.6490   ZZ=           -503.0166
   XY=              8.3706   XZ=             22.3505   YZ=            -12.5265

 Normal termination of Gaussian 16 at Thu Sep 16 04:47:21 2021.
