 Gaussian 16, Revision A.03,
 Gaussian 16:  ES64L-G16RevA.03 25-Dec-2016

 ----------------------------------------------------------
 #p cam-b3lyp/Def2SVP td=(nstates=5) density=(transition=1)
 ----------------------------------------------------------

 --------------------------------
 TDDFT excited states in gaussian
 --------------------------------
 Symbolic Z-matrix:
 Charge =  0 Multiplicity = 1

                         Standard orientation:
 ---------------------------------------------------------------------
 Center     Atomic      Atomic             Coordinates (Angstroms)
 Number     Number       Type             X           Y           Z
 ---------------------------------------------------------------------
      1         12           0       16.657023   -0.688939    0.175005
      2          6           0       15.389208    2.372009   -1.393639
      3          6           0       17.469915    1.313680    2.932660
      4          6           0       18.123644   -3.283770    1.495405
      5          6           0       15.610082   -2.479911   -2.555977
      6          7           0       16.644949    1.579818    0.617951
      7          6           0       15.965226    2.648222   -0.104123
      8          6           0       16.059788    4.025363    0.587077
      9          6           0       16.943595    3.601334    1.898407
     10          6           0       17.066043    2.065741    1.848156
     11          6           0       18.285802    4.301672    1.983935
     12          6           0       14.637932    4.612501    0.838309
     13          6           0       14.584322    5.793016    1.760803
     14          1           0       13.722802    6.984600    1.406430
     15          7           0       17.701132   -0.979959    1.979563
     16          6           0       17.929134   -0.044628    2.995317
     17          6           0       18.637132   -0.683783    4.102974
     18          6           0       18.842394   -2.068014    3.704595
     19          6           0       18.219014   -2.199917    2.335982
     20          6           0       18.988887    0.011318    5.469207
     21          6           0       19.546106   -3.191196    4.377083
     22          8           0       19.621522   -4.332736    3.942401
     23          6           0       20.117822   -3.003795    5.721104
     24          7           0       16.760062   -2.572797   -0.375889
     25          6           0       17.525542   -3.462218    0.259146
     26          6           0       17.507852   -4.854547   -0.414225
     27          6           0       16.377977   -4.681077   -1.407870
     28          6           0       16.262141   -3.111602   -1.521702
     29          6           0       18.832207   -5.221309   -1.073846
     30          6           0       15.014793   -5.292671   -1.212667
     31          6           0       14.269261   -4.778311    0.000239
     32          7           0       15.791917   -0.196255   -1.654368
     33          6           0       15.328416   -1.087575   -2.638832
     34          6           0       14.717401   -0.330015   -3.703078
     35          6           0       14.686080    0.982971   -3.166750
     36          6           0       15.358368    1.032577   -1.930704
     37          6           0       14.070534   -0.833396   -4.960344
     38          6           0       14.149864    2.342108   -3.486643
     39          8           0       13.404831    2.731216   -4.411337
     40          6           0       14.630570    3.251432   -2.357936
     41          6           0       15.420681    4.428329   -2.934087
     42          8           0       16.516075    4.445316   -3.569463
     43          8           0       14.799023    5.566104   -2.511747
     44          6           0       15.456523    6.836748   -2.892555
     45          1           0       17.534348    1.891140    3.856182
     46          1           0       18.662670   -4.148264    1.888419
     47          1           0       15.274457   -2.980296   -3.466831
     48          1           0       16.532282    4.677657   -0.147277
     49          1           0       16.343316    3.764082    2.793572
     50          1           0       18.328375    4.853232    2.923557
     51          1           0       18.316533    5.005392    1.152866
     52          1           0       19.172595    3.726757    1.718031
     53          1           0       14.018199    3.760917    1.121223
     54          1           0       14.221498    4.928376   -0.118277
     55          1           0       15.522031    6.313794    1.953318
     56          1           0       14.142860    5.485491    2.708333
     57          1           0       18.433572   -0.555655    6.216941
     58          1           0       18.676485    1.054294    5.518967
     59          1           0       20.067761   -0.087872    5.589427
     60          1           0       20.657720   -2.064656    5.843793
     61          1           0       20.810138   -3.839039    5.820757
     62          1           0       19.242198   -2.899200    6.361040
     63          1           0       17.302136   -5.583519    0.369682
     64          1           0       16.629115   -5.086271   -2.388503
     65          1           0       19.033637   -6.274178   -0.879777
     66          1           0       19.652883   -4.631531   -0.666885
     67          1           0       18.736170   -5.180681   -2.159444
     68          1           0       15.130731   -6.376776   -1.224174
     69          1           0       14.334815   -4.992501   -2.009757
     70          1           0       13.821230   -5.586344    0.577393
     71          1           0       13.423117   -4.143289   -0.263178
     72          1           0       14.887603   -4.223819    0.706249
     73          1           0       13.066532   -0.418463   -5.045850
     74          1           0       13.957841   -1.902612   -5.139565
     75          1           0       14.670530   -0.463932   -5.792233
     76          1           0       13.754217    3.698788   -1.888050
     77          1           0       16.023872    7.225125   -2.047009
     78          1           0       14.571210    7.395048   -3.196930
     79          1           0       16.052782    6.741746   -3.800958
     80         12           0      -16.051161   -0.753456   -0.232538
     81          6           0      -18.032199    1.997634    0.674136
     82          6           0      -13.801762    1.249332   -1.664513
     83          6           0      -14.403238   -3.415345   -1.052487
     84          6           0      -18.993704   -2.757160    0.411888
     85          7           0      -16.032423    1.380037   -0.532777
     86          6           0      -16.798607    2.322861    0.030121
     87          6           0      -16.386469    3.709880   -0.390777
     88          6           0      -15.274485    3.418278   -1.476697
     89          6           0      -14.998287    1.950516   -1.214047
     90          6           0      -15.600998    3.716182   -2.976096
     91          6           0      -15.740708    4.509895    0.852765
     92          6           0      -16.311870    5.955324    1.026706
     93          1           0      -15.875811    6.602210    2.450707
     94          7           0      -14.274227   -1.022543   -0.973675
     95          6           0      -13.427354   -0.059463   -1.495252
     96          6           0      -12.139673   -0.657530   -1.717185
     97          6           0      -12.225291   -2.096112   -1.517743
     98          6           0      -13.653791   -2.257206   -1.045742
     99          6           0      -10.986426    0.226106   -2.273556
    100          6           0      -11.267776   -3.275841   -1.641510
    101          8           0      -11.507907   -4.457270   -1.333573
    102          6           0       -9.907289   -2.863035   -2.079670
    103          7           0      -16.735730   -2.734368   -0.431364
    104          6           0      -15.768027   -3.630786   -0.812454
    105          6           0      -16.358329   -5.030018   -0.990970
    106          6           0      -17.705303   -4.890796   -0.234215
    107          6           0      -17.876212   -3.374753   -0.119727
    108          6           0      -16.384957   -5.413906   -2.523636
    109          6           0      -17.790400   -5.612017    1.177581
    110          6           0      -19.193888   -5.987613    1.679328
    111          7           0      -18.100639   -0.492719    0.447096
    112          6           0      -19.109445   -1.386521    0.643129
    113          6           0      -20.263235   -0.750505    1.238573
    114          6           0      -19.823775    0.583278    1.324130
    115          6           0      -18.538443    0.707713    0.777645
    116          6           0      -21.635166   -1.303123    1.688691
    117          6           0      -20.226707    1.884363    1.779974
    118          8           0      -21.145849    2.278673    2.448770
    119          6           0      -19.104965    2.894721    1.203328
    120          6           0      -18.892924    3.758836    2.367553
    121          8           0      -18.166342    3.565823    3.374963
    122          8           0      -19.669423    4.833664    2.146992
    123          6           0      -19.708136    5.881740    3.167821
    124          1           0      -13.017430    1.901833   -2.054148
    125          1           0      -13.826967   -4.320492   -1.256135
    126          1           0      -19.817316   -3.422870    0.678249
    127          1           0      -17.193386    4.340708   -0.764691
    128          1           0      -14.309512    3.899047   -1.315004
    129          1           0      -15.681861    2.760046   -3.493140
    130          1           0      -14.738855    4.269901   -3.347444
    131          1           0      -16.515927    4.257476   -3.214382
    132          1           0      -14.651536    4.563681    0.870343
    133          1           0      -15.901751    3.883547    1.730249
    134          1           0      -17.400483    5.944912    0.976811
    135          1           0      -15.941372    6.689960    0.312169
    136          1           0      -10.449239    0.647406   -1.424944
    137          1           0      -11.327359    1.160851   -2.720354
    138          1           0      -10.396171   -0.185814   -3.091770
    139          1           0       -9.400762   -2.176202   -1.402513
    140          1           0      -10.106683   -2.444569   -3.066948
    141          1           0       -9.229784   -3.699729   -2.252384
    142          1           0      -15.664321   -5.699073   -0.482054
    143          1           0      -18.497764   -5.347506   -0.827038
    144          1           0      -17.406910   -5.385440   -2.901451
    145          1           0      -16.018794   -6.395367   -2.823783
    146          1           0      -15.897532   -4.722093   -3.210913
    147          1           0      -17.467441   -4.828602    1.863726
    148          1           0      -17.178927   -6.502013    1.327828
    149          1           0      -19.477221   -5.422587    2.568291
    150          1           0      -19.408136   -7.026402    1.931391
    151          1           0      -19.877841   -5.623625    0.913916
    152          1           0      -21.798842   -2.202766    1.095433
    153          1           0      -22.427679   -0.573141    1.518684
    154          1           0      -21.526636   -1.568490    2.740258
    155          1           0      -19.534804    3.500700    0.405556
    156          1           0      -19.207855    6.765907    2.773154
    157          1           0      -19.348824    5.530072    4.134357
    158          1           0      -20.744112    6.197620    3.289969
 ---------------------------------------------------------------------

 SCF Done:  E(RCAM-B3LYP) =  -4069.81321333     A.U. after   19 cycles

 Excitation energies and oscillator strengths:

 Excited State   1:      Singlet-A      1.6631 eV  745.49 nm  f=0.4022  <S**2>=0.000
     309 -> 316       -0.16578
     311 -> 313        0.68873
     309 <- 316       -0.10532
 This state for optimization and/or second-order correction.
 Total Energy, E(TD-HF/TD-DFT) =  -4069.75209469
 Copying the excited state density for this state as the 1-particle RhoCI density.

 Excited State   2:      Singlet-A      1.7272 eV  717.81 nm  f=0.3789  <S**2>=0.000
     310 -> 315        0.19741
     312 -> 314        0.68083
     310 <- 315        0.11060

 Excited State   3:      Singlet-A      2.1714 eV  570.99 nm  f=0.1367  <S**2>=0.000
     309 -> 313        0.65261
     311 -> 316        0.25467

 Excited State   4:      Singlet-A      2.2497 eV  551.12 nm  f=0.0629  <S**2>=0.000
     310 -> 314        0.61702
     312 -> 315       -0.33570

 Excited State   5:      Singlet-A      2.9241 eV  424.01 nm  f=0.0000  <S**2>=0.000
     312 -> 313        0.70710

 The electronic state is 1-A.
 Alpha  occ. eigenvalues --  -46.87790 -46.87562 -19.25797 -19.24860 -19.19671
 Alpha  occ. eigenvalues --  -19.19657 -19.19028 -19.18795 -19.18505 -19.18421
 Alpha  occ. eigenvalues --  -14.42587 -14.42533 -14.42198 -14.41719 -14.39991
 Alpha  occ. eigenvalues --  -14.39447 -14.38896 -14.38395 -10.39991 -10.38561
 Alpha  occ. eigenvalues --  -10.35982 -10.34768 -10.34687 -10.34651 -10.32008
 Alpha  occ. eigenvalues --  -10.31949 -10.31701 -10.31535 -10.31406 -10.31181
 Alpha  occ. eigenvalues --  -10.31128 -10.30999 -10.30778 -10.30726 -10.30649
 Alpha  occ. eigenvalues --  -10.30594 -10.30503 -10.30264 -10.30104 -10.30029
 Alpha  occ. eigenvalues --  -10.29459 -10.29297 -10.29219 -10.28998 -10.28992
 Alpha  occ. eigenvalues --  -10.28913 -10.28854 -10.28711 -10.28687 -10.28637
 Alpha  occ. eigenvalues --  -10.28620 -10.28530 -10.28356 -10.28285 -10.27854
 Alpha  occ. eigenvalues --  -10.27826 -10.27732 -10.27727 -10.27703 -10.27662
 Alpha  occ. eigenvalues --  -10.27598 -10.27566 -10.27543 -10.27418 -10.27292
 Alpha  occ. eigenvalues --  -10.27041 -10.27001 -10.26875 -10.26796 -10.26641
 Alpha  occ. eigenvalues --  -10.26489 -10.26425 -10.26316 -10.26248 -10.26046
 Alpha  occ. eigenvalues --  -10.25930 -10.25863 -10.25854 -10.25811 -10.25772
 Alpha  occ. eigenvalues --  -10.25754 -10.25659 -10.25357 -10.24739 -10.24593
 Alpha  occ. eigenvalues --  -10.24429  -3.16530  -3.16405  -1.91435  -1.91290
 Alpha  occ. eigenvalues --   -1.90996  -1.90872  -1.90832  -1.90719  -1.16040
 Alpha  occ. eigenvalues --   -1.15928  -1.10765  -1.10415  -1.09379  -1.07841
 Alpha  occ. eigenvalues --   -1.05800  -1.05541  -1.05181  -1.05085  -1.04293
 Alpha  occ. eigenvalues --   -1.03582  -1.02858  -1.02401  -1.02305  -1.00641
 Alpha  occ. eigenvalues --   -0.92704  -0.92342  -0.89726  -0.89100  -0.88895
 Alpha  occ. eigenvalues --   -0.88733  -0.88251  -0.88038  -0.87438  -0.87357
 Alpha  occ. eigenvalues --   -0.87034  -0.86959  -0.86254  -0.85917  -0.84806
 Alpha  occ. eigenvalues --   -0.84524  -0.84087  -0.83817  -0.82977  -0.82467
 Alpha  occ. eigenvalues --   -0.82332  -0.82259  -0.81458  -0.81258  -0.80292
 Alpha  occ. eigenvalues --   -0.80112  -0.78555  -0.78206  -0.77310  -0.77308
 Alpha  occ. eigenvalues --   -0.76908  -0.76848  -0.76003  -0.75911  -0.75532
 Alpha  occ. eigenvalues --   -0.75393  -0.72798  -0.72777  -0.72122  -0.71987
 Alpha  occ. eigenvalues --   -0.70332  -0.69483  -0.69237  -0.68790  -0.67906
 Alpha  occ. eigenvalues --   -0.67671  -0.67206  -0.67178  -0.66042  -0.65537
 Alpha  occ. eigenvalues --   -0.65098  -0.64852  -0.64698  -0.64435  -0.64364
 Alpha  occ. eigenvalues --   -0.63859  -0.61979  -0.61761  -0.60263  -0.60225
 Alpha  occ. eigenvalues --   -0.59831  -0.59198  -0.59139  -0.59118  -0.58630
 Alpha  occ. eigenvalues --   -0.58358  -0.57966  -0.57757  -0.57437  -0.57147
 Alpha  occ. eigenvalues --   -0.56316  -0.56313  -0.56027  -0.55919  -0.55517
 Alpha  occ. eigenvalues --   -0.55431  -0.55334  -0.54842  -0.54357  -0.54327
 Alpha  occ. eigenvalues --   -0.53912  -0.53494  -0.53422  -0.53203  -0.53108
 Alpha  occ. eigenvalues --   -0.52767  -0.52764  -0.52545  -0.52532  -0.52213
 Alpha  occ. eigenvalues --   -0.52165  -0.51593  -0.51421  -0.51183  -0.51018
 Alpha  occ. eigenvalues --   -0.50868  -0.50765  -0.50716  -0.50422  -0.50380
 Alpha  occ. eigenvalues --   -0.50220  -0.50156  -0.50012  -0.49830  -0.49553
 Alpha  occ. eigenvalues --   -0.49415  -0.49041  -0.48918  -0.48878  -0.48848
 Alpha  occ. eigenvalues --   -0.48579  -0.48484  -0.48476  -0.48113  -0.48102
 Alpha  occ. eigenvalues --   -0.48011  -0.47753  -0.47601  -0.47411  -0.47252
 Alpha  occ. eigenvalues --   -0.47056  -0.46866  -0.46792  -0.46557  -0.46494
 Alpha  occ. eigenvalues --   -0.46336  -0.46190  -0.46036  -0.45897  -0.45741
 Alpha  occ. eigenvalues --   -0.45706  -0.45515  -0.45476  -0.45140  -0.44979
 Alpha  occ. eigenvalues --   -0.44877  -0.44568  -0.44391  -0.44217  -0.44026
 Alpha  occ. eigenvalues --   -0.44012  -0.43723  -0.43551  -0.43525  -0.43467
 Alpha  occ. eigenvalues --   -0.43217  -0.43088  -0.42864  -0.42851  -0.42672
 Alpha  occ. eigenvalues --   -0.42648  -0.42540  -0.42237  -0.42201  -0.42068
 Alpha  occ. eigenvalues --   -0.41898  -0.41886  -0.41789  -0.41336  -0.41241
 Alpha  occ. eigenvalues --   -0.41193  -0.40990  -0.40807  -0.40575  -0.40496
 Alpha  occ. eigenvalues --   -0.40311  -0.39990  -0.39588  -0.39265  -0.39139
 Alpha  occ. eigenvalues --   -0.38928  -0.38773  -0.37834  -0.37373  -0.37367
 Alpha  occ. eigenvalues --   -0.37164  -0.36990  -0.36805  -0.36557  -0.36149
 Alpha  occ. eigenvalues --   -0.35495  -0.35212  -0.34341  -0.34134  -0.33974
 Alpha  occ. eigenvalues --   -0.33926  -0.33105  -0.32964  -0.31714  -0.31548
 Alpha  occ. eigenvalues --   -0.31307  -0.31301  -0.30536  -0.30438  -0.30353
 Alpha  occ. eigenvalues --   -0.30323  -0.29599  -0.29210  -0.24286  -0.24176
 Alpha  occ. eigenvalues --   -0.21513  -0.21107
 Alpha virt. eigenvalues --   -0.09328  -0.08430  -0.02290  -0.01696  -0.00282
 Alpha virt. eigenvalues --    0.00295   0.02153   0.02412   0.03153   0.03331
 Alpha virt. eigenvalues --    0.04470   0.04795   0.05124   0.05150   0.05699

 Mulliken charges:
               1
     1  Mg  11.997003
     2  C    6.021380
     3  C    5.986008
     4  C    5.978664
     5  C    6.015486
     6  N    7.005339
     7  C    5.966115
     8  C    6.010954
     9  C    5.991489
    10  C    6.027396
    11  C    5.992399
    12  C    6.003239
    13  C    6.000077
    14  H    0.999528
    15  N    6.990706
    16  C    6.044050
    17  C    6.021235
    18  C    6.017097
    19  C    6.037198
    20  C    6.000018
    21  C    6.011811
    22  O    8.030799
    23  C    5.996120
    24  N    7.001191
    25  C    6.037900
    26  C    5.991842
    27  C    6.001592
    28  C    5.965586
    29  C    5.997788
    30  C    6.007973
    31  C    6.005914
    32  N    7.004475
    33  C    5.952381
    34  C    5.979427
    35  C    5.991483
    36  C    5.961633
    37  C    6.004768
    38  C    5.981349
    39  O    7.967407
    40  C    6.001515
    41  C    5.997122
    42  O    7.994272
    43  O    7.998256
    44  C    6.001627
    45  H    1.011006
    46  H    1.006012
    47  H    0.990317
    48  H    0.999909
    49  H    1.000231
    50  H    1.001610
    51  H    1.014121
    52  H    0.998002
    53  H    0.997566
    54  H    1.005890
    55  H    0.994804
    56  H    0.994370
    57  H    1.017287
    58  H    1.019252
    59  H    1.016815
    60  H    1.007066
    61  H    1.015000
    62  H    1.008254
    63  H    0.999196
    64  H    0.999687
    65  H    1.003173
    66  H    0.994728
    67  H    1.014218
    68  H    0.989033
    69  H    1.004814
    70  H    0.993888
    71  H    1.006276
    72  H    0.983565
    73  H    0.983727
    74  H    0.980087
    75  H    0.981175
    76  H    0.991519
    77  H    0.993039
    78  H    0.996932
    79  H    0.997820
    80  Mg  11.999916
    81  C    6.000528
    82  C    5.999610
    83  C    5.999688
    84  C    6.000450
    85  N    7.000107
    86  C    5.999149
    87  C    6.000286
    88  C    5.999792
    89  C    6.000775
    90  C    5.999939
    91  C    6.000059
    92  C    6.000047
    93  H    0.999845
    94  N    6.999780
    95  C    6.000815
    96  C    6.000424
    97  C    6.000515
    98  C    6.000471
    99  C    5.999859
   100  C    6.000273
   101  O    8.000582
   102  C    5.999823
   103  N    7.000109
   104  C    6.000591
   105  C    5.999862
   106  C    6.000175
   107  C    5.999274
   108  C    5.999892
   109  C    6.000100
   110  C    6.000026
   111  N    7.000118
   112  C    5.999138
   113  C    5.999362
   114  C    5.999938
   115  C    5.999266
   116  C    6.000012
   117  C    5.999608
   118  O    7.999327
   119  C    5.999907
   120  C    5.999979
   121  O    7.999813
   122  O    7.999991
   123  C    6.000099
   124  H    1.000299
   125  H    1.000148
   126  H    0.999720
   127  H    0.999930
   128  H    1.000047
   129  H    1.000016
   130  H    1.000151
   131  H    1.000246
   132  H    0.999793
   133  H    1.000016
   134  H    1.000048
   135  H    0.999940
   136  H    1.000475
   137  H    1.000463
   138  H    1.000554
   139  H    1.000252
   140  H    1.000214
   141  H    1.000466
   142  H    0.999945
   143  H    0.999871
   144  H    1.000221
   145  H    1.000058
   146  H    0.999974
   147  H    0.999957
   148  H    0.999706
   149  H    1.000006
   150  H    0.999807
   151  H    1.000060
   152  H    0.999633
   153  H    0.999642
   154  H    0.999534
   155  H    0.999838
   156  H    0.999881
   157  H    0.999894
   158  H    0.999875
 Sum of Mulliken charges = 624.00000

 Dipole moment (field-independent basis, Debye):
    X=              5.8422    Y=             -2.5317    Z=              9.3274  Tot=             11.2934
 Quadrupole moment (field-independent basis, Debye-Ang):
   XX=            180.7696   YY=             -0.9306   ZZ=              5.4648
   XY=            -44.9258   XZ=            161.1317   YZ=             -4.8551

 Normal termination of Gaussian 16 at Wed Sep 22 04:54:59 2021.
