 Gaussian 16, Revision A.03,
 Gaussian 16:  ES64L-G16RevA.03 25-Dec-2016

 ----------------------------------------------------------
 #p cam-b3lyp/Def2SVP td=(nstates=5) density=(transition=1)
 ----------------------------------------------------------

 --------------------------------
 TDDFT excited states in gaussian
 --------------------------------
 Symbolic Z-matrix:
 Charge =  0 Multiplicity = 1

                         Standard orientation:
 ---------------------------------------------------------------------
 Center     Atomic      Atomic             Coordinates (Angstroms)
 Number     Number       Type             X           Y           Z
 ---------------------------------------------------------------------
      1         12           0      -11.881595   -0.012396   -0.027870
      2          6           0       -9.111476   -1.003980    1.957492
      3          6           0      -11.257066    3.261066    1.002436
      4          6           0      -13.576086    0.945808   -2.682430
      5          6           0      -12.037018   -3.496779   -1.140924
      6          7           0      -10.141247    1.039748    1.176287
      7          6           0       -9.346278    0.390131    2.062367
      8          6           0       -8.720781    1.398527    3.009334
      9          6           0       -9.759941    2.516148    3.100392
     10          6           0      -10.409980    2.307827    1.638525
     11          6           0      -10.852051    2.413069    4.166700
     12          6           0       -7.272878    1.796784    2.484162
     13          6           0       -6.267212    1.816028    3.567304
     14          1           0       -5.243921    2.968346    3.570550
     15          7           0      -12.348284    1.883888   -0.820772
     16          6           0      -12.060398    3.119022   -0.188666
     17          6           0      -12.661823    4.143096   -1.005201
     18          6           0      -13.427314    3.547563   -2.042599
     19          6           0      -13.142018    2.073094   -1.926775
     20          6           0      -12.479819    5.618236   -0.662022
     21          6           0      -14.193759    4.262605   -3.084151
     22          8           0      -14.203120    5.487321   -3.073527
     23          6           0      -14.914206    3.659945   -4.245316
     24          7           0      -12.623494   -1.194443   -1.776075
     25          6           0      -13.455509   -0.501724   -2.578981
     26          6           0      -14.186530   -1.446705   -3.549785
     27          6           0      -13.824274   -2.928565   -2.972688
     28          6           0      -12.801096   -2.556218   -1.868610
     29          6           0      -15.733191   -1.117360   -3.757005
     30          6           0      -13.302119   -3.952582   -4.028544
     31          6           0      -11.753322   -4.163597   -4.136029
     32          7           0      -10.869277   -1.820775    0.295899
     33          6           0      -11.101485   -3.142599   -0.180255
     34          6           0      -10.240152   -4.108553    0.631416
     35          6           0       -9.456665   -3.265599    1.403302
     36          6           0       -9.889774   -1.910419    1.175178
     37          6           0      -10.118565   -5.644593    0.636304
     38          6           0       -8.438301   -3.233612    2.404557
     39          8           0       -7.872932   -4.153795    2.997611
     40          6           0       -8.136603   -1.793835    2.621954
     41          6           0       -6.748368   -1.627107    1.962710
     42          8           0       -6.501924   -1.519397    0.763280
     43          8           0       -5.779641   -1.696559    3.002143
     44          6           0       -4.419004   -1.691259    2.645802
     45          1           0      -11.177605    4.291721    1.354792
     46          1           0      -14.264513    1.353055   -3.425561
     47          1           0      -12.111845   -4.574476   -1.295989
     48          1           0       -8.631847    1.032316    4.032006
     49          1           0       -9.448129    3.550411    3.241312
     50          1           0      -10.609796    1.729535    4.979943
     51          1           0      -11.840869    2.305849    3.720109
     52          1           0      -10.828840    3.407654    4.613590
     53          1           0       -7.317918    2.806459    2.075817
     54          1           0       -6.946678    1.240375    1.605403
     55          1           0       -5.791536    0.844299    3.439658
     56          1           0       -6.793954    1.853594    4.520722
     57          1           0      -13.370991    6.064776   -0.221415
     58          1           0      -12.133689    6.142600   -1.551517
     59          1           0      -11.689802    5.738908    0.079343
     60          1           0      -15.771635    3.105919   -3.862464
     61          1           0      -14.322877    3.001777   -4.883084
     62          1           0      -15.444110    4.415440   -4.824157
     63          1           0      -13.633353   -1.313315   -4.479220
     64          1           0      -14.692013   -3.311737   -2.436807
     65          1           0      -15.944587   -0.071232   -3.536015
     66          1           0      -16.479932   -1.767093   -3.299037
     67          1           0      -15.899483   -1.425078   -4.790548
     68          1           0      -13.673696   -3.741500   -5.030950
     69          1           0      -13.731693   -4.886983   -3.668161
     70          1           0      -11.749626   -4.380402   -5.204501
     71          1           0      -11.309843   -5.000329   -3.595858
     72          1           0      -11.276200   -3.205998   -3.926548
     73          1           0      -10.331045   -6.050326    1.624796
     74          1           0       -9.034322   -5.684518    0.536222
     75          1           0      -10.646361   -6.018232   -0.240879
     76          1           0       -8.046089   -1.599154    3.690662
     77          1           0       -3.728175   -1.759340    3.487093
     78          1           0       -4.222597   -0.752498    2.129408
     79          1           0       -4.296824   -2.558270    1.995980
     80         12           0       11.151564    0.159453   -0.722673
     81          6           0        8.587626    0.524673    1.625726
     82          6           0       11.155513   -3.220619   -0.028537
     83          6           0       14.081128   -0.155034   -2.445988
     84          6           0       11.460232    3.607638   -0.810565
     85          7           0        9.938984   -1.129417    0.563908
     86          6           0        8.837218   -0.790549    1.245519
     87          6           0        7.996532   -1.977838    1.737434
     88          6           0        8.928524   -3.193775    1.364212
     89          6           0       10.096032   -2.501622    0.462560
     90          6           0        9.510966   -4.021758    2.529931
     91          6           0        6.592195   -2.056496    1.138288
     92          6           0        5.584053   -2.785807    2.044838
     93          1           0        6.059724   -3.361490    3.386190
     94          7           0       12.388602   -1.452579   -1.278728
     95          6           0       12.183783   -2.810917   -0.943559
     96          6           0       13.220513   -3.597891   -1.580651
     97          6           0       14.137814   -2.703443   -2.248363
     98          6           0       13.546311   -1.381695   -2.046504
     99          6           0       13.177778   -5.101030   -1.555776
    100          6           0       15.403016   -3.014916   -3.167384
    101          8           0       16.006814   -2.172842   -3.786603
    102          6           0       15.849479   -4.459671   -3.225776
    103          7           0       12.603613    1.514375   -1.425528
    104          6           0       13.710809    1.167421   -2.143044
    105          6           0       14.517507    2.423322   -2.639677
    106          6           0       13.618719    3.562063   -2.160491
    107          6           0       12.504092    2.847117   -1.420172
    108          6           0       16.055630    2.599481   -2.315093
    109          6           0       13.091553    4.398311   -3.350070
    110          6           0       11.861125    3.889312   -4.133251
    111          7           0       10.155515    1.822369    0.071324
    112          6           0       10.385807    3.168503   -0.047241
    113          6           0        9.431843    3.923117    0.694271
    114          6           0        8.663784    2.899384    1.411389
    115          6           0        9.155953    1.716504    1.017120
    116          6           0        9.214979    5.366239    0.817613
    117          6           0        7.664766    2.659076    2.443474
    118          8           0        6.917255    3.452482    3.025323
    119          6           0        7.546923    1.119048    2.641042
    120          6           0        7.807592    0.735004    4.024583
    121          8           0        8.910470    0.645194    4.553579
    122          8           0        6.621728    0.708339    4.714751
    123          6           0        6.632317    0.761596    6.189584
    124          1           0       11.099693   -4.269237    0.271721
    125          1           0       14.910873   -0.253799   -3.148955
    126          1           0       11.492775    4.694417   -0.911710
    127          1           0        7.949565   -2.012486    2.825636
    128          1           0        8.488394   -3.866485    0.628975
    129          1           0        9.205742   -5.023141    2.226855
    130          1           0        9.044500   -3.739953    3.473609
    131          1           0       10.589415   -3.878789    2.598897
    132          1           0        6.592316   -2.523981    0.154367
    133          1           0        6.201238   -1.053473    0.965329
    134          1           0        5.250569   -3.577118    1.373165
    135          1           0        4.681098   -2.195389    2.206775
    136          1           0       12.393870   -5.356930   -0.842868
    137          1           0       14.151598   -5.478901   -1.243618
    138          1           0       12.965471   -5.538460   -2.532472
    139          1           0       16.377285   -4.852372   -2.356083
    140          1           0       16.441055   -4.586100   -4.132496
    141          1           0       14.900353   -4.979349   -3.356447
    142          1           0       14.467789    2.279760   -3.718797
    143          1           0       14.228318    4.173833   -1.496470
    144          1           0       16.329220    3.578875   -1.924394
    145          1           0       16.609850    2.499067   -3.247750
    146          1           0       16.350080    1.779348   -1.659601
    147          1           0       13.943817    4.512788   -4.018783
    148          1           0       12.885446    5.380824   -2.924449
    149          1           0       12.105204    4.083987   -5.177271
    150          1           0       10.949328    4.444189   -3.913455
    151          1           0       11.596537    2.852124   -3.930533
    152          1           0        8.139866    5.540670    0.793361
    153          1           0        9.696262    5.982018    0.057760
    154          1           0        9.468730    5.694500    1.825722
    155          1           0        6.528427    0.891785    2.326568
    156          1           0        7.644856    0.758795    6.594634
    157          1           0        6.131326   -0.134781    6.555947
    158          1           0        6.103801    1.698244    6.363428
 ---------------------------------------------------------------------

 SCF Done:  E(RCAM-B3LYP) =  -4069.77671491     A.U. after   17 cycles

 Excitation energies and oscillator strengths:

 Excited State   1:      Singlet-A      1.6840 eV  736.24 nm  f=0.3384  <S**2>=0.000
     309 -> 315       -0.19713
     312 -> 314        0.68006
     309 <- 315       -0.11208
 This state for optimization and/or second-order correction.
 Total Energy, E(TD-HF/TD-DFT) =  -4069.71482857
 Copying the excited state density for this state as the 1-particle RhoCI density.

 Excited State   2:      Singlet-A      1.7176 eV  721.84 nm  f=0.4229  <S**2>=0.000
     310 -> 316        0.18144
     311 -> 313        0.68383
     310 <- 316        0.10672

 Excited State   3:      Singlet-A      2.1353 eV  580.64 nm  f=0.1594  <S**2>=0.000
     310 -> 313        0.65926
     311 -> 316       -0.23552

 Excited State   4:      Singlet-A      2.1914 eV  565.78 nm  f=0.0563  <S**2>=0.000
     309 -> 314        0.61454
     312 -> 315        0.33922

 Excited State   5:      Singlet-A      2.9105 eV  425.99 nm  f=0.0000  <S**2>=0.000
     312 -> 313        0.70706

 The electronic state is 1-A.
 Alpha  occ. eigenvalues --  -46.91313 -46.88187 -19.24728 -19.23830 -19.21421
 Alpha  occ. eigenvalues --  -19.19893 -19.18939 -19.18931 -19.18653 -19.17585
 Alpha  occ. eigenvalues --  -14.42422 -14.42225 -14.41952 -14.41835 -14.40257
 Alpha  occ. eigenvalues --  -14.39773 -14.39375 -14.38108 -10.40611 -10.38636
 Alpha  occ. eigenvalues --  -10.36136 -10.35032 -10.34580 -10.34138 -10.31846
 Alpha  occ. eigenvalues --  -10.31441 -10.31412 -10.31314 -10.31128 -10.31075
 Alpha  occ. eigenvalues --  -10.30987 -10.30846 -10.30831 -10.30822 -10.30653
 Alpha  occ. eigenvalues --  -10.30618 -10.30262 -10.30094 -10.29816 -10.29479
 Alpha  occ. eigenvalues --  -10.29407 -10.28808 -10.28799 -10.28798 -10.28540
 Alpha  occ. eigenvalues --  -10.28521 -10.28410 -10.28368 -10.28217 -10.28170
 Alpha  occ. eigenvalues --  -10.28159 -10.28099 -10.28058 -10.27922 -10.27716
 Alpha  occ. eigenvalues --  -10.27678 -10.27622 -10.27602 -10.27565 -10.27521
 Alpha  occ. eigenvalues --  -10.27515 -10.27370 -10.27366 -10.27191 -10.27132
 Alpha  occ. eigenvalues --  -10.27107 -10.27068 -10.26936 -10.26894 -10.26860
 Alpha  occ. eigenvalues --  -10.26799 -10.26537 -10.26359 -10.26291 -10.26273
 Alpha  occ. eigenvalues --  -10.26219 -10.25934 -10.25864 -10.25790 -10.25783
 Alpha  occ. eigenvalues --  -10.25744 -10.25697 -10.25413 -10.25276 -10.24993
 Alpha  occ. eigenvalues --  -10.24704  -3.19513  -3.16713  -1.94355  -1.94021
 Alpha  occ. eigenvalues --   -1.93769  -1.91613  -1.91165  -1.91019  -1.15838
 Alpha  occ. eigenvalues --   -1.15044  -1.11531  -1.09620  -1.09369  -1.08814
 Alpha  occ. eigenvalues --   -1.08669  -1.06598  -1.04395  -1.04213  -1.03461
 Alpha  occ. eigenvalues --   -1.03272  -1.02849  -1.02392  -1.01289  -1.00966
 Alpha  occ. eigenvalues --   -0.94393  -0.92021  -0.89164  -0.89129  -0.88747
 Alpha  occ. eigenvalues --   -0.88738  -0.88085  -0.87818  -0.87280  -0.87040
 Alpha  occ. eigenvalues --   -0.86861  -0.86405  -0.86033  -0.85579  -0.84782
 Alpha  occ. eigenvalues --   -0.84146  -0.83677  -0.83385  -0.82711  -0.82283
 Alpha  occ. eigenvalues --   -0.81914  -0.81657  -0.80948  -0.80871  -0.80285
 Alpha  occ. eigenvalues --   -0.80119  -0.78074  -0.78051  -0.77282  -0.77088
 Alpha  occ. eigenvalues --   -0.76880  -0.76782  -0.76017  -0.75851  -0.75219
 Alpha  occ. eigenvalues --   -0.74960  -0.72761  -0.72378  -0.71851  -0.71040
 Alpha  occ. eigenvalues --   -0.69938  -0.69765  -0.68723  -0.68392  -0.67629
 Alpha  occ. eigenvalues --   -0.67311  -0.66870  -0.66024  -0.65348  -0.64984
 Alpha  occ. eigenvalues --   -0.64722  -0.64712  -0.64646  -0.64556  -0.64388
 Alpha  occ. eigenvalues --   -0.63674  -0.62228  -0.61352  -0.59936  -0.59781
 Alpha  occ. eigenvalues --   -0.59719  -0.59280  -0.59037  -0.59031  -0.58915
 Alpha  occ. eigenvalues --   -0.58272  -0.58265  -0.57615  -0.57357  -0.57048
 Alpha  occ. eigenvalues --   -0.56215  -0.55971  -0.55803  -0.55652  -0.55385
 Alpha  occ. eigenvalues --   -0.55121  -0.54965  -0.54609  -0.54573  -0.53683
 Alpha  occ. eigenvalues --   -0.53657  -0.53413  -0.53293  -0.53039  -0.52811
 Alpha  occ. eigenvalues --   -0.52648  -0.52628  -0.52275  -0.52185  -0.52081
 Alpha  occ. eigenvalues --   -0.51973  -0.51923  -0.51682  -0.51559  -0.51392
 Alpha  occ. eigenvalues --   -0.51318  -0.50750  -0.50585  -0.50558  -0.50200
 Alpha  occ. eigenvalues --   -0.50171  -0.49985  -0.49618  -0.49530  -0.49416
 Alpha  occ. eigenvalues --   -0.49316  -0.49235  -0.49009  -0.48959  -0.48949
 Alpha  occ. eigenvalues --   -0.48489  -0.48489  -0.48282  -0.48177  -0.48078
 Alpha  occ. eigenvalues --   -0.47764  -0.47572  -0.47481  -0.47183  -0.47057
 Alpha  occ. eigenvalues --   -0.46858  -0.46693  -0.46202  -0.46106  -0.46070
 Alpha  occ. eigenvalues --   -0.45957  -0.45905  -0.45879  -0.45773  -0.45593
 Alpha  occ. eigenvalues --   -0.45438  -0.45304  -0.45194  -0.45151  -0.44976
 Alpha  occ. eigenvalues --   -0.44590  -0.44580  -0.44463  -0.44212  -0.44139
 Alpha  occ. eigenvalues --   -0.43915  -0.43805  -0.43588  -0.43487  -0.43351
 Alpha  occ. eigenvalues --   -0.43313  -0.43134  -0.43018  -0.43003  -0.42735
 Alpha  occ. eigenvalues --   -0.42620  -0.42339  -0.42311  -0.42050  -0.41875
 Alpha  occ. eigenvalues --   -0.41603  -0.41442  -0.41308  -0.41043  -0.41026
 Alpha  occ. eigenvalues --   -0.40972  -0.40835  -0.40560  -0.40447  -0.40173
 Alpha  occ. eigenvalues --   -0.40088  -0.39859  -0.39191  -0.38549  -0.38457
 Alpha  occ. eigenvalues --   -0.38335  -0.38283  -0.37923  -0.37780  -0.37639
 Alpha  occ. eigenvalues --   -0.37633  -0.36573  -0.36523  -0.36334  -0.36067
 Alpha  occ. eigenvalues --   -0.35769  -0.35628  -0.35232  -0.34263  -0.34225
 Alpha  occ. eigenvalues --   -0.33753  -0.33357  -0.33220  -0.31553  -0.31479
 Alpha  occ. eigenvalues --   -0.30828  -0.30823  -0.30765  -0.30579  -0.30225
 Alpha  occ. eigenvalues --   -0.29550  -0.29488  -0.28600  -0.24060  -0.23458
 Alpha  occ. eigenvalues --   -0.21262  -0.21048
 Alpha virt. eigenvalues --   -0.08858  -0.08542  -0.02626  -0.01257  -0.00614
 Alpha virt. eigenvalues --    0.00122   0.00657   0.02159   0.02546   0.02672
 Alpha virt. eigenvalues --    0.04695   0.05173   0.05201   0.05383   0.05918

 Mulliken charges:
               1
     1  Mg  11.998323
     2  C    5.975658
     3  C    6.020131
     4  C    6.020920
     5  C    5.976679
     6  N    6.996307
     7  C    6.028615
     8  C    5.996917
     9  C    6.001695
    10  C    5.969382
    11  C    6.001574
    12  C    5.994518
    13  C    5.999158
    14  H    1.006611
    15  N    7.014632
    16  C    5.947547
    17  C    5.983592
    18  C    5.986439
    19  C    5.959577
    20  C    6.006240
    21  C    5.991033
    22  O    7.977350
    23  C    6.003324
    24  N    6.995892
    25  C    5.966218
    26  C    6.012856
    27  C    5.985063
    28  C    6.040718
    29  C    6.003323
    30  C    6.001098
    31  C    5.990834
    32  N    6.992253
    33  C    6.054606
    34  C    6.025830
    35  C    6.003829
    36  C    6.032876
    37  C    6.000232
    38  C    6.017226
    39  O    8.031595
    40  C    5.998058
    41  C    6.002097
    42  O    8.004874
    43  O    8.001417
    44  C    5.997638
    45  H    0.991040
    46  H    0.997266
    47  H    1.009902
    48  H    0.998857
    49  H    0.999201
    50  H    0.985119
    51  H    1.002237
    52  H    0.998015
    53  H    1.013292
    54  H    0.997384
    55  H    0.994187
    56  H    1.002996
    57  H    0.979413
    58  H    0.983097
    59  H    0.981192
    60  H    0.988714
    61  H    0.988186
    62  H    0.987887
    63  H    0.999167
    64  H    1.005578
    65  H    1.008854
    66  H    0.993482
    67  H    0.994998
    68  H    1.010939
    69  H    1.000568
    70  H    1.009459
    71  H    0.996376
    72  H    1.002003
    73  H    1.017628
    74  H    1.013532
    75  H    1.016176
    76  H    1.008938
    77  H    1.004482
    78  H    1.005944
    79  H    0.999140
    80  Mg  12.000069
    81  C    5.999216
    82  C    6.000107
    83  C    6.000915
    84  C    6.000399
    85  N    6.999664
    86  C    6.000746
    87  C    5.999725
    88  C    5.999888
    89  C    5.999574
    90  C    6.000185
    91  C    6.000002
    92  C    6.000209
    93  H    1.000004
    94  N    7.000163
    95  C    5.999165
    96  C    5.999499
    97  C    5.999718
    98  C    5.999117
    99  C    6.000164
   100  C    5.999750
   101  O    7.999590
   102  C    6.000088
   103  N    7.000382
   104  C    5.998990
   105  C    6.000220
   106  C    5.999713
   107  C    6.000504
   108  C    5.999917
   109  C    5.999794
   110  C    5.999759
   111  N    6.999942
   112  C    6.000465
   113  C    6.001066
   114  C    5.999962
   115  C    6.000676
   116  C    5.999732
   117  C    6.000302
   118  O    8.000606
   119  C    6.000057
   120  C    6.000044
   121  O    8.000272
   122  O    7.999826
   123  C    5.999972
   124  H    0.999474
   125  H    1.000094
   126  H    1.000639
   127  H    0.999943
   128  H    0.999712
   129  H    0.999663
   130  H    0.999527
   131  H    1.000289
   132  H    1.000077
   133  H    0.999929
   134  H    0.999537
   135  H    0.999382
   136  H    0.999452
   137  H    0.999621
   138  H    0.999446
   139  H    0.999831
   140  H    0.999802
   141  H    0.999885
   142  H    1.000129
   143  H    1.000260
   144  H    0.999983
   145  H    1.000144
   146  H    1.000072
   147  H    1.000450
   148  H    1.000146
   149  H    1.000408
   150  H    1.000024
   151  H    0.999983
   152  H    1.000686
   153  H    1.000711
   154  H    1.000765
   155  H    0.999738
   156  H    1.000247
   157  H    0.999658
   158  H    1.000139
 Sum of Mulliken charges = 624.00000

 Dipole moment (field-independent basis, Debye):
    X=              3.8474    Y=             -9.2248    Z=              2.4684  Tot=             10.2952
 Quadrupole moment (field-independent basis, Debye-Ang):
   XX=            -86.9714   YY=             -1.3312   ZZ=             -1.9312
   XY=            113.5738   XZ=            -27.3260   YZ=              3.5869

 Normal termination of Gaussian 16 at Wed Sep 22 13:23:28 2021.
