 Gaussian 16, Revision A.03,
 Gaussian 16:  ES64L-G16RevA.03 25-Dec-2016

 -----------------------------------
 #p cam-b3lyp/Def2SVP td=(nstates=5)
 -----------------------------------

 --------------------------------
 TDDFT excited states in gaussian
 --------------------------------
 Symbolic Z-matrix:
 Charge =  0 Multiplicity = 1

                         Standard orientation:
 ---------------------------------------------------------------------
 Center     Atomic      Atomic             Coordinates (Angstroms)
 Number     Number       Type             X           Y           Z
 ---------------------------------------------------------------------
      1         12           0       13.011284    0.157749    0.219345
      2          6           0        9.887128   -1.079730   -0.667025
      3          6           0       14.098316   -0.382636   -2.923242
      4          6           0       16.193340    0.610161    1.272424
      5          6           0       12.056672   -0.090723    3.622392
      6          7           0       12.011939   -0.551807   -1.520555
      7          6           0       10.696081   -0.873455   -1.772720
      8          6           0       10.511540   -1.283499   -3.259763
      9          6           0       11.988504   -1.545346   -3.687766
     10          6           0       12.762407   -0.679056   -2.704931
     11          6           0       12.447277   -3.042384   -3.582871
     12          6           0        9.652199   -0.203926   -3.942883
     13          6           0        8.617108   -0.738285   -4.857979
     14          1           0        7.521406    0.182342   -5.154628
     15          7           0       14.819098    0.331493   -0.756268
     16          6           0       15.034648    0.127882   -2.081625
     17          6           0       16.330430    0.661192   -2.419272
     18          6           0       16.958293    0.963704   -1.157365
     19          6           0       16.000718    0.551236   -0.127030
     20          6           0       16.867622    0.708027   -3.804786
     21          6           0       18.405371    1.447192   -0.815701
     22          8           0       18.781606    1.669173    0.336973
     23          6           0       19.382698    1.808407   -1.899178
     24          7           0       14.018106   -0.099734    2.202645
     25          6           0       15.374457    0.300074    2.349111
     26          6           0       15.807080    0.423302    3.772647
     27          6           0       14.394485    0.405608    4.442126
     28          6           0       13.393367    0.113018    3.327637
     29          6           0       16.783659   -0.705216    4.248025
     30          6           0       14.022380    1.757997    5.152848
     31          6           0       14.183756    3.036378    4.291409
     32          7           0       11.308807   -0.347354    1.295324
     33          6           0       11.049038   -0.353313    2.674527
     34          6           0        9.701059   -0.754938    2.829038
     35          6           0        9.222837   -1.014129    1.550618
     36          6           0       10.230336   -0.764813    0.678087
     37          6           0        8.957708   -0.819438    4.125157
     38          6           0        8.122621   -1.501737    0.860065
     39          8           0        7.020851   -1.882983    1.295496
     40          6           0        8.433609   -1.583087   -0.664891
     41          6           0        7.370051   -0.634901   -1.301565
     42          8           0        7.342823    0.602929   -1.181856
     43          8           0        6.467656   -1.417877   -2.013333
     44          6           0        5.207831   -0.777726   -2.508915
     45          1           0       14.354790   -0.689722   -3.939375
     46          1           0       17.115388    0.886105    1.789689
     47          1           0       11.647264    0.016275    4.629122
     48          1           0        9.891969   -2.176776   -3.331575
     49          1           0       12.147469   -1.138678   -4.686053
     50          1           0       11.678498   -3.762296   -3.300696
     51          1           0       13.170882   -3.164861   -2.777972
     52          1           0       12.800133   -3.368060   -4.561190
     53          1           0       10.334801    0.343565   -4.591308
     54          1           0        9.220711    0.419112   -3.158998
     55          1           0        8.172020   -1.584249   -4.333942
     56          1           0        9.110924   -1.127522   -5.748121
     57          1           0       16.071130    0.627460   -4.544277
     58          1           0       17.708912    0.016860   -3.866036
     59          1           0       17.294748    1.693700   -3.989809
     60          1           0       20.360389    1.671049   -1.436715
     61          1           0       19.287247    2.859266   -2.173431
     62          1           0       19.309412    1.139207   -2.757005
     63          1           0       16.282368    1.376238    4.009459
     64          1           0       14.363833   -0.405385    5.170475
     65          1           0       16.684845   -1.561703    3.580570
     66          1           0       16.637080   -1.087962    5.258159
     67          1           0       17.843776   -0.450103    4.248405
     68          1           0       14.604567    1.777384    6.074300
     69          1           0       12.993731    1.595782    5.474649
     70          1           0       13.249855    3.587382    4.178606
     71          1           0       14.566915    2.713065    3.323145
     72          1           0       14.900498    3.740031    4.713734
     73          1           0        8.584297   -1.840722    4.199742
     74          1           0        8.172017   -0.064590    4.093983
     75          1           0        9.562486   -0.673131    5.020194
     76          1           0        8.240312   -2.602998   -0.996271
     77          1           0        4.685569   -0.416248   -1.623385
     78          1           0        4.511410   -1.398372   -3.072654
     79          1           0        5.684131    0.003643   -3.101181
     80         12           0      -12.586641   -0.478914   -0.145260
     81          6           0      -11.966293    2.993262    0.209544
     82          6           0       -9.227735   -0.936694   -0.334486
     83          6           0      -13.156764   -3.794271    0.347435
     84          6           0      -15.915721    0.146131    0.589100
     85          7           0      -10.864617    0.963435    0.101372
     86          6           0      -10.800462    2.331256    0.133517
     87          6           0       -9.403889    2.825407    0.053855
     88          6           0       -8.593833    1.543187   -0.458398
     89          6           0       -9.587766    0.460185   -0.211393
     90          6           0       -8.173415    1.681954   -1.912695
     91          6           0       -9.038504    3.386026    1.437265
     92          6           0       -8.493694    4.874776    1.505971
     93          1           0       -7.129420    5.207778    2.181669
     94          7           0      -11.419754   -2.175808   -0.047898
     95          6           0      -10.032213   -2.143311   -0.244596
     96          6           0       -9.577208   -3.496772   -0.354429
     97          6           0      -10.685733   -4.381216   -0.129591
     98          6           0      -11.839242   -3.450429   -0.004719
     99          6           0       -8.121302   -3.806748   -0.677923
    100          6           0      -10.701124   -5.892610   -0.077534
    101          8           0       -9.591365   -6.418219   -0.381916
    102          6           0      -11.841938   -6.838482    0.393298
    103          7           0      -14.312773   -1.699682    0.391601
    104          6           0      -14.290606   -3.046540    0.498342
    105          6           0      -15.661419   -3.650153    0.903603
    106          6           0      -16.574420   -2.376210    0.869317
    107          6           0      -15.502534   -1.207874    0.648077
    108          6           0      -16.057797   -4.728844   -0.088492
    109          6           0      -17.380806   -2.129974    2.107815
    110          6           0      -18.863101   -2.299060    1.912524
    111          7           0      -13.776860    1.138910    0.133873
    112          6           0      -15.145975    1.305873    0.377618
    113          6           0      -15.532500    2.619269    0.269621
    114          6           0      -14.317523    3.326772    0.165257
    115          6           0      -13.286547    2.390015    0.166607
    116          6           0      -16.975246    3.063472    0.153357
    117          6           0      -13.745374    4.684831   -0.034390
    118          8           0      -14.305799    5.729921   -0.153520
    119          6           0      -12.194082    4.436142    0.083612
    120          6           0      -11.527905    5.302628   -0.962834
    121          8           0      -10.933259    6.354087   -0.725607
    122          8           0      -11.641344    4.704842   -2.241519
    123          6           0      -10.904678    5.440898   -3.268543
    124          1           0       -8.182612   -1.081737   -0.616694
    125          1           0      -13.403314   -4.856564    0.413732
    126          1           0      -16.878497    0.407957    1.031465
    127          1           0       -9.346147    3.632295   -0.676801
    128          1           0       -7.692123    1.448744    0.146077
    129          1           0       -8.919669    2.179785   -2.530342
    130          1           0       -8.088917    0.682364   -2.340355
    131          1           0       -7.197219    2.148194   -2.045775
    132          1           0       -8.285541    2.721731    1.861114
    133          1           0       -9.834315    3.290064    2.175900
    134          1           0       -9.288309    5.335671    2.093283
    135          1           0       -8.609944    5.372354    0.543882
    136          1           0       -7.447986   -3.263224   -0.015086
    137          1           0       -7.955588   -3.447220   -1.693421
    138          1           0       -7.782135   -4.834378   -0.540336
    139          1           0      -12.590101   -6.732418   -0.391614
    140          1           0      -12.220416   -6.475772    1.349034
    141          1           0      -11.504787   -7.866493    0.528696
    142          1           0      -15.667456   -4.119455    1.887057
    143          1           0      -17.165143   -2.367965   -0.046335
    144          1           0      -15.215820   -5.414628   -0.184204
    145          1           0      -16.256961   -4.249949   -1.047723
    146          1           0      -16.985185   -5.280080    0.062377
    147          1           0      -17.283622   -1.117157    2.498794
    148          1           0      -17.133269   -2.731617    2.982152
    149          1           0      -19.218856   -3.010191    2.657046
    150          1           0      -19.113844   -2.755628    0.955041
    151          1           0      -19.427334   -1.366249    1.939764
    152          1           0      -16.944988    4.076951   -0.247993
    153          1           0      -17.485765    3.068235    1.116103
    154          1           0      -17.432101    2.341294   -0.522916
    155          1           0      -11.957703    4.947686    1.017361
    156          1           0      -10.604423    4.772797   -4.075866
    157          1           0       -9.942185    5.788048   -2.895469
    158          1           0      -11.450444    6.304083   -3.650523
 ---------------------------------------------------------------------

 SCF Done:  E(RCAM-B3LYP) =  -4069.81414713     A.U. after   19 cycles

 Excitation energies and oscillator strengths:

 Excited State   1:      Singlet-A      1.6604 eV  746.72 nm  f=0.4260  <S**2>=0.000
     310 -> 316       -0.16120
     312 -> 314        0.68482
     310 <- 316       -0.10347
 This state for optimization and/or second-order correction.
 Total Energy, E(TD-HF/TD-DFT) =  -4069.75312898
 Copying the excited state density for this state as the 1-particle RhoCI density.

 Excited State   2:      Singlet-A      1.6840 eV  736.25 nm  f=0.3220  <S**2>=0.000
     309 -> 315        0.17291
     311 -> 313        0.68273
     309 <- 315        0.10730

 Excited State   3:      Singlet-A      2.2188 eV  558.79 nm  f=0.1951  <S**2>=0.000
     309 -> 313        0.31219
     310 -> 314        0.56404
     311 -> 315       -0.12817
     312 -> 316        0.23865

 Excited State   4:      Singlet-A      2.2198 eV  558.55 nm  f=0.0933  <S**2>=0.000
     309 -> 313        0.56857
     310 -> 314       -0.30934
     311 -> 315       -0.23417
     312 -> 316       -0.13138

 Excited State   5:      Singlet-A      2.8741 eV  431.39 nm  f=0.0000  <S**2>=0.000
     312 -> 313        0.70707

 The electronic state is 1-A.
 Alpha  occ. eigenvalues --  -46.88968 -46.88327 -19.25593 -19.24765 -19.20971
 Alpha  occ. eigenvalues --  -19.20029 -19.19816 -19.18741 -19.18261 -19.17663
 Alpha  occ. eigenvalues --  -14.42329 -14.42190 -14.41948 -14.41488 -14.40048
 Alpha  occ. eigenvalues --  -14.39353 -14.38959 -14.38511 -10.40317 -10.40047
 Alpha  occ. eigenvalues --  -10.35621 -10.35442 -10.35290 -10.33645 -10.32008
 Alpha  occ. eigenvalues --  -10.31944 -10.31633 -10.31084 -10.30964 -10.30819
 Alpha  occ. eigenvalues --  -10.30628 -10.30595 -10.30563 -10.30507 -10.30327
 Alpha  occ. eigenvalues --  -10.30246 -10.30230 -10.29315 -10.29212 -10.29018
 Alpha  occ. eigenvalues --  -10.28822 -10.28506 -10.28497 -10.28491 -10.28372
 Alpha  occ. eigenvalues --  -10.28336 -10.28315 -10.28288 -10.28278 -10.28252
 Alpha  occ. eigenvalues --  -10.28222 -10.28154 -10.27953 -10.27920 -10.27900
 Alpha  occ. eigenvalues --  -10.27686 -10.27679 -10.27557 -10.27461 -10.27438
 Alpha  occ. eigenvalues --  -10.27333 -10.27260 -10.27179 -10.27019 -10.27017
 Alpha  occ. eigenvalues --  -10.26993 -10.26911 -10.26737 -10.26719 -10.26542
 Alpha  occ. eigenvalues --  -10.26536 -10.26462 -10.26407 -10.26378 -10.26261
 Alpha  occ. eigenvalues --  -10.25949 -10.25944 -10.25922 -10.25833 -10.25762
 Alpha  occ. eigenvalues --  -10.25744 -10.25571 -10.25316 -10.25176 -10.25044
 Alpha  occ. eigenvalues --  -10.23789  -3.17532  -3.16923  -1.92412  -1.91993
 Alpha  occ. eigenvalues --   -1.91837  -1.91804  -1.91382  -1.91225  -1.15554
 Alpha  occ. eigenvalues --   -1.14437  -1.12005  -1.09480  -1.07955  -1.07916
 Alpha  occ. eigenvalues --   -1.07587  -1.06668  -1.05216  -1.04816  -1.04233
 Alpha  occ. eigenvalues --   -1.03908  -1.03524  -1.03316  -1.02712  -1.02234
 Alpha  occ. eigenvalues --   -0.93279  -0.92541  -0.89903  -0.89284  -0.89101
 Alpha  occ. eigenvalues --   -0.89061  -0.89016  -0.88591  -0.87823  -0.87804
 Alpha  occ. eigenvalues --   -0.87135  -0.86975  -0.86541  -0.85913  -0.84801
 Alpha  occ. eigenvalues --   -0.84608  -0.84244  -0.83514  -0.82594  -0.82174
 Alpha  occ. eigenvalues --   -0.81911  -0.81630  -0.81003  -0.80665  -0.80461
 Alpha  occ. eigenvalues --   -0.80402  -0.78213  -0.77777  -0.77430  -0.77079
 Alpha  occ. eigenvalues --   -0.76945  -0.76853  -0.76465  -0.76045  -0.75476
 Alpha  occ. eigenvalues --   -0.75472  -0.73490  -0.73257  -0.72189  -0.72056
 Alpha  occ. eigenvalues --   -0.69797  -0.69376  -0.68957  -0.68775  -0.67668
 Alpha  occ. eigenvalues --   -0.67545  -0.67199  -0.66541  -0.66321  -0.65656
 Alpha  occ. eigenvalues --   -0.65345  -0.65317  -0.64898  -0.64669  -0.64462
 Alpha  occ. eigenvalues --   -0.64075  -0.63090  -0.61580  -0.60497  -0.60055
 Alpha  occ. eigenvalues --   -0.59892  -0.59792  -0.59561  -0.59148  -0.58927
 Alpha  occ. eigenvalues --   -0.58442  -0.58024  -0.57573  -0.57014  -0.56857
 Alpha  occ. eigenvalues --   -0.56194  -0.55987  -0.55796  -0.55628  -0.55594
 Alpha  occ. eigenvalues --   -0.55335  -0.55096  -0.54919  -0.54780  -0.54315
 Alpha  occ. eigenvalues --   -0.53868  -0.53561  -0.53560  -0.53173  -0.53055
 Alpha  occ. eigenvalues --   -0.52941  -0.52819  -0.52667  -0.52474  -0.52252
 Alpha  occ. eigenvalues --   -0.52012  -0.51940  -0.51680  -0.51678  -0.51465
 Alpha  occ. eigenvalues --   -0.51087  -0.50836  -0.50515  -0.50497  -0.50353
 Alpha  occ. eigenvalues --   -0.50256  -0.50009  -0.49833  -0.49649  -0.49621
 Alpha  occ. eigenvalues --   -0.49394  -0.49201  -0.48922  -0.48881  -0.48770
 Alpha  occ. eigenvalues --   -0.48618  -0.48527  -0.48306  -0.48093  -0.47981
 Alpha  occ. eigenvalues --   -0.47957  -0.47699  -0.47692  -0.47371  -0.47179
 Alpha  occ. eigenvalues --   -0.47040  -0.46854  -0.46622  -0.46572  -0.46426
 Alpha  occ. eigenvalues --   -0.46307  -0.45999  -0.45984  -0.45871  -0.45713
 Alpha  occ. eigenvalues --   -0.45706  -0.45475  -0.45458  -0.45270  -0.45117
 Alpha  occ. eigenvalues --   -0.44845  -0.44616  -0.44494  -0.44186  -0.44021
 Alpha  occ. eigenvalues --   -0.43931  -0.43760  -0.43630  -0.43471  -0.43451
 Alpha  occ. eigenvalues --   -0.43235  -0.43199  -0.43064  -0.42701  -0.42615
 Alpha  occ. eigenvalues --   -0.42470  -0.42403  -0.42376  -0.42374  -0.42042
 Alpha  occ. eigenvalues --   -0.41970  -0.41748  -0.41694  -0.41596  -0.41545
 Alpha  occ. eigenvalues --   -0.41357  -0.41073  -0.41067  -0.40852  -0.40665
 Alpha  occ. eigenvalues --   -0.40303  -0.40098  -0.39966  -0.39172  -0.39000
 Alpha  occ. eigenvalues --   -0.38733  -0.38211  -0.38185  -0.38044  -0.37765
 Alpha  occ. eigenvalues --   -0.37372  -0.37293  -0.37220  -0.36838  -0.36607
 Alpha  occ. eigenvalues --   -0.36377  -0.36096  -0.35377  -0.34663  -0.34202
 Alpha  occ. eigenvalues --   -0.34096  -0.33233  -0.33151  -0.31709  -0.31322
 Alpha  occ. eigenvalues --   -0.31088  -0.30830  -0.30542  -0.30065  -0.29980
 Alpha  occ. eigenvalues --   -0.29750  -0.29729  -0.29407  -0.24373  -0.24248
 Alpha  occ. eigenvalues --   -0.21605  -0.21198
 Alpha virt. eigenvalues --   -0.09288  -0.09010  -0.01795  -0.01518   0.00269
 Alpha virt. eigenvalues --    0.00526   0.01836   0.02189   0.02417   0.02444
 Alpha virt. eigenvalues --    0.04184   0.04949   0.05058   0.05077   0.05760

 Mulliken charges:
               1
     1  Mg   0.820673
     2  C   -0.060315
     3  C   -0.109644
     4  C   -0.010531
     5  C   -0.097818
     6  N   -0.339994
     7  C   -0.020898
     8  C   -0.061530
     9  C   -0.031288
    10  C    0.010373
    11  C    0.081249
    12  C    0.079415
    13  C   -0.068917
    14  H    0.035242
    15  N   -0.383339
    16  C    0.220968
    17  C   -0.158636
    18  C   -0.039990
    19  C    0.171598
    20  C    0.117511
    21  C    0.010832
    22  O   -0.218660
    23  C    0.055153
    24  N   -0.251752
    25  C   -0.074988
    26  C   -0.004107
    27  C   -0.051266
    28  C    0.088342
    29  C    0.063724
    30  C    0.024263
    31  C    0.002161
    32  N   -0.340231
    33  C    0.098570
    34  C   -0.182175
    35  C    0.104000
    36  C    0.159808
    37  C    0.133455
    38  C   -0.059261
    39  O   -0.207764
    40  C    0.035639
    41  C    0.229274
    42  O   -0.241960
    43  O   -0.360221
    44  C    0.180318
    45  H   -0.026176
    46  H   -0.008812
    47  H   -0.021049
    48  H   -0.002232
    49  H   -0.007366
    50  H    0.013786
    51  H    0.031739
    52  H    0.021218
    53  H   -0.004181
    54  H    0.042582
    55  H    0.020639
    56  H    0.016866
    57  H    0.018540
    58  H    0.045559
    59  H    0.019805
    60  H    0.029519
    61  H    0.051908
    62  H    0.006367
    63  H    0.019285
    64  H    0.003055
    65  H    0.017807
    66  H    0.011266
    67  H    0.020598
    68  H    0.005259
    69  H   -0.001509
    70  H    0.023096
    71  H    0.027930
    72  H    0.019175
    73  H    0.035023
    74  H    0.045104
    75  H   -0.002588
    76  H    0.036161
    77  H    0.050221
    78  H    0.051082
    79  H    0.043041
    80  Mg   0.834231
    81  C    0.054442
    82  C   -0.069352
    83  C   -0.042675
    84  C   -0.089508
    85  N   -0.294784
    86  C   -0.091755
    87  C   -0.014606
    88  C   -0.026270
    89  C    0.046681
    90  C    0.078057
    91  C    0.043185
    92  C   -0.061261
    93  H    0.032315
    94  N   -0.389550
    95  C    0.137834
    96  C   -0.128822
    97  C   -0.023669
    98  C    0.152811
    99  C    0.116327
   100  C   -0.019993
   101  O   -0.248345
   102  C    0.085876
   103  N   -0.230535
   104  C   -0.019138
   105  C    0.006712
   106  C   -0.010755
   107  C    0.025305
   108  C    0.055061
   109  C    0.043193
   110  C   -0.008577
   111  N   -0.375653
   112  C    0.100468
   113  C   -0.183018
   114  C   -0.033758
   115  C    0.116659
   116  C    0.133509
   117  C    0.043010
   118  O   -0.120592
   119  C    0.002847
   120  C    0.187326
   121  O   -0.212231
   122  O   -0.363366
   123  C    0.180016
   124  H   -0.018435
   125  H   -0.076013
   126  H   -0.016313
   127  H    0.012575
   128  H    0.011180
   129  H    0.015867
   130  H    0.003078
   131  H    0.024090
   132  H    0.007253
   133  H    0.023766
   134  H    0.028237
   135  H    0.032948
   136  H    0.012908
   137  H    0.023745
   138  H    0.040302
   139  H    0.042468
   140  H    0.043435
   141  H    0.036497
   142  H    0.016289
   143  H    0.018740
   144  H    0.011201
   145  H    0.003296
   146  H    0.016294
   147  H    0.007519
   148  H    0.001224
   149  H    0.009084
   150  H    0.000853
   151  H    0.018384
   152  H    0.037201
   153  H    0.028736
   154  H    0.024889
   155  H    0.038933
   156  H    0.028782
   157  H    0.028263
   158  H    0.045069
 Sum of Mulliken charges =  -0.00000

 Dipole moment (field-independent basis, Debye):
    X=              0.7524    Y=             -3.5857    Z=             -3.4965  Tot=              5.0645
 Quadrupole moment (field-independent basis, Debye-Ang):
   XX=           -409.2760   YY=           -562.7831   ZZ=           -468.4768
   XY=             67.9117   XZ=            -26.9036   YZ=             -4.4106

 Normal termination of Gaussian 16 at Wed Sep 15 10:48:06 2021.
