 Gaussian 16, Revision A.03,
 Gaussian 16:  ES64L-G16RevA.03 25-Dec-2016

 ----------------------------------------------------------
 #p cam-b3lyp/Def2SVP td=(nstates=5) density=(transition=1)
 ----------------------------------------------------------

 --------------------------------
 TDDFT excited states in gaussian
 --------------------------------
 Symbolic Z-matrix:
 Charge =  0 Multiplicity = 1

                         Standard orientation:
 ---------------------------------------------------------------------
 Center     Atomic      Atomic             Coordinates (Angstroms)
 Number     Number       Type             X           Y           Z
 ---------------------------------------------------------------------
      1         12           0       -9.329460   -1.005782    0.858906
      2          6           0      -10.373312    1.937662   -0.802695
      3          6           0       -7.647483    0.920164    2.916786
      4          6           0       -7.630590   -3.735547    1.629781
      5          6           0      -10.671486   -2.757422   -1.926610
      6          7           0       -9.241464    1.248369    1.065145
      7          6           0       -9.764321    2.210405    0.396264
      8          6           0       -9.597649    3.551681    1.139695
      9          6           0       -8.313236    3.287219    2.078776
     10          6           0       -8.325532    1.705085    1.979380
     11          6           0       -6.948054    3.926740    1.606042
     12          6           0      -10.887885    3.858478    2.064926
     13          6           0      -11.357601    5.329361    2.307821
     14          1           0      -10.237926    6.433335    2.258605
     15          7           0       -7.983829   -1.406785    2.252250
     16          6           0       -7.443371   -0.425941    3.070174
     17          6           0       -6.476938   -1.083388    4.018869
     18          6           0       -6.511851   -2.490669    3.641766
     19          6           0       -7.370970   -2.676473    2.469232
     20          6           0       -5.693579   -0.270791    5.032501
     21          6           0       -5.788762   -3.632607    4.321375
     22          8           0       -5.815068   -4.810290    3.937744
     23          6           0       -5.021848   -3.353564    5.549976
     24          7           0       -9.251092   -3.069136    0.005340
     25          6           0       -8.416176   -3.952985    0.521202
     26          6           0       -8.756525   -5.409970   -0.026348
     27          6           0       -9.766302   -5.026013   -1.238789
     28          6           0       -9.939317   -3.525357   -1.020230
     29          6           0       -7.497008   -6.245829   -0.429517
     30          6           0      -11.145096   -5.761056   -1.307252
     31          6           0      -11.352535   -6.721646   -2.449911
     32          7           0      -10.524993   -0.584522   -0.920078
     33          6           0      -10.964037   -1.431434   -1.918261
     34          6           0      -11.561629   -0.690751   -2.949495
     35          6           0      -11.312421    0.641075   -2.567494
     36          6           0      -10.658155    0.695388   -1.359566
     37          6           0      -12.192143   -1.179146   -4.154952
     38          6           0      -11.601205    1.959412   -2.980730
     39          8           0      -12.269732    2.491045   -3.908426
     40          6           0      -10.755995    2.866750   -1.978042
     41          6           0      -11.541796    4.060814   -1.576700
     42          8           0      -12.597490    4.093703   -0.947770
     43          8           0      -10.781965    5.211224   -1.958537
     44          6           0      -11.367880    6.526407   -1.669783
     45          1           0       -7.220157    1.600152    3.657269
     46          1           0       -7.106978   -4.642489    1.937113
     47          1           0      -11.149250   -3.311082   -2.738390
     48          1           0       -9.222976    4.272732    0.413657
     49          1           0       -8.489236    3.771546    3.038660
     50          1           0       -7.000662    4.285893    0.578483
     51          1           0       -6.141828    3.193423    1.599698
     52          1           0       -6.759217    4.755747    2.287999
     53          1           0      -10.791383    3.376404    3.037878
     54          1           0      -11.734541    3.311351    1.649809
     55          1           0      -11.857038    5.478035    3.265731
     56          1           0      -11.939262    5.617236    1.431211
     57          1           0       -5.687067   -0.738534    6.017675
     58          1           0       -6.060771    0.749831    5.140440
     59          1           0       -4.702311   -0.057732    4.633143
     60          1           0       -4.249552   -2.605125    5.370267
     61          1           0       -4.563414   -4.272395    5.915733
     62          1           0       -5.606088   -3.005441    6.401786
     63          1           0       -9.347724   -5.995785    0.677409
     64          1           0       -9.265672   -5.034236   -2.208106
     65          1           0       -6.597002   -5.634985   -0.356838
     66          1           0       -7.803062   -6.608571   -1.410975
     67          1           0       -7.495702   -7.133314    0.201985
     68          1           0      -11.915029   -4.994638   -1.398879
     69          1           0      -11.326200   -6.279145   -0.365293
     70          1           0      -10.361884   -6.793544   -2.896885
     71          1           0      -12.014386   -6.240468   -3.170929
     72          1           0      -11.656077   -7.717564   -2.129631
     73          1           0      -12.922056   -1.926554   -3.845117
     74          1           0      -11.575831   -1.811063   -4.794502
     75          1           0      -12.698878   -0.357782   -4.661929
     76          1           0       -9.842979    3.174401   -2.488799
     77          1           0      -10.748277    7.323669   -2.081183
     78          1           0      -11.295581    6.707815   -0.597258
     79          1           0      -12.346987    6.593210   -2.142937
     80         12           0        9.738488   -0.402647   -0.243980
     81          6           0        7.725102    2.532466   -0.185083
     82          6           0       12.422236    1.522207    0.712586
     83          6           0       11.462271   -3.216573   -0.415066
     84          6           0        6.988168   -2.185265   -1.719561
     85          7           0       10.078435    1.862950    0.163893
     86          6           0        9.049482    2.785703    0.209680
     87          6           0        9.693831    4.131559    0.688796
     88          6           0       11.262442    3.816162    0.947590
     89          6           0       11.256720    2.330200    0.574528
     90          6           0       12.268753    4.712489    0.196311
     91          6           0        8.960906    4.904225    1.862081
     92          6           0        8.521350    6.303871    1.544226
     93          1           0        9.206239    7.185017    0.533133
     94          7           0       11.735946   -0.833633    0.242742
     95          6           0       12.658132    0.099065    0.599733
     96          6           0       13.833312   -0.637830    0.987665
     97          6           0       13.623381   -1.973093    0.580695
     98          6           0       12.220589   -2.101849    0.067923
     99          6           0       15.058341    0.105657    1.546228
    100          6           0       14.641610   -3.071224    0.521593
    101          8           0       14.370106   -4.192038    0.029341
    102          6           0       16.020646   -2.811324    1.003416
    103          7           0        9.242841   -2.412966   -1.050892
    104          6           0       10.094220   -3.369901   -0.920269
    105          6           0        9.607982   -4.851635   -1.362092
    106          6           0        8.178735   -4.490955   -1.794890
    107          6           0        8.106198   -3.007881   -1.525430
    108          6           0       10.541849   -5.393578   -2.505478
    109          6           0        7.008880   -5.268696   -1.095720
    110          6           0        6.719691   -4.903554    0.379667
    111          7           0        7.873151    0.083728   -0.925858
    112          6           0        6.902312   -0.757123   -1.519202
    113          6           0        5.674835    0.030527   -1.697059
    114          6           0        5.951874    1.318941   -1.180241
    115          6           0        7.297354    1.292044   -0.679569
    116          6           0        4.338971   -0.500546   -2.297923
    117          6           0        5.369156    2.536197   -0.967495
    118          8           0        4.275919    2.979884   -1.254139
    119          6           0        6.439085    3.408561   -0.253416
    120          6           0        6.600496    4.635472   -0.998910
    121          8           0        7.381096    4.788875   -1.945116
    122          8           0        5.586815    5.535880   -0.650248
    123          6           0        5.540030    6.758164   -1.490438
    124          1           0       13.381552    2.042103    0.763962
    125          1           0       12.086861   -4.089169   -0.617752
    126          1           0        6.120832   -2.679908   -2.161618
    127          1           0        9.463817    4.730597   -0.191361
    128          1           0       11.490672    4.012366    1.994270
    129          1           0       12.958810    5.186779    0.895317
    130          1           0       11.851719    5.481763   -0.453391
    131          1           0       12.810536    4.014803   -0.442290
    132          1           0        9.595748    4.925758    2.748083
    133          1           0        8.050002    4.336560    2.052267
    134          1           0        8.792315    6.912159    2.407898
    135          1           0        7.451742    6.277643    1.339042
    136          1           0       14.809254    1.111806    1.884232
    137          1           0       15.832555    0.162386    0.782141
    138          1           0       15.385120   -0.505981    2.386575
    139          1           0       15.937387   -2.499885    2.044671
    140          1           0       16.483167   -1.986327    0.460251
    141          1           0       16.654568   -3.682339    0.842304
    142          1           0        9.596195   -5.535259   -0.512840
    143          1           0        8.110053   -4.520681   -2.882559
    144          1           0       10.910871   -4.535172   -3.066714
    145          1           0        9.932968   -5.991273   -3.184720
    146          1           0       11.403644   -5.997275   -2.219778
    147          1           0        7.119296   -6.338069   -1.272784
    148          1           0        6.103016   -5.075529   -1.669497
    149          1           0        7.571520   -4.597046    0.985820
    150          1           0        6.165614   -5.728374    0.829169
    151          1           0        6.002476   -4.084487    0.328758
    152          1           0        3.469850   -0.268667   -1.682240
    153          1           0        4.356689   -1.568729   -2.511232
    154          1           0        4.059963    0.125622   -3.145745
    155          1           0        5.959740    3.595975    0.706858
    156          1           0        5.213235    6.515903   -2.501361
    157          1           0        6.500890    7.255502   -1.617675
    158          1           0        4.967812    7.494755   -0.926174
 ---------------------------------------------------------------------

 SCF Done:  E(RCAM-B3LYP) =  -4069.77746426     A.U. after   19 cycles

 Excitation energies and oscillator strengths:

 Excited State   1:      Singlet-A      1.7538 eV  706.94 nm  f=0.4211  <S**2>=0.000
     310 -> 316       -0.18781
     312 -> 313        0.68046
     310 <- 316       -0.10727
 This state for optimization and/or second-order correction.
 Total Energy, E(TD-HF/TD-DFT) =  -4069.71301298
 Copying the excited state density for this state as the 1-particle RhoCI density.

 Excited State   2:      Singlet-A      1.7998 eV  688.86 nm  f=0.3278  <S**2>=0.000
     309 -> 315       -0.21156
     311 -> 314        0.67347
     309 <- 315       -0.10922

 Excited State   3:      Singlet-A      2.2094 eV  561.15 nm  f=0.0926  <S**2>=0.000
     310 -> 313        0.64053
     312 -> 316        0.28004

 Excited State   4:      Singlet-A      2.2242 eV  557.44 nm  f=0.0912  <S**2>=0.000
     309 -> 314        0.62773
     311 -> 315        0.30715

 Excited State   5:      Singlet-A      2.9628 eV  418.47 nm  f=0.0000  <S**2>=0.000
     312 -> 314        0.70698

 The electronic state is 1-A.
 Alpha  occ. eigenvalues --  -46.89872 -46.89290 -19.24347 -19.23830 -19.20113
 Alpha  occ. eigenvalues --  -19.19365 -19.18919 -19.18818 -19.18349 -19.17596
 Alpha  occ. eigenvalues --  -14.42726 -14.42045 -14.41938 -14.41626 -14.39871
 Alpha  occ. eigenvalues --  -14.39818 -14.39734 -14.38465 -10.39185 -10.38684
 Alpha  occ. eigenvalues --  -10.35112 -10.35046 -10.34384 -10.33371 -10.31955
 Alpha  occ. eigenvalues --  -10.31777 -10.31471 -10.31411 -10.31160 -10.30978
 Alpha  occ. eigenvalues --  -10.30954 -10.30868 -10.30868 -10.30648 -10.30598
 Alpha  occ. eigenvalues --  -10.30528 -10.30249 -10.30215 -10.30151 -10.29907
 Alpha  occ. eigenvalues --  -10.29412 -10.29227 -10.28865 -10.28835 -10.28539
 Alpha  occ. eigenvalues --  -10.28510 -10.28471 -10.28438 -10.28295 -10.28281
 Alpha  occ. eigenvalues --  -10.28234 -10.28143 -10.28114 -10.28058 -10.28041
 Alpha  occ. eigenvalues --  -10.28040 -10.27998 -10.27900 -10.27764 -10.27726
 Alpha  occ. eigenvalues --  -10.27520 -10.27471 -10.27435 -10.27388 -10.27383
 Alpha  occ. eigenvalues --  -10.27365 -10.27259 -10.27185 -10.27079 -10.26865
 Alpha  occ. eigenvalues --  -10.26674 -10.26396 -10.26364 -10.26285 -10.26200
 Alpha  occ. eigenvalues --  -10.26164 -10.26058 -10.26028 -10.25932 -10.25906
 Alpha  occ. eigenvalues --  -10.25818 -10.25755 -10.25752 -10.25350 -10.24539
 Alpha  occ. eigenvalues --  -10.23955  -3.18208  -3.17743  -1.93122  -1.92698
 Alpha  occ. eigenvalues --   -1.92647  -1.92464  -1.92210  -1.92029  -1.14430
 Alpha  occ. eigenvalues --   -1.13857  -1.09344  -1.09319  -1.08509  -1.07183
 Alpha  occ. eigenvalues --   -1.06618  -1.06386  -1.06160  -1.05673  -1.05116
 Alpha  occ. eigenvalues --   -1.03754  -1.03386  -1.03089  -1.01759  -1.01368
 Alpha  occ. eigenvalues --   -0.92851  -0.92345  -0.89788  -0.89407  -0.88516
 Alpha  occ. eigenvalues --   -0.88336  -0.87892  -0.87794  -0.87458  -0.87306
 Alpha  occ. eigenvalues --   -0.87263  -0.86842  -0.86811  -0.85532  -0.84380
 Alpha  occ. eigenvalues --   -0.84169  -0.83894  -0.83420  -0.82633  -0.82599
 Alpha  occ. eigenvalues --   -0.82270  -0.81953  -0.81412  -0.80731  -0.80564
 Alpha  occ. eigenvalues --   -0.80104  -0.78871  -0.78373  -0.77626  -0.77623
 Alpha  occ. eigenvalues --   -0.76857  -0.76504  -0.75799  -0.75768  -0.75144
 Alpha  occ. eigenvalues --   -0.75031  -0.73122  -0.72578  -0.72150  -0.71611
 Alpha  occ. eigenvalues --   -0.70504  -0.69093  -0.68828  -0.68529  -0.67900
 Alpha  occ. eigenvalues --   -0.67818  -0.67129  -0.66971  -0.65827  -0.65568
 Alpha  occ. eigenvalues --   -0.65480  -0.65359  -0.64962  -0.64706  -0.64501
 Alpha  occ. eigenvalues --   -0.64293  -0.61485  -0.61150  -0.60441  -0.60277
 Alpha  occ. eigenvalues --   -0.60042  -0.59560  -0.59183  -0.58662  -0.58239
 Alpha  occ. eigenvalues --   -0.58189  -0.58004  -0.57653  -0.57580  -0.57233
 Alpha  occ. eigenvalues --   -0.56892  -0.56326  -0.56076  -0.55672  -0.55380
 Alpha  occ. eigenvalues --   -0.55327  -0.55005  -0.54347  -0.53696  -0.53663
 Alpha  occ. eigenvalues --   -0.53411  -0.53287  -0.53139  -0.53076  -0.52901
 Alpha  occ. eigenvalues --   -0.52882  -0.52685  -0.52510  -0.52373  -0.52146
 Alpha  occ. eigenvalues --   -0.52076  -0.51602  -0.51448  -0.51345  -0.51011
 Alpha  occ. eigenvalues --   -0.50860  -0.50830  -0.50501  -0.50457  -0.50264
 Alpha  occ. eigenvalues --   -0.49898  -0.49776  -0.49560  -0.49446  -0.49291
 Alpha  occ. eigenvalues --   -0.49264  -0.49096  -0.49002  -0.48919  -0.48686
 Alpha  occ. eigenvalues --   -0.48637  -0.48567  -0.48294  -0.48029  -0.47982
 Alpha  occ. eigenvalues --   -0.47921  -0.47725  -0.47566  -0.47508  -0.47375
 Alpha  occ. eigenvalues --   -0.47198  -0.46934  -0.46785  -0.46694  -0.46667
 Alpha  occ. eigenvalues --   -0.46566  -0.46207  -0.46197  -0.46003  -0.45868
 Alpha  occ. eigenvalues --   -0.45540  -0.45489  -0.45245  -0.44991  -0.44819
 Alpha  occ. eigenvalues --   -0.44660  -0.44277  -0.44122  -0.43842  -0.43831
 Alpha  occ. eigenvalues --   -0.43819  -0.43796  -0.43498  -0.43455  -0.43258
 Alpha  occ. eigenvalues --   -0.43244  -0.42892  -0.42785  -0.42525  -0.42486
 Alpha  occ. eigenvalues --   -0.42416  -0.41925  -0.41895  -0.41820  -0.41622
 Alpha  occ. eigenvalues --   -0.41568  -0.41496  -0.41420  -0.41315  -0.41191
 Alpha  occ. eigenvalues --   -0.41065  -0.40973  -0.40687  -0.40644  -0.40556
 Alpha  occ. eigenvalues --   -0.40205  -0.40159  -0.39955  -0.39841  -0.39167
 Alpha  occ. eigenvalues --   -0.38915  -0.38407  -0.37730  -0.37297  -0.36995
 Alpha  occ. eigenvalues --   -0.36679  -0.36419  -0.36346  -0.36171  -0.35997
 Alpha  occ. eigenvalues --   -0.35565  -0.35526  -0.34371  -0.33993  -0.33799
 Alpha  occ. eigenvalues --   -0.33739  -0.33451  -0.33100  -0.31693  -0.31366
 Alpha  occ. eigenvalues --   -0.31251  -0.31215  -0.30402  -0.30385  -0.30144
 Alpha  occ. eigenvalues --   -0.30029  -0.29616  -0.29192  -0.24057  -0.23844
 Alpha  occ. eigenvalues --   -0.21570  -0.21298
 Alpha virt. eigenvalues --   -0.08594  -0.08511  -0.02548  -0.01837  -0.00137
 Alpha virt. eigenvalues --    0.00087   0.02267   0.02358   0.02416   0.02525
 Alpha virt. eigenvalues --    0.04688   0.04940   0.05487   0.05617   0.05714

 Mulliken charges:
               1
     1  Mg  12.000015
     2  C    5.998419
     3  C    6.000903
     4  C    6.001249
     5  C    5.999183
     6  N    6.999290
     7  C    6.002169
     8  C    5.999465
     9  C    6.001080
    10  C    5.997444
    11  C    6.000363
    12  C    5.999805
    13  C    5.999947
    14  H    1.000190
    15  N    7.001123
    16  C    5.997138
    17  C    5.997874
    18  C    5.999392
    19  C    5.997308
    20  C    6.000578
    21  C    5.998836
    22  O    7.998503
    23  C    6.000511
    24  N    7.000041
    25  C    5.997364
    26  C    6.001082
    27  C    5.999369
    28  C    6.002301
    29  C    6.000042
    30  C    5.999528
    31  C    5.999988
    32  N    6.999430
    33  C    6.002398
    34  C    6.002494
    35  C    5.999816
    36  C    6.002333
    37  C    5.999537
    38  C    6.000963
    39  O    8.002489
    40  C    6.000110
    41  C    6.000309
    42  O    8.000699
    43  O    7.999899
    44  C    5.999749
    45  H    0.999355
    46  H    0.999767
    47  H    1.000946
    48  H    0.999670
    49  H    0.999903
    50  H    0.998689
    51  H    0.999058
    52  H    0.999734
    53  H    1.000984
    54  H    0.999853
    55  H    1.000634
    56  H    0.999901
    57  H    0.999336
    58  H    0.998957
    59  H    0.997221
    60  H    0.998753
    61  H    0.999451
    62  H    1.000131
    63  H    1.000230
    64  H    0.999630
    65  H    0.999395
    66  H    0.999564
    67  H    1.000484
    68  H    0.999877
    69  H    1.001126
    70  H    1.000108
    71  H    0.999943
    72  H    1.000850
    73  H    1.001749
    74  H    1.001713
    75  H    1.001234
    76  H    0.999946
    77  H    1.000219
    78  H    1.000449
    79  H    1.000409
    80  Mg  12.000100
    81  C    5.987218
    82  C    6.024953
    83  C    6.007677
    84  C    5.980126
    85  N    6.998565
    86  C    6.023182
    87  C    5.992937
    88  C    6.017647
    89  C    5.960716
    90  C    5.999545
    91  C    5.998665
    92  C    5.997903
    93  H    1.004952
    94  N    7.018898
    95  C    5.950939
    96  C    5.984267
    97  C    5.983857
    98  C    5.964718
    99  C    6.002648
   100  C    5.988117
   101  O    7.971725
   102  C    6.004638
   103  N    6.991157
   104  C    5.969619
   105  C    6.008033
   106  C    5.990986
   107  C    6.039055
   108  C    6.004806
   109  C    5.995569
   110  C    5.995927
   111  N    6.995890
   112  C    6.049163
   113  C    6.025533
   114  C    6.002701
   115  C    6.029936
   116  C    5.997039
   117  C    6.014056
   118  O    8.030387
   119  C    6.001043
   120  C    6.005122
   121  O    8.008388
   122  O    7.999497
   123  C    5.996762
   124  H    0.996585
   125  H    0.992989
   126  H    1.008084
   127  H    0.996688
   128  H    0.994993
   129  H    0.997399
   130  H    0.988895
   131  H    1.003284
   132  H    1.008593
   133  H    0.993861
   134  H    1.004111
   135  H    0.994895
   136  H    0.982165
   137  H    0.982071
   138  H    0.984989
   139  H    0.993001
   140  H    0.992970
   141  H    0.985406
   142  H    0.998496
   143  H    1.001556
   144  H    1.000106
   145  H    0.988108
   146  H    1.003577
   147  H    1.009607
   148  H    0.996645
   149  H    1.011991
   150  H    1.005042
   151  H    0.991324
   152  H    1.019351
   153  H    1.019243
   154  H    1.018665
   155  H    1.007985
   156  H    1.000955
   157  H    1.006409
   158  H    1.005298
 Sum of Mulliken charges = 624.00000

 Dipole moment (field-independent basis, Debye):
    X=            -10.4924    Y=              2.7076    Z=             -3.0366  Tot=             11.2535
 Quadrupole moment (field-independent basis, Debye-Ang):
   XX=           -184.1106   YY=              0.9120   ZZ=              2.0585
   XY=             28.2050   XZ=            -15.3445   YZ=              0.1182

 Normal termination of Gaussian 16 at Wed Sep 22 02:44:47 2021.
