 Gaussian 16, Revision A.03,
 Gaussian 16:  ES64L-G16RevA.03 25-Dec-2016

 -----------------------------------
 #p cam-b3lyp/Def2SVP td=(nstates=5)
 -----------------------------------

 --------------------------------
 TDDFT excited states in gaussian
 --------------------------------
 Symbolic Z-matrix:
 Charge =  0 Multiplicity = 1

                         Standard orientation:
 ---------------------------------------------------------------------
 Center     Atomic      Atomic             Coordinates (Angstroms)
 Number     Number       Type             X           Y           Z
 ---------------------------------------------------------------------
      1         12           0       13.526471   -0.755944   -0.125059
      2          6           0       11.920562    2.141787   -1.332695
      3          6           0       15.659951    1.266586    1.655124
      4          6           0       15.159679   -3.463055    1.008386
      5          6           0       11.721858   -2.726683   -2.383984
      6          7           0       13.601445    1.408942    0.173156
      7          6           0       12.922646    2.429400   -0.343261
      8          6           0       13.322872    3.838962    0.139981
      9          6           0       14.700413    3.416146    0.846960
     10          6           0       14.678035    1.907141    0.854514
     11          6           0       15.928693    3.956229    0.155604
     12          6           0       12.265707    4.518384    1.174560
     13          6           0       12.299788    6.049280    1.149181
     14          1           0       10.960384    6.706548    0.727441
     15          7           0       15.105276   -1.099145    1.304458
     16          6           0       15.890627   -0.075326    1.889785
     17          6           0       16.683892   -0.700528    2.923991
     18          6           0       16.544082   -2.077888    2.779330
     19          6           0       15.556349   -2.293595    1.675859
     20          6           0       17.662051    0.048959    3.808815
     21          6           0       17.137817   -3.233261    3.552216
     22          8           0       16.805690   -4.353347    3.294484
     23          6           0       18.082430   -3.024467    4.693553
     24          7           0       13.610361   -2.766940   -0.736563
     25          6           0       14.312682   -3.721793   -0.060750
     26          6           0       13.926733   -5.083523   -0.702227
     27          6           0       12.539378   -4.895138   -1.289325
     28          6           0       12.584832   -3.368076   -1.531787
     29          6           0       14.910406   -5.410361   -1.824905
     30          6           0       11.428352   -5.347238   -0.415692
     31          6           0       11.430053   -4.948158    1.039237
     32          7           0       12.081794   -0.431660   -1.557009
     33          6           0       11.434142   -1.301549   -2.413934
     34          6           0       10.475216   -0.538578   -3.227843
     35          6           0       10.628352    0.794211   -2.807962
     36          6           0       11.581415    0.803828   -1.826353
     37          6           0        9.604237   -1.074949   -4.280291
     38          6           0       10.090223    2.125492   -2.891670
     39          8           0        9.129439    2.589335   -3.573367
     40          6           0       10.928223    3.040644   -1.879098
     41          6           0       11.586527    4.106772   -2.715956
     42          8           0       12.180187    3.865886   -3.725037
     43          8           0       11.510753    5.427554   -2.196612
     44          6           0       12.426021    6.417079   -2.842326
     45          1           0       16.379549    1.891998    2.186471
     46          1           0       15.732526   -4.354266    1.274413
     47          1           0       11.006506   -3.294762   -2.982769
     48          1           0       13.387915    4.520195   -0.709342
     49          1           0       14.617757    3.838746    1.849060
     50          1           0       16.214707    4.852800    0.705329
     51          1           0       15.783618    4.099896   -0.915313
     52          1           0       16.706308    3.235437    0.408126
     53          1           0       12.492041    4.204017    2.193878
     54          1           0       11.255206    4.156874    0.982968
     55          1           0       13.126917    6.234594    0.463584
     56          1           0       12.640050    6.468316    2.095947
     57          1           0       17.337938    1.086977    3.744503
     58          1           0       18.599098   -0.041885    3.260198
     59          1           0       17.632965   -0.291457    4.844086
     60          1           0       17.383433   -2.629878    5.431183
     61          1           0       18.858881   -2.282060    4.510998
     62          1           0       18.523725   -3.973767    4.999112
     63          1           0       13.970199   -5.941909   -0.032761
     64          1           0       12.346860   -5.437339   -2.214503
     65          1           0       14.618144   -5.253852   -2.863314
     66          1           0       15.191642   -6.457501   -1.713558
     67          1           0       15.820197   -4.834751   -1.650685
     68          1           0       11.287162   -6.427265   -0.463312
     69          1           0       10.543014   -4.905605   -0.872738
     70          1           0       10.596358   -4.254820    1.153955
     71          1           0       12.275139   -4.468702    1.534145
     72          1           0       11.173858   -5.827585    1.629848
     73          1           0       10.230584   -1.356840   -5.126586
     74          1           0        8.906840   -0.260798   -4.477187
     75          1           0        9.106620   -1.990919   -3.958911
     76          1           0       10.192420    3.385035   -1.152165
     77          1           0       12.020856    6.736109   -3.802568
     78          1           0       13.435101    6.032192   -2.996588
     79          1           0       12.538881    7.370123   -2.326329
     80         12           0      -13.817069   -0.491582   -0.109248
     81          6           0      -11.623244    1.992930    1.109177
     82          6           0      -16.359760    1.791027   -0.160052
     83          6           0      -15.906134   -2.997792   -0.583387
     84          6           0      -11.237655   -2.861899    0.451173
     85          7           0      -13.910811    1.687043    0.317047
     86          6           0      -12.923216    2.435470    0.767250
     87          6           0      -13.313974    3.892263    0.595607
     88          6           0      -14.890257    3.848361    0.629927
     89          6           0      -15.104563    2.337340    0.243834
     90          6           0      -15.448800    4.330727    2.022444
     91          6           0      -12.850283    4.475685   -0.763832
     92          6           0      -12.749634    6.062699   -0.835683
     93          1           0      -13.123353    6.952761    0.352711
     94          7           0      -15.777866   -0.566538   -0.536261
     95          6           0      -16.710767    0.500394   -0.595300
     96          6           0      -18.015258   -0.049010   -1.032987
     97          6           0      -17.892634   -1.484283   -1.075183
     98          6           0      -16.487306   -1.790392   -0.730299
     99          6           0      -19.202094    0.789523   -1.352982
    100          6           0      -18.908793   -2.637944   -1.432127
    101          8           0      -18.601451   -3.835409   -1.507261
    102          6           0      -20.364079   -2.290353   -1.554849
    103          7           0      -13.629683   -2.666744    0.039822
    104          6           0      -14.617783   -3.469585   -0.253879
    105          6           0      -14.283332   -4.934727   -0.229140
    106          6           0      -12.753125   -4.915022    0.117826
    107          6           0      -12.472563   -3.378653    0.120524
    108          6           0      -15.235424   -5.720977    0.676861
    109          6           0      -11.862314   -5.635776   -0.886222
    110          6           0      -10.675803   -6.480086   -0.297545
    111          7           0      -11.755457   -0.513590    0.567460
    112          6           0      -10.828740   -1.566722    0.695762
    113          6           0       -9.551409   -1.016105    0.993753
    114          6           0       -9.813329    0.346606    1.344772
    115          6           0      -11.122311    0.606803    1.027065
    116          6           0       -8.240175   -1.742074    0.898474
    117          6           0       -9.287938    1.676482    1.736994
    118          8           0       -8.166907    2.007155    2.063191
    119          6           0      -10.529917    2.684777    1.829809
    120          6           0      -10.104242    4.078642    1.502645
    121          8           0       -9.644302    4.461008    0.467309
    122          8           0      -10.214102    4.923416    2.622974
    123          6           0       -9.246731    6.038047    2.708054
    124          1           0      -17.252545    2.404302   -0.018141
    125          1           0      -16.476582   -3.884502   -0.865479
    126          1           0      -10.445932   -3.608822    0.539953
    127          1           0      -12.740620    4.389601    1.377853
    128          1           0      -15.326105    4.483087   -0.142337
    129          1           0      -14.626949    4.583185    2.691627
    130          1           0      -15.874746    3.423292    2.450555
    131          1           0      -16.094979    5.207431    1.976603
    132          1           0      -13.612445    4.143276   -1.469797
    133          1           0      -11.897133    4.005036   -1.004596
    134          1           0      -13.364164    6.333790   -1.695498
    135          1           0      -11.718029    6.259503   -1.128516
    136          1           0      -19.083407    1.869338   -1.434945
    137          1           0      -19.985063    0.702922   -0.600136
    138          1           0      -19.514673    0.428045   -2.332957
    139          1           0      -20.660508   -1.963354   -2.551381
    140          1           0      -20.421192   -1.512288   -0.792637
    141          1           0      -20.910468   -3.174262   -1.226958
    142          1           0      -14.437304   -5.213796   -1.271419
    143          1           0      -12.515741   -5.332112    1.095720
    144          1           0      -15.688124   -5.122209    1.467803
    145          1           0      -14.609817   -6.466168    1.166605
    146          1           0      -16.043028   -6.200839    0.123601
    147          1           0      -11.410888   -4.932865   -1.586183
    148          1           0      -12.567424   -6.165364   -1.526715
    149          1           0      -10.566133   -6.320852    0.775035
    150          1           0       -9.791716   -6.087993   -0.799857
    151          1           0      -10.669522   -7.559312   -0.453795
    152          1           0       -8.401646   -2.678554    1.432577
    153          1           0       -7.399311   -1.223656    1.359587
    154          1           0       -8.032568   -1.998208   -0.140954
    155          1           0      -10.802672    2.799431    2.878397
    156          1           0       -9.807399    6.970488    2.640782
    157          1           0       -8.481187    5.982718    1.933332
    158          1           0       -8.786632    5.940355    3.691314
 ---------------------------------------------------------------------

 SCF Done:  E(RCAM-B3LYP) =  -4069.79441741     A.U. after   19 cycles

 Excitation energies and oscillator strengths:

 Excited State   1:      Singlet-A      1.6952 eV  731.36 nm  f=0.3857  <S**2>=0.000
     309 -> 316        0.17412
     311 -> 313        0.68754
     309 <- 316        0.10611
 This state for optimization and/or second-order correction.
 Total Energy, E(TD-HF/TD-DFT) =  -4069.73211830
 Copying the excited state density for this state as the 1-particle RhoCI density.

 Excited State   2:      Singlet-A      1.7944 eV  690.96 nm  f=0.3641  <S**2>=0.000
     310 -> 315       -0.18886
     312 -> 314        0.68015
     310 <- 315       -0.10306

 Excited State   3:      Singlet-A      2.1690 eV  571.62 nm  f=0.0916  <S**2>=0.000
     310 -> 314        0.64278
     312 -> 315        0.27278

 Excited State   4:      Singlet-A      2.1842 eV  567.65 nm  f=0.1235  <S**2>=0.000
     309 -> 313        0.64689
     311 -> 316       -0.27030

 Excited State   5:      Singlet-A      3.0181 eV  410.80 nm  f=0.0000  <S**2>=0.000
     312 -> 313        0.70707

 The electronic state is 1-A.
 Alpha  occ. eigenvalues --  -46.88538 -46.88463 -19.24404 -19.23179 -19.20238
 Alpha  occ. eigenvalues --  -19.19951 -19.19486 -19.19006 -19.18281 -19.18144
 Alpha  occ. eigenvalues --  -14.43329 -14.41891 -14.41665 -14.41256 -14.39668
 Alpha  occ. eigenvalues --  -14.39622 -14.38969 -14.37926 -10.39305 -10.38459
 Alpha  occ. eigenvalues --  -10.36729 -10.35112 -10.34728 -10.34644 -10.32136
 Alpha  occ. eigenvalues --  -10.31761 -10.31592 -10.31471 -10.31187 -10.31034
 Alpha  occ. eigenvalues --  -10.30863 -10.30794 -10.30740 -10.30561 -10.30534
 Alpha  occ. eigenvalues --  -10.30520 -10.30437 -10.30018 -10.29658 -10.29354
 Alpha  occ. eigenvalues --  -10.29305 -10.29134 -10.28767 -10.28706 -10.28300
 Alpha  occ. eigenvalues --  -10.28280 -10.28214 -10.28167 -10.28125 -10.28116
 Alpha  occ. eigenvalues --  -10.28113 -10.28041 -10.28015 -10.27912 -10.27814
 Alpha  occ. eigenvalues --  -10.27779 -10.27624 -10.27554 -10.27550 -10.27519
 Alpha  occ. eigenvalues --  -10.27445 -10.27310 -10.27128 -10.27042 -10.27040
 Alpha  occ. eigenvalues --  -10.26836 -10.26619 -10.26614 -10.26567 -10.26520
 Alpha  occ. eigenvalues --  -10.26335 -10.26148 -10.26080 -10.26014 -10.25895
 Alpha  occ. eigenvalues --  -10.25801 -10.25793 -10.25537 -10.25528 -10.25373
 Alpha  occ. eigenvalues --  -10.25314 -10.25034 -10.25022 -10.24376 -10.24345
 Alpha  occ. eigenvalues --  -10.24337  -3.17032  -3.16924  -1.91954  -1.91836
 Alpha  occ. eigenvalues --   -1.91464  -1.91381  -1.91349  -1.91220  -1.15521
 Alpha  occ. eigenvalues --   -1.15112  -1.12042  -1.10416  -1.09456  -1.07287
 Alpha  occ. eigenvalues --   -1.06909  -1.06557  -1.05210  -1.05032  -1.04443
 Alpha  occ. eigenvalues --   -1.03453  -1.02848  -1.01685  -1.01616  -1.00895
 Alpha  occ. eigenvalues --   -0.92861  -0.91737  -0.89965  -0.89355  -0.89210
 Alpha  occ. eigenvalues --   -0.88829  -0.88750  -0.87762  -0.87669  -0.87522
 Alpha  occ. eigenvalues --   -0.87161  -0.86853  -0.86132  -0.85360  -0.84620
 Alpha  occ. eigenvalues --   -0.83909  -0.83611  -0.83491  -0.82800  -0.82555
 Alpha  occ. eigenvalues --   -0.82388  -0.81621  -0.81026  -0.80594  -0.79835
 Alpha  occ. eigenvalues --   -0.79786  -0.78832  -0.78526  -0.77260  -0.77116
 Alpha  occ. eigenvalues --   -0.77021  -0.76296  -0.76199  -0.75320  -0.75075
 Alpha  occ. eigenvalues --   -0.74907  -0.72429  -0.72371  -0.71620  -0.71250
 Alpha  occ. eigenvalues --   -0.69755  -0.69623  -0.68764  -0.68545  -0.67754
 Alpha  occ. eigenvalues --   -0.67175  -0.67036  -0.66555  -0.65971  -0.65743
 Alpha  occ. eigenvalues --   -0.65116  -0.64854  -0.64447  -0.64118  -0.63387
 Alpha  occ. eigenvalues --   -0.63328  -0.61680  -0.60965  -0.60305  -0.60132
 Alpha  occ. eigenvalues --   -0.59853  -0.59060  -0.59025  -0.58898  -0.58525
 Alpha  occ. eigenvalues --   -0.58517  -0.57979  -0.57510  -0.57463  -0.56749
 Alpha  occ. eigenvalues --   -0.56381  -0.56314  -0.55678  -0.55357  -0.55002
 Alpha  occ. eigenvalues --   -0.54699  -0.54461  -0.54188  -0.54003  -0.53901
 Alpha  occ. eigenvalues --   -0.53637  -0.53614  -0.53535  -0.53121  -0.53044
 Alpha  occ. eigenvalues --   -0.52956  -0.52747  -0.52352  -0.52101  -0.51939
 Alpha  occ. eigenvalues --   -0.51798  -0.51659  -0.51559  -0.51444  -0.51287
 Alpha  occ. eigenvalues --   -0.51126  -0.50836  -0.50754  -0.50646  -0.50435
 Alpha  occ. eigenvalues --   -0.50126  -0.50094  -0.49959  -0.49932  -0.49608
 Alpha  occ. eigenvalues --   -0.49507  -0.49199  -0.49119  -0.48987  -0.48855
 Alpha  occ. eigenvalues --   -0.48582  -0.48258  -0.48217  -0.48140  -0.47949
 Alpha  occ. eigenvalues --   -0.47762  -0.47646  -0.47567  -0.47444  -0.47241
 Alpha  occ. eigenvalues --   -0.47092  -0.46942  -0.46623  -0.46487  -0.46420
 Alpha  occ. eigenvalues --   -0.46276  -0.46074  -0.45790  -0.45484  -0.45470
 Alpha  occ. eigenvalues --   -0.45367  -0.45322  -0.45131  -0.44964  -0.44878
 Alpha  occ. eigenvalues --   -0.44794  -0.44237  -0.44176  -0.44084  -0.43870
 Alpha  occ. eigenvalues --   -0.43650  -0.43644  -0.43420  -0.43253  -0.43076
 Alpha  occ. eigenvalues --   -0.43027  -0.42999  -0.42765  -0.42662  -0.42525
 Alpha  occ. eigenvalues --   -0.42439  -0.42379  -0.42180  -0.41936  -0.41735
 Alpha  occ. eigenvalues --   -0.41607  -0.41478  -0.41473  -0.41277  -0.41071
 Alpha  occ. eigenvalues --   -0.40960  -0.40901  -0.40840  -0.40290  -0.40190
 Alpha  occ. eigenvalues --   -0.40063  -0.39927  -0.39666  -0.39438  -0.38983
 Alpha  occ. eigenvalues --   -0.38705  -0.38260  -0.37646  -0.37633  -0.37483
 Alpha  occ. eigenvalues --   -0.37200  -0.37038  -0.36340  -0.36300  -0.36108
 Alpha  occ. eigenvalues --   -0.35678  -0.35317  -0.34594  -0.34435  -0.34087
 Alpha  occ. eigenvalues --   -0.33719  -0.33121  -0.33020  -0.31834  -0.31632
 Alpha  occ. eigenvalues --   -0.31294  -0.31115  -0.30394  -0.30220  -0.29925
 Alpha  occ. eigenvalues --   -0.29844  -0.29241  -0.28221  -0.24059  -0.23650
 Alpha  occ. eigenvalues --   -0.21302  -0.21252
 Alpha virt. eigenvalues --   -0.08877  -0.08414  -0.01950  -0.01655  -0.00052
 Alpha virt. eigenvalues --    0.00521   0.02258   0.02798   0.03091   0.03351
 Alpha virt. eigenvalues --    0.04742   0.04907   0.05390   0.05710   0.05843

 Mulliken charges:
               1
     1  Mg   0.813756
     2  C   -0.040320
     3  C   -0.100271
     4  C   -0.056137
     5  C   -0.065225
     6  N   -0.248651
     7  C   -0.044754
     8  C   -0.042290
     9  C   -0.088333
    10  C    0.097141
    11  C    0.104663
    12  C    0.047540
    13  C   -0.047381
    14  H    0.045326
    15  N   -0.365785
    16  C    0.129975
    17  C   -0.165489
    18  C   -0.010125
    19  C    0.115981
    20  C    0.118437
    21  C   -0.027588
    22  O   -0.178024
    23  C    0.053340
    24  N   -0.336415
    25  C    0.059149
    26  C   -0.036003
    27  C    0.001082
    28  C    0.092602
    29  C    0.079043
    30  C    0.053790
    31  C   -0.014010
    32  N   -0.352986
    33  C    0.068184
    34  C   -0.191949
    35  C    0.046614
    36  C    0.100766
    37  C    0.125841
    38  C    0.023116
    39  O   -0.216842
    40  C    0.037623
    41  C    0.193567
    42  O   -0.181912
    43  O   -0.372602
    44  C    0.179022
    45  H   -0.015876
    46  H   -0.006882
    47  H   -0.026801
    48  H    0.020206
    49  H    0.010222
    50  H    0.008537
    51  H    0.034921
    52  H    0.001520
    53  H    0.003200
    54  H    0.019264
    55  H    0.008043
    56  H    0.020874
    57  H    0.008449
    58  H    0.052363
    59  H    0.037051
    60  H    0.038131
    61  H    0.030799
    62  H    0.035177
    63  H   -0.003294
    64  H   -0.010049
    65  H    0.023856
    66  H    0.009546
    67  H    0.009271
    68  H    0.006352
    69  H   -0.008778
    70  H    0.008247
    71  H    0.038108
    72  H    0.006272
    73  H    0.030524
    74  H    0.042510
    75  H    0.013690
    76  H    0.047136
    77  H    0.037710
    78  H    0.032857
    79  H    0.033379
    80  Mg   0.811794
    81  C    0.066057
    82  C   -0.080735
    83  C   -0.049854
    84  C   -0.080305
    85  N   -0.243672
    86  C   -0.044163
    87  C   -0.078567
    88  C   -0.052536
    89  C    0.070615
    90  C    0.081544
    91  C    0.031110
    92  C   -0.039727
    93  H    0.027079
    94  N   -0.472409
    95  C    0.156150
    96  C   -0.129888
    97  C   -0.044066
    98  C    0.185413
    99  C    0.083053
   100  C    0.032448
   101  O   -0.206873
   102  C    0.049078
   103  N   -0.232689
   104  C   -0.065565
   105  C    0.007737
   106  C   -0.051214
   107  C    0.034449
   108  C    0.080416
   109  C    0.038134
   110  C   -0.000231
   111  N   -0.356314
   112  C    0.124436
   113  C   -0.178761
   114  C    0.007008
   115  C    0.040648
   116  C    0.124998
   117  C    0.059070
   118  O   -0.165164
   119  C   -0.025106
   120  C    0.157036
   121  O   -0.178027
   122  O   -0.379324
   123  C    0.174349
   124  H   -0.025567
   125  H   -0.012985
   126  H   -0.046819
   127  H    0.010039
   128  H    0.009985
   129  H    0.016330
   130  H    0.011339
   131  H    0.026117
   132  H    0.000545
   133  H    0.031121
   134  H    0.019273
   135  H    0.041881
   136  H    0.019224
   137  H    0.042531
   138  H    0.038225
   139  H    0.056892
   140  H    0.022307
   141  H    0.038925
   142  H    0.015465
   143  H    0.015189
   144  H    0.024354
   145  H    0.009762
   146  H    0.034345
   147  H    0.006933
   148  H   -0.002379
   149  H    0.016720
   150  H    0.017490
   151  H    0.022395
   152  H    0.015469
   153  H    0.034040
   154  H    0.028491
   155  H    0.049703
   156  H    0.034498
   157  H    0.053235
   158  H    0.037495
 Sum of Mulliken charges =  -0.00000

 Dipole moment (field-independent basis, Debye):
    X=             -0.9291    Y=             -0.5463    Z=              4.3057  Tot=              4.4385
 Quadrupole moment (field-independent basis, Debye-Ang):
   XX=           -247.9391   YY=           -480.6009   ZZ=           -521.3906
   XY=             19.7572   XZ=             75.9807   YZ=             24.8896

 Normal termination of Gaussian 16 at Tue Sep 14 15:41:29 2021.
