 Gaussian 16, Revision A.03,
 Gaussian 16:  ES64L-G16RevA.03 25-Dec-2016

 ----------------------------------------------------------
 #p cam-b3lyp/Def2SVP td=(nstates=5) density=(transition=1)
 ----------------------------------------------------------

 --------------------------------
 TDDFT excited states in gaussian
 --------------------------------
 Symbolic Z-matrix:
 Charge =  0 Multiplicity = 1

                         Standard orientation:
 ---------------------------------------------------------------------
 Center     Atomic      Atomic             Coordinates (Angstroms)
 Number     Number       Type             X           Y           Z
 ---------------------------------------------------------------------
      1         12           0      -15.543055    0.662690    0.342695
      2          6           0      -15.385392   -2.373408   -1.331111
      3          6           0      -13.166125    1.924726   -1.689937
      4          6           0      -15.658943    3.480270    2.146218
      5          6           0      -17.887210   -0.788205    2.501819
      6          7           0      -14.455055   -0.200882   -1.347270
      7          6           0      -14.595700   -1.375925   -1.912729
      8          6           0      -13.615462   -1.423471   -3.173817
      9          6           0      -12.568839   -0.454025   -2.666657
     10          6           0      -13.451414    0.549095   -1.857869
     11          6           0      -11.484218   -1.207192   -1.866628
     12          6           0      -14.418184   -1.153571   -4.518454
     13          6           0      -13.712186   -1.634147   -5.790061
     14          1           0      -12.264526   -2.084664   -5.697857
     15          7           0      -14.694952    2.488096    0.137358
     16          6           0      -13.770502    2.834985   -0.845086
     17          6           0      -13.574506    4.314140   -0.775491
     18          6           0      -14.267038    4.792368    0.417077
     19          6           0      -14.831396    3.529719    0.963561
     20          6           0      -12.730370    5.075386   -1.770061
     21          6           0      -14.457831    6.264773    1.008593
     22          8           0      -15.145526    6.520605    2.002832
     23          6           0      -13.755363    7.384684    0.269710
     24          7           0      -16.502346    1.213007    2.091628
     25          6           0      -16.390700    2.413467    2.653922
     26          6           0      -17.149684    2.517734    4.012739
     27          6           0      -18.011247    1.249114    3.936272
     28          6           0      -17.496758    0.511009    2.740535
     29          6           0      -16.232026    2.598834    5.264545
     30          6           0      -19.593816    1.399268    4.044708
     31          6           0      -20.384533    1.281299    2.783325
     32          7           0      -16.323865   -1.240563    0.712926
     33          6           0      -17.293601   -1.666283    1.556896
     34          6           0      -17.588222   -3.047957    1.418652
     35          6           0      -16.841810   -3.396816    0.249349
     36          6           0      -16.139765   -2.262300   -0.088187
     37          6           0      -18.437095   -4.022110    2.193672
     38          6           0      -16.508451   -4.415473   -0.701237
     39          8           0      -16.851689   -5.573536   -0.803039
     40          6           0      -15.677661   -3.783390   -1.863186
     41          6           0      -14.478669   -4.591359   -2.105519
     42          8           0      -13.618835   -4.759204   -1.254114
     43          8           0      -14.501445   -5.297316   -3.335513
     44          6           0      -13.376262   -6.214816   -3.574200
     45          1           0      -12.349831    2.273622   -2.324099
     46          1           0      -15.641081    4.397664    2.736974
     47          1           0      -18.582568   -1.219988    3.224181
     48          1           0      -13.231861   -2.434541   -3.303721
     49          1           0      -12.102415    0.151155   -3.443625
     50          1           0      -10.607977   -1.090330   -2.505205
     51          1           0      -11.715846   -2.263635   -1.724810
     52          1           0      -11.316981   -0.618513   -0.964906
     53          1           0      -14.599349   -0.085057   -4.638273
     54          1           0      -15.324598   -1.752446   -4.426756
     55          1           0      -13.787094   -0.821282   -6.511721
     56          1           0      -14.309677   -2.453272   -6.189485
     57          1           0      -12.786538    4.629855   -2.763918
     58          1           0      -11.675908    5.206634   -1.529371
     59          1           0      -13.157944    6.070611   -1.890831
     60          1           0      -12.726196    7.033499    0.198832
     61          1           0      -13.722184    8.332375    0.806406
     62          1           0      -14.249192    7.563556   -0.685543
     63          1           0      -17.776937    3.408254    4.050041
     64          1           0      -17.642581    0.603677    4.732678
     65          1           0      -16.695301    1.936930    5.996631
     66          1           0      -16.068746    3.585832    5.694518
     67          1           0      -15.234535    2.276694    4.965528
     68          1           0      -19.814530    2.318031    4.588209
     69          1           0      -19.986445    0.568205    4.630165
     70          1           0      -20.964366    0.360337    2.848772
     71          1           0      -19.816263    1.069467    1.876783
     72          1           0      -21.101637    2.086083    2.621134
     73          1           0      -18.858942   -3.579405    3.096669
     74          1           0      -17.863444   -4.933815    2.362976
     75          1           0      -19.365501   -4.342147    1.720170
     76          1           0      -16.250459   -3.731560   -2.788722
     77          1           0      -13.314304   -6.614978   -4.585894
     78          1           0      -13.556573   -7.015138   -2.855999
     79          1           0      -12.488312   -5.668250   -3.258717
     80         12           0       15.700272    0.375833   -0.831008
     81          6           0       15.514666   -2.894114    0.565465
     82          6           0       12.494617    0.036038   -1.989051
     83          6           0       15.528271    3.848435   -1.229143
     84          6           0       18.730488    0.861607    0.880797
     85          7           0       14.091987   -1.271459   -0.441486
     86          6           0       14.304437   -2.548816   -0.085156
     87          6           0       13.184114   -3.415524   -0.630369
     88          6           0       12.150133   -2.467030   -1.407658
     89          6           0       13.081542   -1.151519   -1.385753
     90          6           0       11.915013   -3.041417   -2.822782
     91          6           0       12.513219   -4.199097    0.486322
     92          6           0       12.332583   -3.471100    1.839534
     93          1           0       10.890778   -3.028362    2.210293
     94          7           0       14.223683    1.777698   -1.610951
     95          6           0       12.967454    1.373504   -2.007442
     96          6           0       12.363730    2.520274   -2.610278
     97          6           0       13.156568    3.700212   -2.340479
     98          6           0       14.401175    3.159867   -1.737355
     99          6           0       10.968078    2.496067   -3.189307
    100          6           0       12.744369    5.164942   -2.495564
    101          8           0       11.617729    5.444962   -2.857202
    102          6           0       13.619429    6.264700   -2.219547
    103          7           0       16.891784    2.126114   -0.172391
    104          6           0       16.679860    3.364756   -0.591982
    105          6           0       17.707422    4.359810   -0.077683
    106          6           0       18.521363    3.414606    0.907050
    107          6           0       18.093728    2.052105    0.495455
    108          6           0       18.617802    5.009033   -1.230933
    109          6           0       18.235843    3.812902    2.427921
    110          6           0       19.318441    4.421944    3.273239
    111          7           0       16.974778   -0.775399    0.212885
    112          6           0       18.243903   -0.473950    0.747622
    113          6           0       18.877685   -1.686553    1.298032
    114          6           0       17.837329   -2.610771    1.204026
    115          6           0       16.639120   -2.029288    0.660002
    116          6           0       20.358932   -1.920739    1.755227
    117          6           0       17.512161   -4.005028    1.521344
    118          8           0       18.166195   -4.938586    2.014916
    119          6           0       16.023199   -4.260669    1.115328
    120          6           0       15.448624   -4.572831    2.453928
    121          8           0       15.475391   -3.841608    3.410479
    122          8           0       15.013368   -5.829220    2.481437
    123          6           0       14.312489   -6.340902    3.710616
    124          1           0       11.617265   -0.158968   -2.609038
    125          1           0       15.640465    4.927726   -1.350021
    126          1           0       19.607035    1.145764    1.467685
    127          1           0       13.786217   -4.071147   -1.259484
    128          1           0       11.212677   -2.337384   -0.866199
    129          1           0       10.852807   -3.262045   -2.926431
    130          1           0       12.437433   -3.976949   -3.024333
    131          1           0       12.182744   -2.243185   -3.514538
    132          1           0       13.084700   -5.104817    0.689441
    133          1           0       11.498208   -4.477599    0.201477
    134          1           0       12.803685   -2.495360    1.957442
    135          1           0       12.716307   -4.175375    2.577765
    136          1           0       10.488428    1.526671   -3.051607
    137          1           0       11.035834    2.832795   -4.224344
    138          1           0       10.407883    3.300412   -2.713823
    139          1           0       13.936697    6.361218   -1.180996
    140          1           0       13.119410    7.196651   -2.482577
    141          1           0       14.490953    6.035659   -2.833762
    142          1           0       17.290408    5.140518    0.557971
    143          1           0       19.541225    3.754578    0.726149
    144          1           0       18.276203    4.657060   -2.204781
    145          1           0       19.633081    4.640299   -1.083600
    146          1           0       18.695816    6.097308   -1.223701
    147          1           0       18.021120    2.931860    3.032812
    148          1           0       17.386146    4.490299    2.501203
    149          1           0       19.791666    3.718825    3.958693
    150          1           0       18.723772    5.149213    3.826984
    151          1           0       20.010209    5.070525    2.735491
    152          1           0       20.483032   -1.444541    2.727434
    153          1           0       21.001917   -1.525806    0.968482
    154          1           0       20.502225   -2.988785    1.918073
    155          1           0       16.046693   -5.075739    0.391064
    156          1           0       15.003974   -6.703314    4.471619
    157          1           0       13.632791   -7.157869    3.464988
    158          1           0       13.729791   -5.492188    4.068686
 ---------------------------------------------------------------------

 SCF Done:  E(RCAM-B3LYP) =  -4069.78002141     A.U. after   17 cycles

 Excitation energies and oscillator strengths:

 Excited State   1:      Singlet-A      1.6888 eV  734.14 nm  f=0.3467  <S**2>=0.000
     309 -> 315       -0.20066
     312 -> 314        0.68021
     309 <- 315       -0.11487
 This state for optimization and/or second-order correction.
 Total Energy, E(TD-HF/TD-DFT) =  -4069.71795823
 Copying the excited state density for this state as the 1-particle RhoCI density.

 Excited State   2:      Singlet-A      1.7358 eV  714.29 nm  f=0.3975  <S**2>=0.000
     310 -> 316        0.17775
     311 -> 313        0.68619
     310 <- 316        0.10687

 Excited State   3:      Singlet-A      2.1998 eV  563.60 nm  f=0.0716  <S**2>=0.000
     309 -> 314        0.61852
     312 -> 315        0.32988

 Excited State   4:      Singlet-A      2.2153 eV  559.67 nm  f=0.1506  <S**2>=0.000
     310 -> 313        0.65487
     311 -> 316       -0.25750

 Excited State   5:      Singlet-A      3.1072 eV  399.02 nm  f=0.0000  <S**2>=0.000
     312 -> 313        0.70710

 The electronic state is 1-A.
 Alpha  occ. eigenvalues --  -46.90247 -46.87752 -19.25103 -19.23907 -19.20462
 Alpha  occ. eigenvalues --  -19.19480 -19.18888 -19.18882 -19.18113 -19.17892
 Alpha  occ. eigenvalues --  -14.42466 -14.42010 -14.42000 -14.41447 -14.40174
 Alpha  occ. eigenvalues --  -14.40097 -14.39576 -14.38620 -10.38866 -10.38755
 Alpha  occ. eigenvalues --  -10.37219 -10.35001 -10.34365 -10.34096 -10.32482
 Alpha  occ. eigenvalues --  -10.32041 -10.31425 -10.31318 -10.31125 -10.31060
 Alpha  occ. eigenvalues --  -10.31016 -10.30986 -10.30964 -10.30775 -10.30740
 Alpha  occ. eigenvalues --  -10.30580 -10.30443 -10.30294 -10.29991 -10.29884
 Alpha  occ. eigenvalues --  -10.29838 -10.29001 -10.28890 -10.28854 -10.28808
 Alpha  occ. eigenvalues --  -10.28762 -10.28661 -10.28431 -10.28415 -10.28189
 Alpha  occ. eigenvalues --  -10.28134 -10.28107 -10.28102 -10.28084 -10.27944
 Alpha  occ. eigenvalues --  -10.27938 -10.27883 -10.27704 -10.27619 -10.27573
 Alpha  occ. eigenvalues --  -10.27537 -10.27475 -10.27280 -10.27229 -10.27144
 Alpha  occ. eigenvalues --  -10.27052 -10.27052 -10.27020 -10.26947 -10.26832
 Alpha  occ. eigenvalues --  -10.26750 -10.26623 -10.26448 -10.26320 -10.26226
 Alpha  occ. eigenvalues --  -10.25881 -10.25821 -10.25753 -10.25729 -10.25681
 Alpha  occ. eigenvalues --  -10.25658 -10.25566 -10.25550 -10.25094 -10.24511
 Alpha  occ. eigenvalues --  -10.24170  -3.18554  -3.16517  -1.93418  -1.93041
 Alpha  occ. eigenvalues --   -1.92831  -1.91428  -1.90937  -1.90864  -1.17090
 Alpha  occ. eigenvalues --   -1.14491  -1.10468  -1.10259  -1.09565  -1.08849
 Alpha  occ. eigenvalues --   -1.07731  -1.06737  -1.05572  -1.04715  -1.04636
 Alpha  occ. eigenvalues --   -1.04136  -1.03712  -1.03149  -1.02433  -1.01638
 Alpha  occ. eigenvalues --   -0.92120  -0.91979  -0.89196  -0.88986  -0.88851
 Alpha  occ. eigenvalues --   -0.88569  -0.88288  -0.88273  -0.87282  -0.87122
 Alpha  occ. eigenvalues --   -0.87107  -0.86249  -0.86154  -0.85396  -0.84722
 Alpha  occ. eigenvalues --   -0.84322  -0.84077  -0.83654  -0.82890  -0.82749
 Alpha  occ. eigenvalues --   -0.82652  -0.82551  -0.81126  -0.80942  -0.80288
 Alpha  occ. eigenvalues --   -0.80059  -0.78573  -0.77933  -0.77381  -0.77231
 Alpha  occ. eigenvalues --   -0.76653  -0.76423  -0.76333  -0.75849  -0.75059
 Alpha  occ. eigenvalues --   -0.75001  -0.72891  -0.72806  -0.71756  -0.71165
 Alpha  occ. eigenvalues --   -0.69241  -0.68934  -0.68740  -0.68559  -0.68152
 Alpha  occ. eigenvalues --   -0.67920  -0.66717  -0.66603  -0.65617  -0.65228
 Alpha  occ. eigenvalues --   -0.65042  -0.64788  -0.64654  -0.64178  -0.64064
 Alpha  occ. eigenvalues --   -0.63992  -0.62447  -0.61242  -0.60622  -0.60318
 Alpha  occ. eigenvalues --   -0.59576  -0.59306  -0.59117  -0.59014  -0.58721
 Alpha  occ. eigenvalues --   -0.58005  -0.57969  -0.57837  -0.57609  -0.57297
 Alpha  occ. eigenvalues --   -0.56347  -0.55877  -0.55787  -0.55659  -0.55429
 Alpha  occ. eigenvalues --   -0.55067  -0.54935  -0.54777  -0.54542  -0.53980
 Alpha  occ. eigenvalues --   -0.53897  -0.53681  -0.53565  -0.53342  -0.53093
 Alpha  occ. eigenvalues --   -0.52985  -0.52655  -0.52648  -0.52525  -0.52323
 Alpha  occ. eigenvalues --   -0.52124  -0.52053  -0.51789  -0.51782  -0.51557
 Alpha  occ. eigenvalues --   -0.51199  -0.50710  -0.50701  -0.50678  -0.50335
 Alpha  occ. eigenvalues --   -0.50192  -0.49877  -0.49836  -0.49720  -0.49514
 Alpha  occ. eigenvalues --   -0.49491  -0.49247  -0.49225  -0.48992  -0.48987
 Alpha  occ. eigenvalues --   -0.48796  -0.48543  -0.48533  -0.48485  -0.48289
 Alpha  occ. eigenvalues --   -0.47830  -0.47742  -0.47366  -0.47339  -0.46983
 Alpha  occ. eigenvalues --   -0.46935  -0.46865  -0.46630  -0.46443  -0.46323
 Alpha  occ. eigenvalues --   -0.46279  -0.46010  -0.45833  -0.45774  -0.45633
 Alpha  occ. eigenvalues --   -0.45561  -0.45338  -0.45212  -0.45126  -0.44935
 Alpha  occ. eigenvalues --   -0.44923  -0.44632  -0.44386  -0.44313  -0.43997
 Alpha  occ. eigenvalues --   -0.43981  -0.43930  -0.43705  -0.43610  -0.43432
 Alpha  occ. eigenvalues --   -0.43308  -0.43242  -0.43209  -0.42965  -0.42916
 Alpha  occ. eigenvalues --   -0.42466  -0.42421  -0.42056  -0.42027  -0.41783
 Alpha  occ. eigenvalues --   -0.41526  -0.41440  -0.41395  -0.41315  -0.41017
 Alpha  occ. eigenvalues --   -0.40962  -0.40889  -0.40513  -0.40206  -0.40150
 Alpha  occ. eigenvalues --   -0.40053  -0.39962  -0.39833  -0.39173  -0.38673
 Alpha  occ. eigenvalues --   -0.38181  -0.38044  -0.38019  -0.37554  -0.37449
 Alpha  occ. eigenvalues --   -0.37138  -0.36777  -0.36610  -0.36412  -0.36137
 Alpha  occ. eigenvalues --   -0.35736  -0.35618  -0.34426  -0.34275  -0.34135
 Alpha  occ. eigenvalues --   -0.33928  -0.33380  -0.33239  -0.32177  -0.31412
 Alpha  occ. eigenvalues --   -0.31138  -0.30774  -0.30716  -0.30493  -0.30305
 Alpha  occ. eigenvalues --   -0.30170  -0.29548  -0.28958  -0.24314  -0.23882
 Alpha  occ. eigenvalues --   -0.21378  -0.21348
 Alpha virt. eigenvalues --   -0.08821  -0.08799  -0.02587  -0.01242  -0.00001
 Alpha virt. eigenvalues --    0.00234   0.00999   0.02395   0.02487   0.03517
 Alpha virt. eigenvalues --    0.04754   0.04805   0.05163   0.05338   0.06146

 Mulliken charges:
               1
     1  Mg  12.000092
     2  C    5.999208
     3  C    6.000324
     4  C    6.000825
     5  C    5.999849
     6  N    6.999577
     7  C    6.001073
     8  C    5.999967
     9  C    6.000093
    10  C    5.999230
    11  C    5.999959
    12  C    5.999899
    13  C    6.000056
    14  H    0.999907
    15  N    7.000305
    16  C    5.998629
    17  C    5.999466
    18  C    5.999295
    19  C    5.999034
    20  C    6.000206
    21  C    5.999623
    22  O    7.999231
    23  C    6.000179
    24  N    7.000220
    25  C    5.998916
    26  C    6.000309
    27  C    5.999693
    28  C    6.000799
    29  C    6.000012
    30  C    5.999947
    31  C    5.999879
    32  N    7.000056
    33  C    6.000995
    34  C    6.000932
    35  C    6.000217
    36  C    6.000783
    37  C    5.999814
    38  C    6.000403
    39  O    8.001002
    40  C    6.000100
    41  C    6.000163
    42  O    8.000123
    43  O    8.000062
    44  C    5.999957
    45  H    0.999407
    46  H    0.999932
    47  H    1.000499
    48  H    0.999903
    49  H    0.999855
    50  H    0.999671
    51  H    0.999621
    52  H    1.000033
    53  H    1.000356
    54  H    0.999853
    55  H    1.000058
    56  H    0.999984
    57  H    0.999447
    58  H    0.999086
    59  H    0.999493
    60  H    0.999722
    61  H    0.999537
    62  H    0.999769
    63  H    1.000072
    64  H    1.000112
    65  H    0.999781
    66  H    1.000097
    67  H    0.999986
    68  H    1.000384
    69  H    1.000073
    70  H    1.000013
    71  H    0.999890
    72  H    1.000363
    73  H    1.000641
    74  H    1.000623
    75  H    1.000797
    76  H    1.000232
    77  H    1.000150
    78  H    1.000085
    79  H    1.000064
    80  Mg  12.004986
    81  C    6.016896
    82  C    5.966969
    83  C    5.979892
    84  C    6.025886
    85  N    7.006849
    86  C    5.969250
    87  C    6.001153
    88  C    5.984792
    89  C    6.045356
    90  C    5.998788
    91  C    6.003013
    92  C    6.008057
    93  H    0.985986
    94  N    6.986494
    95  C    6.051131
    96  C    6.015970
    97  C    6.012176
    98  C    6.044099
    99  C    5.994987
   100  C    6.011386
   101  O    8.018288
   102  C    5.995556
   103  N    7.004136
   104  C    6.028847
   105  C    5.986742
   106  C    6.015996
   107  C    5.959112
   108  C    5.997099
   109  C    6.001064
   110  C    6.002026
   111  N    7.007484
   112  C    5.951208
   113  C    5.974081
   114  C    5.996820
   115  C    5.963607
   116  C    5.996662
   117  C    5.985359
   118  O    7.966745
   119  C    5.999323
   120  C    5.993265
   121  O    7.998014
   122  O    7.998567
   123  C    6.002151
   124  H    1.005643
   125  H    1.009706
   126  H    0.990896
   127  H    1.005992
   128  H    1.006919
   129  H    1.004880
   130  H    1.011408
   131  H    0.995914
   132  H    1.005057
   133  H    0.991756
   134  H    1.000155
   135  H    1.003885
   136  H    1.020113
   137  H    1.019887
   138  H    1.017248
   139  H    1.011454
   140  H    1.012620
   141  H    1.006638
   142  H    1.002242
   143  H    0.994614
   144  H    0.996438
   145  H    1.012805
   146  H    1.001705
   147  H    1.003586
   148  H    0.986029
   149  H    1.002568
   150  H    0.994676
   151  H    0.995097
   152  H    0.982787
   153  H    0.984536
   154  H    0.988576
   155  H    0.990051
   156  H    0.998173
   157  H    0.994021
   158  H    0.995656
 Sum of Mulliken charges = 624.00000

 Dipole moment (field-independent basis, Debye):
    X=             -6.8648    Y=              5.9848    Z=             -5.0315  Tot=             10.4048
 Quadrupole moment (field-independent basis, Debye-Ang):
   XX=           -203.2226   YY=              3.7243   ZZ=              4.8414
   XY=             98.2366   XZ=            -75.3385   YZ=             -4.4542

 Normal termination of Gaussian 16 at Thu Sep 23 12:57:05 2021.
