 Gaussian 16, Revision A.03,
 Gaussian 16:  ES64L-G16RevA.03 25-Dec-2016

 -----------------------------------
 #p cam-b3lyp/Def2SVP td=(nstates=5)
 -----------------------------------

 --------------------------------
 TDDFT excited states in gaussian
 --------------------------------
 Symbolic Z-matrix:
 Charge =  0 Multiplicity = 1

                         Standard orientation:
 ---------------------------------------------------------------------
 Center     Atomic      Atomic             Coordinates (Angstroms)
 Number     Number       Type             X           Y           Z
 ---------------------------------------------------------------------
      1         12           0       -9.917039    0.138771    0.641064
      2          6           0       -9.155067   -1.852082   -2.082069
      3          6           0       -6.812151   -0.790903    2.086124
      4          6           0      -10.317671    2.509893    3.082261
      5          6           0      -12.693650    1.398992   -0.981057
      6          7           0       -8.276882   -1.275598    0.088098
      7          6           0       -8.148992   -1.899400   -1.135127
      8          6           0       -6.746090   -2.577457   -1.362602
      9          6           0       -6.166853   -2.569712    0.130243
     10          6           0       -7.141796   -1.511648    0.893571
     11          6           0       -6.046323   -3.929864    0.917555
     12          6           0       -5.849334   -1.876265   -2.321283
     13          6           0       -5.374739   -2.565192   -3.586322
     14          1           0       -4.010769   -2.111114   -4.130523
     15          7           0       -8.760748    0.709683    2.415366
     16          6           0       -7.540143    0.130493    2.810391
     17          6           0       -7.133664    0.678439    4.065290
     18          6           0       -8.089486    1.790278    4.310114
     19          6           0       -9.133657    1.737248    3.240503
     20          6           0       -5.817038    0.332418    4.768492
     21          6           0       -7.926575    2.734028    5.514389
     22          8           0       -7.034279    2.716465    6.357375
     23          6           0       -8.729817    3.986225    5.503873
     24          7           0      -11.265077    1.923924    0.934061
     25          6           0      -11.300170    2.576646    2.103832
     26          6           0      -12.224597    3.776686    1.903625
     27          6           0      -13.109075    3.426160    0.617451
     28          6           0      -12.333884    2.120994    0.132147
     29          6           0      -13.177665    3.920331    3.142736
     30          6           0      -13.265987    4.490434   -0.544975
     31          6           0      -14.621358    5.112312   -0.846395
     32          7           0      -10.841061   -0.211602   -1.170323
     33          6           0      -12.005339    0.352935   -1.700635
     34          6           0      -12.238391   -0.156892   -3.017254
     35          6           0      -11.141078   -1.042739   -3.249086
     36          6           0      -10.356781   -1.047027   -2.030268
     37          6           0      -13.351583    0.172100   -3.961340
     38          6           0      -10.547804   -1.963124   -4.128928
     39          8           0      -10.926776   -2.291032   -5.235480
     40          6           0       -9.208085   -2.463807   -3.462612
     41          6           0       -9.124937   -3.924557   -3.617392
     42          8           0       -8.386691   -4.474563   -4.426782
     43          8           0      -10.006973   -4.548432   -2.747742
     44          6           0      -10.007195   -6.022513   -2.882281
     45          1           0       -5.907357   -1.033295    2.646645
     46          1           0      -10.412937    3.174813    3.943693
     47          1           0      -13.550380    1.840302   -1.494347
     48          1           0       -6.890935   -3.606266   -1.690422
     49          1           0       -5.198959   -2.069505    0.081627
     50          1           0       -6.179412   -4.731511    0.191159
     51          1           0       -6.755291   -4.044625    1.737599
     52          1           0       -5.057901   -3.943238    1.375324
     53          1           0       -4.926314   -1.666372   -1.778740
     54          1           0       -6.327914   -0.965319   -2.679176
     55          1           0       -6.076216   -2.314393   -4.381483
     56          1           0       -5.263107   -3.643494   -3.475038
     57          1           0       -5.083884   -0.328847    4.307171
     58          1           0       -6.167621   -0.028071    5.735255
     59          1           0       -5.424550    1.309174    5.049527
     60          1           0       -9.721083    3.995039    5.955066
     61          1           0       -8.768318    4.443092    4.514874
     62          1           0       -8.189609    4.691019    6.137060
     63          1           0      -11.681124    4.710022    1.754824
     64          1           0      -14.085251    3.052133    0.924146
     65          1           0      -13.120033    4.960642    3.462912
     66          1           0      -12.959675    3.259592    3.982735
     67          1           0      -14.217321    3.683769    2.915175
     68          1           0      -12.898996    3.966763   -1.427415
     69          1           0      -12.636041    5.329033   -0.245064
     70          1           0      -14.559200    5.431880   -1.886947
     71          1           0      -14.743065    6.005978   -0.233915
     72          1           0      -15.526248    4.509654   -0.775952
     73          1           0      -13.171749   -0.427847   -4.853814
     74          1           0      -13.323327    1.248193   -4.129880
     75          1           0      -14.350772   -0.085704   -3.609793
     76          1           0       -8.432502   -2.026175   -4.092049
     77          1           0      -10.747043   -6.330997   -3.620828
     78          1           0      -10.152667   -6.412477   -1.874899
     79          1           0       -9.029759   -6.402811   -3.177724
     80         12           0        9.987911    0.737676    0.052457
     81          6           0        8.260537   -1.876338    1.487428
     82          6           0        6.979273    1.949875   -1.036449
     83          6           0       11.689787    3.140649   -1.600948
     84          6           0       12.992611   -0.886232    0.703482
     85          7           0        7.858686   -0.049381    0.141115
     86          6           0        7.395324   -0.961998    0.905266
     87          6           0        5.787737   -1.103527    0.968624
     88          6           0        5.429900   -0.015476   -0.119360
     89          6           0        6.846086    0.654932   -0.452887
     90          6           0        4.822797   -0.599969   -1.500259
     91          6           0        5.133264   -0.831552    2.392001
     92          6           0        3.821011   -1.613361    2.754470
     93          1           0        3.150935   -2.355434    1.637800
     94          7           0        9.440310    2.327893   -1.057515
     95          6           0        8.087251    2.754868   -1.357679
     96          6           0        8.179859    4.004360   -2.105660
     97          6           0        9.538704    4.303647   -2.374770
     98          6           0       10.293476    3.267962   -1.633626
     99          6           0        6.904568    4.703859   -2.411571
    100          6           0       10.191137    5.485463   -3.129692
    101          8           0       11.353172    5.592686   -3.387364
    102          6           0        9.197161    6.499914   -3.730502
    103          7           0       12.051886    1.082174   -0.515627
    104          6           0       12.512300    2.097867   -1.174914
    105          6           0       14.009943    1.910606   -1.549393
    106          6           0       14.448602    0.682241   -0.716612
    107          6           0       13.096989    0.245399   -0.104181
    108          6           0       14.182605    1.730362   -3.072611
    109          6           0       15.567323    1.027125    0.313772
    110          6           0       16.950170    1.304511   -0.297759
    111          7           0       10.568139   -1.038906    0.926400
    112          6           0       11.841059   -1.504165    1.204698
    113          6           0       11.677410   -2.719132    1.958686
    114          6           0       10.281055   -2.981413    2.092527
    115          6           0        9.689076   -1.860541    1.449098
    116          6           0       12.737206   -3.539107    2.419039
    117          6           0        9.254712   -3.803671    2.649606
    118          8           0        9.373857   -4.910875    3.254157
    119          6           0        7.900291   -3.157700    2.161653
    120          6           0        7.209312   -4.151963    1.368700
    121          8           0        7.445490   -4.383120    0.183147
    122          8           0        6.393678   -4.852260    2.220669
    123          6           0        5.819072   -6.067213    1.605172
    124          1           0        6.037244    2.346879   -1.419212
    125          1           0       12.171527    3.963198   -2.134945
    126          1           0       13.966103   -1.318989    0.945168
    127          1           0        5.607037   -2.102898    0.571944
    128          1           0        4.690008    0.680051    0.276251
    129          1           0        5.091479   -1.654741   -1.564858
    130          1           0        5.246516   -0.057961   -2.345570
    131          1           0        3.741926   -0.524810   -1.623692
    132          1           0        4.887909    0.229643    2.359443
    133          1           0        5.818555   -0.785172    3.239061
    134          1           0        3.048596   -0.990387    3.205283
    135          1           0        4.066494   -2.408693    3.458297
    136          1           0        6.455421    4.303865   -3.321073
    137          1           0        6.993042    5.789532   -2.369296
    138          1           0        6.225267    4.491450   -1.586363
    139          1           0        8.729257    7.163728   -3.002840
    140          1           0        8.482486    5.835321   -4.214895
    141          1           0        9.586087    7.129621   -4.530137
    142          1           0       14.461445    2.825508   -1.166467
    143          1           0       14.766915   -0.117068   -1.385810
    144          1           0       13.311203    1.350300   -3.606270
    145          1           0       14.925735    1.013211   -3.422836
    146          1           0       14.434968    2.720961   -3.450824
    147          1           0       15.705364    0.175067    0.977944
    148          1           0       15.259554    1.879994    0.919692
    149          1           0       16.837539    1.295680   -1.381898
    150          1           0       17.579116    0.425622   -0.155253
    151          1           0       17.525092    2.157794    0.061260
    152          1           0       13.464426   -2.837993    2.828721
    153          1           0       13.261428   -4.122130    1.662000
    154          1           0       12.326438   -4.282982    3.102473
    155          1           0        7.355831   -3.005428    3.093945
    156          1           0        6.658665   -6.739339    1.425665
    157          1           0        5.194742   -5.831389    0.744009
    158          1           0        5.170095   -6.528959    2.349459
 ---------------------------------------------------------------------

 SCF Done:  E(RCAM-B3LYP) =  -4069.81003267     A.U. after   18 cycles

 Excitation energies and oscillator strengths:

 Excited State   1:      Singlet-A      1.7124 eV  724.05 nm  f=0.3791  <S**2>=0.000
     309 -> 315       -0.17426
     311 -> 313        0.68631
     309 <- 315       -0.10496
 This state for optimization and/or second-order correction.
 Total Energy, E(TD-HF/TD-DFT) =  -4069.74710463
 Copying the excited state density for this state as the 1-particle RhoCI density.

 Excited State   2:      Singlet-A      1.7727 eV  699.41 nm  f=0.3818  <S**2>=0.000
     310 -> 316        0.19900
     312 -> 314        0.67931
     310 <- 316        0.10972

 Excited State   3:      Singlet-A      2.1716 eV  570.93 nm  f=0.1619  <S**2>=0.000
     309 -> 313        0.65173
     311 -> 315        0.25342

 Excited State   4:      Singlet-A      2.2145 eV  559.87 nm  f=0.1116  <S**2>=0.000
     310 -> 314        0.64269
     312 -> 316       -0.28125

 Excited State   5:      Singlet-A      2.6131 eV  474.47 nm  f=0.0000  <S**2>=0.000
     312 -> 313        0.70695

 The electronic state is 1-A.
 Alpha  occ. eigenvalues --  -46.90626 -46.88392 -19.25242 -19.24822 -19.20150
 Alpha  occ. eigenvalues --  -19.19952 -19.19323 -19.19260 -19.18438 -19.18240
 Alpha  occ. eigenvalues --  -14.43632 -14.42218 -14.42136 -14.41532 -14.40194
 Alpha  occ. eigenvalues --  -14.40015 -14.39671 -14.38940 -10.39251 -10.38570
 Alpha  occ. eigenvalues --  -10.36259 -10.35424 -10.34763 -10.34325 -10.33252
 Alpha  occ. eigenvalues --  -10.32214 -10.31841 -10.31821 -10.31819 -10.31619
 Alpha  occ. eigenvalues --  -10.31308 -10.30967 -10.30679 -10.30663 -10.30562
 Alpha  occ. eigenvalues --  -10.30467 -10.30417 -10.30341 -10.30271 -10.29979
 Alpha  occ. eigenvalues --  -10.29580 -10.29426 -10.29295 -10.29237 -10.29003
 Alpha  occ. eigenvalues --  -10.28950 -10.28916 -10.28864 -10.28805 -10.28663
 Alpha  occ. eigenvalues --  -10.28580 -10.28433 -10.28432 -10.28398 -10.28344
 Alpha  occ. eigenvalues --  -10.28184 -10.28085 -10.28033 -10.27828 -10.27763
 Alpha  occ. eigenvalues --  -10.27605 -10.27603 -10.27546 -10.27476 -10.27162
 Alpha  occ. eigenvalues --  -10.27158 -10.27146 -10.27131 -10.27098 -10.26997
 Alpha  occ. eigenvalues --  -10.26918 -10.26674 -10.26549 -10.26419 -10.26301
 Alpha  occ. eigenvalues --  -10.26256 -10.26178 -10.26170 -10.26018 -10.25651
 Alpha  occ. eigenvalues --  -10.25561 -10.25380 -10.25323 -10.25052 -10.24645
 Alpha  occ. eigenvalues --  -10.24448  -3.18836  -3.17005  -1.93765  -1.93268
 Alpha  occ. eigenvalues --   -1.93138  -1.91898  -1.91467  -1.91309  -1.15657
 Alpha  occ. eigenvalues --   -1.15544  -1.12503  -1.10208  -1.09904  -1.07602
 Alpha  occ. eigenvalues --   -1.07243  -1.06751  -1.05386  -1.04961  -1.04310
 Alpha  occ. eigenvalues --   -1.04197  -1.03453  -1.02716  -1.01883  -1.00866
 Alpha  occ. eigenvalues --   -0.92727  -0.92526  -0.89650  -0.89536  -0.89311
 Alpha  occ. eigenvalues --   -0.88354  -0.88325  -0.87858  -0.87838  -0.87484
 Alpha  occ. eigenvalues --   -0.87314  -0.86959  -0.86849  -0.85967  -0.84663
 Alpha  occ. eigenvalues --   -0.83975  -0.83921  -0.83475  -0.83041  -0.82375
 Alpha  occ. eigenvalues --   -0.82328  -0.81746  -0.81058  -0.81024  -0.80893
 Alpha  occ. eigenvalues --   -0.80279  -0.78539  -0.77974  -0.77384  -0.77322
 Alpha  occ. eigenvalues --   -0.77140  -0.76404  -0.76360  -0.75767  -0.75662
 Alpha  occ. eigenvalues --   -0.74837  -0.73646  -0.72424  -0.72203  -0.71464
 Alpha  occ. eigenvalues --   -0.69528  -0.69404  -0.69135  -0.68815  -0.68196
 Alpha  occ. eigenvalues --   -0.68141  -0.67287  -0.66992  -0.65836  -0.65767
 Alpha  occ. eigenvalues --   -0.65623  -0.65398  -0.65391  -0.64958  -0.64752
 Alpha  occ. eigenvalues --   -0.64082  -0.63130  -0.61566  -0.60396  -0.60014
 Alpha  occ. eigenvalues --   -0.59891  -0.59606  -0.59368  -0.59213  -0.59137
 Alpha  occ. eigenvalues --   -0.58285  -0.57933  -0.57885  -0.57665  -0.57119
 Alpha  occ. eigenvalues --   -0.56697  -0.56114  -0.55986  -0.55734  -0.55583
 Alpha  occ. eigenvalues --   -0.55157  -0.54935  -0.54554  -0.53975  -0.53969
 Alpha  occ. eigenvalues --   -0.53664  -0.53379  -0.53361  -0.53140  -0.52971
 Alpha  occ. eigenvalues --   -0.52964  -0.52915  -0.52724  -0.52641  -0.52239
 Alpha  occ. eigenvalues --   -0.52076  -0.51993  -0.51902  -0.51463  -0.51397
 Alpha  occ. eigenvalues --   -0.51115  -0.51066  -0.50946  -0.50717  -0.50523
 Alpha  occ. eigenvalues --   -0.50373  -0.50352  -0.49857  -0.49633  -0.49430
 Alpha  occ. eigenvalues --   -0.49293  -0.49155  -0.49008  -0.48955  -0.48777
 Alpha  occ. eigenvalues --   -0.48524  -0.48455  -0.48451  -0.48199  -0.48075
 Alpha  occ. eigenvalues --   -0.47942  -0.47841  -0.47800  -0.47315  -0.47152
 Alpha  occ. eigenvalues --   -0.47044  -0.46840  -0.46723  -0.46635  -0.46452
 Alpha  occ. eigenvalues --   -0.46274  -0.46232  -0.46129  -0.46029  -0.45976
 Alpha  occ. eigenvalues --   -0.45833  -0.45599  -0.45444  -0.45317  -0.45133
 Alpha  occ. eigenvalues --   -0.44858  -0.44819  -0.44665  -0.44396  -0.44284
 Alpha  occ. eigenvalues --   -0.44256  -0.44175  -0.43865  -0.43776  -0.43731
 Alpha  occ. eigenvalues --   -0.43515  -0.43199  -0.43123  -0.42922  -0.42895
 Alpha  occ. eigenvalues --   -0.42770  -0.42667  -0.42550  -0.42348  -0.42289
 Alpha  occ. eigenvalues --   -0.41737  -0.41727  -0.41677  -0.41642  -0.41476
 Alpha  occ. eigenvalues --   -0.41415  -0.41185  -0.40649  -0.40633  -0.40220
 Alpha  occ. eigenvalues --   -0.40106  -0.39852  -0.39839  -0.39620  -0.39389
 Alpha  occ. eigenvalues --   -0.38480  -0.38235  -0.38009  -0.37960  -0.37625
 Alpha  occ. eigenvalues --   -0.37551  -0.37364  -0.36904  -0.36880  -0.36582
 Alpha  occ. eigenvalues --   -0.36321  -0.36047  -0.34617  -0.34455  -0.34308
 Alpha  occ. eigenvalues --   -0.33908  -0.33472  -0.33434  -0.31903  -0.31743
 Alpha  occ. eigenvalues --   -0.31370  -0.31189  -0.30660  -0.30387  -0.30327
 Alpha  occ. eigenvalues --   -0.30142  -0.29726  -0.29165  -0.24754  -0.23665
 Alpha  occ. eigenvalues --   -0.22293  -0.21237
 Alpha virt. eigenvalues --   -0.09868  -0.08416  -0.02478  -0.01690  -0.00121
 Alpha virt. eigenvalues --   -0.00029   0.02078   0.02096   0.02209   0.02610
 Alpha virt. eigenvalues --    0.04362   0.05143   0.05455   0.05671   0.05912

 Mulliken charges:
               1
     1  Mg   0.796944
     2  C    0.074260
     3  C   -0.043492
     4  C   -0.054737
     5  C   -0.052226
     6  N   -0.300160
     7  C   -0.060087
     8  C   -0.022683
     9  C   -0.080306
    10  C    0.067053
    11  C    0.078487
    12  C    0.079191
    13  C   -0.093553
    14  H    0.007366
    15  N   -0.374533
    16  C    0.119181
    17  C   -0.139376
    18  C   -0.092443
    19  C    0.150387
    20  C    0.136734
    21  C    0.043179
    22  O   -0.209482
    23  C    0.005531
    24  N   -0.267842
    25  C    0.091557
    26  C   -0.078165
    27  C   -0.006876
    28  C   -0.004304
    29  C    0.048987
    30  C    0.036053
    31  C    0.003105
    32  N   -0.332699
    33  C    0.107771
    34  C   -0.158820
    35  C    0.031455
    36  C    0.039582
    37  C    0.122488
    38  C   -0.007761
    39  O   -0.164407
    40  C    0.009081
    41  C    0.181805
    42  O   -0.214773
    43  O   -0.355701
    44  C    0.174447
    45  H   -0.038808
    46  H   -0.042367
    47  H   -0.028400
    48  H    0.010159
    49  H    0.014972
    50  H    0.021671
    51  H    0.027124
    52  H    0.021078
    53  H    0.016095
    54  H    0.018092
    55  H    0.047252
    56  H    0.036820
    57  H    0.033706
    58  H    0.033472
    59  H    0.040096
    60  H    0.046164
    61  H    0.034496
    62  H    0.021555
    63  H    0.028571
    64  H    0.005619
    65  H    0.013881
    66  H    0.019700
    67  H    0.009995
    68  H    0.018796
    69  H    0.003583
    70  H    0.014618
    71  H    0.016053
    72  H    0.017552
    73  H    0.039143
    74  H    0.023856
    75  H    0.024336
    76  H    0.036501
    77  H    0.051487
    78  H    0.034314
    79  H    0.038598
    80  Mg   0.834229
    81  C    0.046710
    82  C   -0.061043
    83  C   -0.071189
    84  C   -0.093611
    85  N   -0.207342
    86  C   -0.140026
    87  C    0.026895
    88  C   -0.087968
    89  C    0.045394
    90  C    0.043983
    91  C    0.065401
    92  C   -0.076907
    93  H    0.019325
    94  N   -0.449244
    95  C    0.144397
    96  C   -0.127357
    97  C   -0.062976
    98  C    0.122877
    99  C    0.101044
   100  C    0.037263
   101  O   -0.159014
   102  C    0.015465
   103  N   -0.261515
   104  C    0.011115
   105  C    0.001199
   106  C   -0.019828
   107  C    0.031454
   108  C    0.063881
   109  C    0.026399
   110  C    0.015637
   111  N   -0.333833
   112  C    0.151028
   113  C   -0.160959
   114  C    0.054012
   115  C    0.083231
   116  C    0.103569
   117  C    0.016009
   118  O   -0.220173
   119  C   -0.011557
   120  C    0.204986
   121  O   -0.233741
   122  O   -0.336160
   123  C    0.186411
   124  H   -0.027661
   125  H   -0.015274
   126  H   -0.031211
   127  H    0.025718
   128  H    0.014463
   129  H    0.026836
   130  H    0.018029
   131  H    0.017243
   132  H   -0.007189
   133  H    0.015556
   134  H    0.034630
   135  H    0.042453
   136  H    0.043385
   137  H    0.020540
   138  H    0.020636
   139  H    0.049386
   140  H    0.033297
   141  H    0.022932
   142  H    0.011406
   143  H    0.008453
   144  H    0.021704
   145  H    0.013322
   146  H    0.028490
   147  H    0.004140
   148  H    0.007213
   149  H    0.004384
   150  H    0.003684
   151  H    0.027929
   152  H    0.017399
   153  H    0.026332
   154  H    0.033166
   155  H    0.032653
   156  H    0.050053
   157  H    0.038506
   158  H    0.029924
 Sum of Mulliken charges =  -0.00000

 Dipole moment (field-independent basis, Debye):
    X=             -4.2733    Y=              5.4620    Z=              2.8907  Tot=              7.5133
 Quadrupole moment (field-independent basis, Debye-Ang):
   XX=           -472.2965   YY=           -506.6541   ZZ=           -576.0738
   XY=             -1.9473   XZ=            -45.0998   YZ=            -12.5325

 Normal termination of Gaussian 16 at Thu Sep 16 04:24:10 2021.
