 Gaussian 16, Revision A.03,
 Gaussian 16:  ES64L-G16RevA.03 25-Dec-2016

 -----------------------------------
 #p cam-b3lyp/Def2SVP td=(nstates=5)
 -----------------------------------

 --------------------------------
 TDDFT excited states in gaussian
 --------------------------------
 Symbolic Z-matrix:
 Charge =  0 Multiplicity = 1

                         Standard orientation:
 ---------------------------------------------------------------------
 Center     Atomic      Atomic             Coordinates (Angstroms)
 Number     Number       Type             X           Y           Z
 ---------------------------------------------------------------------
      1         12           0       23.768274    0.561574   -0.612373
      2          6           0       22.805399   -2.600234    0.981824
      3          6           0       20.394637    1.321270   -0.467055
      4          6           0       24.624785    3.611951   -0.974947
      5          6           0       27.153958   -0.537534   -0.121581
      6          7           0       21.797623   -0.554659    0.349569
      7          6           0       21.652549   -1.802232    0.915942
      8          6           0       20.170267   -1.980518    1.409729
      9          6           0       19.388942   -0.863513    0.696261
     10          6           0       20.580033    0.019545    0.162047
     11          6           0       18.437402   -1.255054   -0.509622
     12          6           0       20.022323   -1.989072    2.969834
     13          6           0       19.023724   -2.970001    3.545499
     14          1           0       17.646184   -2.387973    3.992925
     15          7           0       22.690054    2.206760   -0.831717
     16          6           0       21.328273    2.339049   -0.855744
     17          6           0       20.963662    3.762377   -1.094467
     18          6           0       22.210566    4.429120   -1.216717
     19          6           0       23.236727    3.420600   -0.964086
     20          6           0       19.550933    4.368682   -1.111976
     21          6           0       22.481725    5.932978   -1.316795
     22          8           0       21.506941    6.674141   -1.409433
     23          6           0       23.761845    6.522726   -1.342845
     24          7           0       25.666487    1.448986   -0.283434
     25          6           0       25.727620    2.734560   -0.783506
     26          6           0       27.245878    3.156766   -0.860605
     27          6           0       28.005580    1.909011   -0.283205
     28          6           0       26.880925    0.846880   -0.327196
     29          6           0       27.753146    3.594017   -2.262216
     30          6           0       28.703578    2.026174    1.131503
     31          6           0       30.074731    2.720136    1.206421
     32          7           0       24.860239   -1.191054    0.191263
     33          6           0       26.203134   -1.511371    0.188275
     34          6           0       26.430804   -2.879551    0.585840
     35          6           0       25.102748   -3.357517    0.895995
     36          6           0       24.137958   -2.306741    0.709756
     37          6           0       27.785419   -3.506938    0.705762
     38          6           0       24.408635   -4.457188    1.399223
     39          8           0       24.807948   -5.499026    1.901501
     40          6           0       22.934309   -4.004305    1.606519
     41          6           0       22.117242   -5.004219    0.822078
     42          8           0       21.132266   -5.586999    1.282274
     43          8           0       22.460272   -5.124879   -0.584615
     44          6           0       21.426075   -5.815128   -1.353716
     45          1           0       19.329784    1.558711   -0.501359
     46          1           0       25.065636    4.566819   -1.268755
     47          1           0       28.224126   -0.754110   -0.110802
     48          1           0       19.758926   -2.878402    0.946328
     49          1           0       18.855810   -0.227040    1.402492
     50          1           0       17.429995   -1.159581   -0.105059
     51          1           0       18.568218   -2.299401   -0.791560
     52          1           0       18.584400   -0.688390   -1.429012
     53          1           0       19.629332   -1.064994    3.394561
     54          1           0       20.973839   -2.240322    3.438933
     55          1           0       19.536184   -3.513695    4.339171
     56          1           0       18.792567   -3.696774    2.766087
     57          1           0       19.478565    5.112123   -1.906247
     58          1           0       19.427898    4.769156   -0.105771
     59          1           0       18.803713    3.612468   -1.348740
     60          1           0       24.250979    6.224207   -2.270613
     61          1           0       24.372274    6.332925   -0.459924
     62          1           0       23.500148    7.578116   -1.259518
     63          1           0       27.500848    3.995624   -0.213854
     64          1           0       28.746663    1.534314   -0.988833
     65          1           0       28.587056    2.927497   -2.482754
     66          1           0       28.105254    4.622695   -2.191715
     67          1           0       26.876043    3.470168   -2.898575
     68          1           0       28.812179    0.986881    1.443336
     69          1           0       28.098583    2.620259    1.816761
     70          1           0       30.262911    2.905221    0.148471
     71          1           0       30.854948    2.021632    1.512190
     72          1           0       30.133086    3.645136    1.779557
     73          1           0       28.332420   -2.875070    1.404267
     74          1           0       28.372500   -3.452919   -0.210861
     75          1           0       27.762402   -4.474690    1.206932
     76          1           0       22.711110   -4.134454    2.665280
     77          1           0       21.678572   -5.353085   -2.308859
     78          1           0       20.435773   -5.692798   -0.915092
     79          1           0       21.740764   -6.856638   -1.420665
     80         12           0      -23.866787    0.520235    0.333179
     81          6           0      -23.139756   -2.425471   -1.460269
     82          6           0      -22.275938    2.249932   -2.200982
     83          6           0      -24.393895    3.443366    2.016049
     84          6           0      -25.076990   -1.306418    2.876410
     85          7           0      -22.844637   -0.034007   -1.650978
     86          6           0      -22.778738   -1.281824   -2.259099
     87          6           0      -22.317887   -1.146297   -3.696463
     88          6           0      -21.717511    0.305318   -3.755738
     89          6           0      -22.323273    0.862434   -2.487113
     90          6           0      -20.144416    0.392822   -3.860465
     91          6           0      -23.460963   -1.278471   -4.713843
     92          6           0      -23.100255   -1.995902   -6.019045
     93          1           0      -22.140536   -1.286133   -7.014152
     94          7           0      -23.487893    2.561014   -0.068440
     95          6           0      -22.792120    2.993078   -1.145341
     96          6           0      -22.597861    4.401568   -1.025675
     97          6           0      -23.319518    4.870751    0.125895
     98          6           0      -23.712346    3.623361    0.757385
     99          6           0      -21.801337    5.187541   -2.029857
    100          6           0      -23.518305    6.271807    0.704468
    101          8           0      -24.327596    6.491378    1.632577
    102          6           0      -22.695409    7.471983    0.250062
    103          7           0      -24.699720    0.995606    2.120149
    104          6           0      -24.762808    2.269851    2.675956
    105          6           0      -25.324883    2.170819    4.056929
    106          6           0      -25.639205    0.667000    4.385548
    107          6           0      -25.166792    0.049630    3.059325
    108          6           0      -24.515798    2.937561    5.145965
    109          6           0      -27.119606    0.345297    4.683995
    110          6           0      -27.449890    0.309793    6.188690
    111          7           0      -24.046905   -1.412323    0.712294
    112          6           0      -24.629803   -2.086655    1.784313
    113          6           0      -24.665752   -3.582276    1.580332
    114          6           0      -24.048529   -3.694595    0.323926
    115          6           0      -23.746672   -2.388808   -0.180300
    116          6           0      -25.232921   -4.618711    2.533178
    117          6           0      -23.642116   -4.694045   -0.652444
    118          8           0      -23.703303   -5.923864   -0.623278
    119          6           0      -23.143625   -3.858669   -1.907058
    120          6           0      -21.754501   -4.432486   -2.248899
    121          8           0      -20.896376   -4.764737   -1.457437
    122          8           0      -21.698502   -4.670115   -3.620915
    123          6           0      -20.415491   -5.225170   -4.052472
    124          1           0      -21.838765    2.770923   -3.055102
    125          1           0      -24.618860    4.313769    2.635558
    126          1           0      -25.369759   -1.826330    3.790597
    127          1           0      -21.530398   -1.840720   -3.988242
    128          1           0      -22.041189    0.897011   -4.612070
    129          1           0      -19.628142   -0.558675   -3.991024
    130          1           0      -19.621700    0.820773   -3.005389
    131          1           0      -19.848275    0.962321   -4.741430
    132          1           0      -23.868404   -0.303749   -4.981201
    133          1           0      -24.274074   -1.878060   -4.304155
    134          1           0      -23.987169   -2.314003   -6.566863
    135          1           0      -22.636489   -2.962460   -5.823198
    136          1           0      -20.892968    4.589893   -2.107365
    137          1           0      -21.481743    6.191428   -1.750642
    138          1           0      -22.250640    5.252596   -3.020551
    139          1           0      -21.630597    7.238602    0.259136
    140          1           0      -22.971668    8.225303    0.987679
    141          1           0      -22.949368    7.758842   -0.770381
    142          1           0      -26.215923    2.799139    4.073864
    143          1           0      -25.023914    0.225590    5.170620
    144          1           0      -23.630275    3.355688    4.666808
    145          1           0      -24.193677    2.228296    5.907913
    146          1           0      -25.202191    3.714774    5.483642
    147          1           0      -27.372447   -0.556955    4.127558
    148          1           0      -27.768180    1.152329    4.342481
    149          1           0      -26.725796    0.910563    6.739371
    150          1           0      -27.376118   -0.659368    6.682381
    151          1           0      -28.426675    0.773976    6.327990
    152          1           0      -26.318747   -4.529578    2.495139
    153          1           0      -24.952810   -4.500304    3.579708
    154          1           0      -24.908396   -5.583514    2.143706
    155          1           0      -23.775883   -3.914626   -2.792984
    156          1           0      -19.664885   -4.483302   -4.326756
    157          1           0      -20.681472   -5.863521   -4.894891
    158          1           0      -19.843051   -5.842339   -3.360022
 ---------------------------------------------------------------------

 SCF Done:  E(RCAM-B3LYP) =  -4069.79077259     A.U. after   17 cycles

 Excitation energies and oscillator strengths:

 Excited State   1:      Singlet-A      1.7014 eV  728.72 nm  f=0.3662  <S**2>=0.000
     310 -> 316        0.18651
     312 -> 314        0.68378
     310 <- 316        0.10954
 This state for optimization and/or second-order correction.
 Total Energy, E(TD-HF/TD-DFT) =  -4069.72824701
 Copying the excited state density for this state as the 1-particle RhoCI density.

 Excited State   2:      Singlet-A      1.7224 eV  719.85 nm  f=0.3617  <S**2>=0.000
     309 -> 315       -0.19687
     311 -> 313        0.67928
     309 <- 315       -0.11035

 Excited State   3:      Singlet-A      2.2323 eV  555.40 nm  f=0.0996  <S**2>=0.000
     310 -> 314        0.63578
     312 -> 316       -0.29947

 Excited State   4:      Singlet-A      2.2417 eV  553.08 nm  f=0.0692  <S**2>=0.000
     309 -> 313        0.61606
     311 -> 315        0.33054

 Excited State   5:      Singlet-A      3.1410 eV  394.73 nm  f=0.0000  <S**2>=0.000
     312 -> 313        0.70710

 The electronic state is 1-A.
 Alpha  occ. eigenvalues --  -46.90776 -46.87644 -19.25759 -19.23726 -19.20406
 Alpha  occ. eigenvalues --  -19.20099 -19.19202 -19.19092 -19.18805 -19.17880
 Alpha  occ. eigenvalues --  -14.42729 -14.42671 -14.42030 -14.41272 -14.40825
 Alpha  occ. eigenvalues --  -14.39890 -14.39477 -14.39154 -10.39680 -10.39401
 Alpha  occ. eigenvalues --  -10.35842 -10.35075 -10.34949 -10.33520 -10.32325
 Alpha  occ. eigenvalues --  -10.31899 -10.31601 -10.31541 -10.31474 -10.31435
 Alpha  occ. eigenvalues --  -10.31380 -10.31025 -10.30870 -10.30792 -10.30740
 Alpha  occ. eigenvalues --  -10.30723 -10.30321 -10.30272 -10.29669 -10.29581
 Alpha  occ. eigenvalues --  -10.29410 -10.29252 -10.29216 -10.29101 -10.28928
 Alpha  occ. eigenvalues --  -10.28927 -10.28848 -10.28739 -10.28734 -10.28709
 Alpha  occ. eigenvalues --  -10.28625 -10.28555 -10.28541 -10.28417 -10.28374
 Alpha  occ. eigenvalues --  -10.28336 -10.28334 -10.28229 -10.28076 -10.27850
 Alpha  occ. eigenvalues --  -10.27542 -10.27476 -10.27368 -10.27355 -10.27198
 Alpha  occ. eigenvalues --  -10.27062 -10.27042 -10.26993 -10.26866 -10.26863
 Alpha  occ. eigenvalues --  -10.26817 -10.26672 -10.26661 -10.26599 -10.26421
 Alpha  occ. eigenvalues --  -10.26399 -10.26331 -10.26254 -10.26196 -10.26004
 Alpha  occ. eigenvalues --  -10.25985 -10.25858 -10.25689 -10.25657 -10.25556
 Alpha  occ. eigenvalues --  -10.25249  -3.19187  -3.16427  -1.94032  -1.93694
 Alpha  occ. eigenvalues --   -1.93452  -1.91325  -1.90858  -1.90771  -1.16297
 Alpha  occ. eigenvalues --   -1.13957  -1.10474  -1.09227  -1.08995  -1.08925
 Alpha  occ. eigenvalues --   -1.08170  -1.06359  -1.05047  -1.04711  -1.03663
 Alpha  occ. eigenvalues --   -1.03383  -1.03357  -1.03070  -1.01453  -1.01098
 Alpha  occ. eigenvalues --   -0.92902  -0.92570  -0.89432  -0.89020  -0.89017
 Alpha  occ. eigenvalues --   -0.88959  -0.88525  -0.88293  -0.87480  -0.87011
 Alpha  occ. eigenvalues --   -0.87009  -0.86945  -0.86143  -0.85947  -0.85038
 Alpha  occ. eigenvalues --   -0.84412  -0.83888  -0.83712  -0.83545  -0.82548
 Alpha  occ. eigenvalues --   -0.82297  -0.81727  -0.81170  -0.80984  -0.80083
 Alpha  occ. eigenvalues --   -0.79897  -0.78452  -0.78274  -0.77464  -0.77375
 Alpha  occ. eigenvalues --   -0.77285  -0.77059  -0.76150  -0.75845  -0.75291
 Alpha  occ. eigenvalues --   -0.75057  -0.72857  -0.72679  -0.71942  -0.71661
 Alpha  occ. eigenvalues --   -0.69382  -0.69160  -0.68814  -0.68617  -0.68185
 Alpha  occ. eigenvalues --   -0.67732  -0.67314  -0.67031  -0.65786  -0.65587
 Alpha  occ. eigenvalues --   -0.65502  -0.65395  -0.65068  -0.64490  -0.64161
 Alpha  occ. eigenvalues --   -0.64045  -0.62574  -0.61921  -0.60403  -0.60372
 Alpha  occ. eigenvalues --   -0.60150  -0.59830  -0.59288  -0.58939  -0.58933
 Alpha  occ. eigenvalues --   -0.58497  -0.57747  -0.57497  -0.57183  -0.57018
 Alpha  occ. eigenvalues --   -0.56780  -0.56019  -0.55625  -0.55449  -0.55112
 Alpha  occ. eigenvalues --   -0.54803  -0.54691  -0.54352  -0.53959  -0.53802
 Alpha  occ. eigenvalues --   -0.53802  -0.53569  -0.53494  -0.53317  -0.53134
 Alpha  occ. eigenvalues --   -0.52910  -0.52877  -0.52565  -0.52503  -0.52149
 Alpha  occ. eigenvalues --   -0.52008  -0.51853  -0.51760  -0.51749  -0.51458
 Alpha  occ. eigenvalues --   -0.51222  -0.51040  -0.50640  -0.50483  -0.50214
 Alpha  occ. eigenvalues --   -0.50041  -0.49909  -0.49878  -0.49794  -0.49538
 Alpha  occ. eigenvalues --   -0.49366  -0.49141  -0.49068  -0.48972  -0.48901
 Alpha  occ. eigenvalues --   -0.48659  -0.48493  -0.48409  -0.48240  -0.48178
 Alpha  occ. eigenvalues --   -0.48085  -0.47981  -0.47755  -0.47618  -0.47400
 Alpha  occ. eigenvalues --   -0.47296  -0.46853  -0.46752  -0.46659  -0.46544
 Alpha  occ. eigenvalues --   -0.46525  -0.46274  -0.46162  -0.45921  -0.45904
 Alpha  occ. eigenvalues --   -0.45514  -0.45386  -0.44989  -0.44920  -0.44705
 Alpha  occ. eigenvalues --   -0.44624  -0.44531  -0.44490  -0.44353  -0.44349
 Alpha  occ. eigenvalues --   -0.44342  -0.44135  -0.43821  -0.43610  -0.43588
 Alpha  occ. eigenvalues --   -0.43494  -0.43208  -0.43186  -0.43012  -0.42684
 Alpha  occ. eigenvalues --   -0.42581  -0.42471  -0.42356  -0.42324  -0.42081
 Alpha  occ. eigenvalues --   -0.41951  -0.41936  -0.41749  -0.41608  -0.41508
 Alpha  occ. eigenvalues --   -0.41367  -0.41228  -0.41050  -0.40447  -0.40284
 Alpha  occ. eigenvalues --   -0.40243  -0.40230  -0.39980  -0.39688  -0.39325
 Alpha  occ. eigenvalues --   -0.38876  -0.38708  -0.38310  -0.37932  -0.37880
 Alpha  occ. eigenvalues --   -0.37541  -0.37263  -0.37183  -0.36873  -0.36635
 Alpha  occ. eigenvalues --   -0.36354  -0.35381  -0.35156  -0.34953  -0.34495
 Alpha  occ. eigenvalues --   -0.33876  -0.33213  -0.32852  -0.31769  -0.31519
 Alpha  occ. eigenvalues --   -0.31416  -0.31057  -0.30973  -0.30939  -0.30554
 Alpha  occ. eigenvalues --   -0.30171  -0.29996  -0.28757  -0.24485  -0.23949
 Alpha  occ. eigenvalues --   -0.21473  -0.21076
 Alpha virt. eigenvalues --   -0.08805  -0.08571  -0.02717  -0.01779  -0.00381
 Alpha virt. eigenvalues --   -0.00002   0.00568   0.01748   0.02152   0.03739
 Alpha virt. eigenvalues --    0.04363   0.04756   0.04805   0.05031   0.05467

 Mulliken charges:
               1
     1  Mg   0.834459
     2  C   -0.008418
     3  C   -0.051070
     4  C   -0.074892
     5  C   -0.087902
     6  N   -0.224647
     7  C   -0.070839
     8  C    0.059330
     9  C   -0.071609
    10  C   -0.036601
    11  C    0.062109
    12  C    0.059729
    13  C   -0.072185
    14  H    0.007742
    15  N   -0.409448
    16  C    0.147837
    17  C   -0.174501
    18  C   -0.015332
    19  C    0.192150
    20  C    0.144596
    21  C   -0.033286
    22  O   -0.215730
    23  C    0.089246
    24  N   -0.319250
    25  C    0.023090
    26  C   -0.072995
    27  C   -0.047464
    28  C    0.019191
    29  C    0.084301
    30  C    0.042798
    31  C    0.012939
    32  N   -0.344576
    33  C    0.143232
    34  C   -0.151041
    35  C    0.030887
    36  C    0.129299
    37  C    0.139482
    38  C   -0.006492
    39  O   -0.179786
    40  C   -0.020533
    41  C    0.217698
    42  O   -0.226377
    43  O   -0.390009
    44  C    0.179639
    45  H   -0.026349
    46  H   -0.046931
    47  H   -0.027790
    48  H    0.012228
    49  H    0.017814
    50  H    0.026288
    51  H    0.015301
    52  H    0.028872
    53  H    0.025173
    54  H    0.019054
    55  H    0.034393
    56  H    0.030262
    57  H    0.044794
    58  H    0.045429
    59  H    0.008967
    60  H    0.054022
    61  H    0.041944
    62  H    0.028058
    63  H    0.008464
    64  H   -0.003901
    65  H    0.016885
    66  H    0.020065
    67  H    0.021276
    68  H    0.004896
    69  H    0.011214
    70  H   -0.004508
    71  H    0.017494
    72  H    0.028226
    73  H    0.012470
    74  H    0.025045
    75  H    0.037652
    76  H    0.040547
    77  H    0.031516
    78  H    0.052771
    79  H    0.033587
    80  Mg   0.856948
    81  C   -0.058733
    82  C   -0.109498
    83  C   -0.071387
    84  C   -0.087073
    85  N   -0.241852
    86  C   -0.014039
    87  C    0.014388
    88  C   -0.051423
    89  C   -0.006667
    90  C    0.052940
    91  C    0.064864
    92  C   -0.070536
    93  H    0.002358
    94  N   -0.342949
    95  C    0.211722
    96  C   -0.159433
    97  C   -0.006389
    98  C    0.104302
    99  C    0.108370
   100  C    0.005863
   101  O   -0.228238
   102  C    0.038017
   103  N   -0.379032
   104  C    0.084255
   105  C   -0.051023
   106  C   -0.001760
   107  C    0.029961
   108  C    0.063118
   109  C    0.045005
   110  C   -0.000568
   111  N   -0.392734
   112  C    0.133041
   113  C   -0.159665
   114  C   -0.023300
   115  C    0.156271
   116  C    0.124929
   117  C    0.083856
   118  O   -0.172873
   119  C   -0.034178
   120  C    0.197922
   121  O   -0.193123
   122  O   -0.339685
   123  C    0.167146
   124  H   -0.033802
   125  H   -0.010977
   126  H   -0.037289
   127  H    0.007780
   128  H    0.014677
   129  H    0.013053
   130  H    0.020449
   131  H    0.012806
   132  H    0.016732
   133  H    0.012003
   134  H    0.024792
   135  H    0.028576
   136  H    0.024986
   137  H    0.003807
   138  H    0.034947
   139  H    0.040285
   140  H    0.037958
   141  H    0.041715
   142  H    0.016572
   143  H    0.017695
   144  H    0.022112
   145  H    0.012484
   146  H    0.021706
   147  H    0.012885
   148  H    0.003401
   149  H    0.004438
   150  H    0.019163
   151  H    0.018464
   152  H    0.027678
   153  H    0.026027
   154  H    0.042302
   155  H    0.042750
   156  H    0.025729
   157  H    0.037240
   158  H    0.047734
 Sum of Mulliken charges =  -0.00000

 Dipole moment (field-independent basis, Debye):
    X=              2.4771    Y=              7.5281    Z=             -5.2659  Tot=              9.5152
 Quadrupole moment (field-independent basis, Debye-Ang):
   XX=           -435.9320   YY=           -594.3663   ZZ=           -483.8152
   XY=             54.5701   XZ=            -37.6929   YZ=             12.5082

 Normal termination of Gaussian 16 at Thu Sep  2 14:56:14 2021.
