 Gaussian 16, Revision A.03,
 Gaussian 16:  ES64L-G16RevA.03 25-Dec-2016

 ----------------------------------------------------------
 #p cam-b3lyp/Def2SVP td=(nstates=5) density=(transition=1)
 ----------------------------------------------------------

 --------------------------------
 TDDFT excited states in gaussian
 --------------------------------
 Symbolic Z-matrix:
 Charge =  0 Multiplicity = 1

                         Standard orientation:
 ---------------------------------------------------------------------
 Center     Atomic      Atomic             Coordinates (Angstroms)
 Number     Number       Type             X           Y           Z
 ---------------------------------------------------------------------
      1         12           0       24.532270   -0.773332    0.303585
      2          6           0       24.951717    2.404171   -1.194243
      3          6           0       24.714076    0.734024    3.403020
      4          6           0       24.423575   -3.854731    1.708856
      5          6           0       24.567840   -2.281524   -2.860826
      6          7           0       24.906366    1.321513    0.914887
      7          6           0       24.828168    2.486168    0.154950
      8          6           0       24.876698    3.777842    1.069628
      9          6           0       25.077458    3.161118    2.479543
     10          6           0       24.947464    1.634317    2.281095
     11          6           0       26.399513    3.509295    3.260617
     12          6           0       23.706904    4.828135    0.879448
     13          6           0       24.142721    6.201474    0.466689
     14          1           0       23.326109    7.404118    1.085786
     15          7           0       24.576132   -1.398556    2.246821
     16          6           0       24.583540   -0.650859    3.406839
     17          6           0       24.602266   -1.541825    4.556416
     18          6           0       24.516402   -2.893570    4.117999
     19          6           0       24.477578   -2.769729    2.614380
     20          6           0       24.541177   -1.062556    6.020737
     21          6           0       24.433262   -4.185624    4.924339
     22          8           0       24.274294   -5.282414    4.429207
     23          6           0       24.435423   -4.249754    6.506700
     24          7           0       24.596737   -2.810047   -0.484557
     25          6           0       24.536965   -3.882537    0.293951
     26          6           0       24.523021   -5.214439   -0.537886
     27          6           0       24.372432   -4.686781   -2.019483
     28          6           0       24.493190   -3.148788   -1.797488
     29          6           0       25.745089   -6.120021   -0.209374
     30          6           0       23.091077   -5.168235   -2.670839
     31          6           0       23.257687   -5.607766   -4.124380
     32          7           0       24.849944   -0.187305   -1.669983
     33          6           0       24.740955   -0.878637   -2.861342
     34          6           0       25.049895    0.038114   -3.915207
     35          6           0       25.098847    1.336816   -3.350671
     36          6           0       24.977030    1.172086   -1.942694
     37          6           0       25.191080   -0.300136   -5.350838
     38          6           0       25.184604    2.774290   -3.662137
     39          8           0       25.416964    3.390511   -4.698080
     40          6           0       25.039474    3.543051   -2.136489
     41          6           0       26.180366    4.373089   -1.905630
     42          8           0       27.090765    4.100682   -1.153474
     43          8           0       26.042966    5.582775   -2.548088
     44          6           0       27.231056    6.456758   -2.382880
     45          1           0       24.642253    1.178830    4.397918
     46          1           0       24.436275   -4.871427    2.105824
     47          1           0       24.480035   -2.821878   -3.806376
     48          1           0       25.855270    4.210188    0.863677
     49          1           0       24.265568    3.452885    3.145800
     50          1           0       26.114045    3.657457    4.302553
     51          1           0       26.833179    4.406855    2.820367
     52          1           0       27.159736    2.728575    3.228534
     53          1           0       23.162039    4.838437    1.823539
     54          1           0       23.073531    4.448493    0.077511
     55          1           0       24.053323    6.305279   -0.615467
     56          1           0       25.191773    6.231718    0.759741
     57          1           0       23.569430   -1.394862    6.384224
     58          1           0       24.475137    0.025616    6.034416
     59          1           0       25.307726   -1.463236    6.685193
     60          1           0       23.611147   -3.633582    6.867485
     61          1           0       25.430079   -4.119273    6.934030
     62          1           0       24.339872   -5.311285    6.733029
     63          1           0       23.639719   -5.827847   -0.361230
     64          1           0       25.273403   -5.009744   -2.541437
     65          1           0       26.221032   -6.405826   -1.147831
     66          1           0       25.493535   -6.976204    0.417054
     67          1           0       26.472479   -5.554827    0.371038
     68          1           0       22.299721   -4.420874   -2.623561
     69          1           0       22.606747   -5.995045   -2.148995
     70          1           0       24.240024   -5.338218   -4.512407
     71          1           0       22.508087   -5.058951   -4.695162
     72          1           0       23.008532   -6.658497   -4.273496
     73          1           0       25.067764   -1.345322   -5.634359
     74          1           0       26.077366    0.231263   -5.699647
     75          1           0       24.256963    0.069036   -5.774881
     76          1           0       24.135040    4.152062   -2.132363
     77          1           0       28.113900    5.960703   -2.786742
     78          1           0       27.278560    6.700946   -1.321678
     79          1           0       27.152968    7.389197   -2.940590
     80         12           0      -25.366929   -0.524093   -0.189930
     81          6           0      -23.382909    2.427597   -0.342470
     82          6           0      -27.515187    1.131614    1.923410
     83          6           0      -27.045561   -3.369434   -0.118448
     84          6           0      -22.790720   -2.274465   -1.983996
     85          7           0      -25.418469    1.589873    0.781330
     86          6           0      -24.533614    2.598091    0.445413
     87          6           0      -25.037113    3.883224    1.187701
     88          6           0      -26.384803    3.451494    1.977847
     89          6           0      -26.432859    1.980621    1.551804
     90          6           0      -26.402236    3.731502    3.495007
     91          6           0      -25.156230    5.210676    0.330688
     92          6           0      -24.343221    6.374652    0.817953
     93          1           0      -23.960731    6.580919    2.259811
     94          7           0      -27.195618   -1.029669    0.711610
     95          6           0      -27.897308   -0.209757    1.538151
     96          6           0      -29.141221   -0.886690    1.800821
     97          6           0      -28.991181   -2.205113    1.319293
     98          6           0      -27.679587   -2.305282    0.600248
     99          6           0      -30.232185   -0.195379    2.635895
    100          6           0      -29.895429   -3.371525    1.580051
    101          8           0      -29.600107   -4.528890    1.198551
    102          6           0      -31.142362   -3.165812    2.357406
    103          7           0      -24.882621   -2.564638   -0.924627
    104          6           0      -25.768668   -3.493800   -0.828647
    105          6           0      -25.429969   -4.908922   -1.542707
    106          6           0      -24.053459   -4.538852   -2.115787
    107          6           0      -23.880524   -3.103185   -1.684123
    108          6           0      -25.425651   -6.054884   -0.465723
    109          6           0      -23.860899   -4.709726   -3.663689
    110          6           0      -24.581706   -3.682185   -4.568299
    111          7           0      -23.487897   -0.079469   -0.862646
    112          6           0      -22.572820   -0.915545   -1.544722
    113          6           0      -21.423942   -0.091477   -1.944368
    114          6           0      -21.705428    1.223148   -1.501210
    115          6           0      -23.000297    1.191011   -0.881536
    116          6           0      -20.182461   -0.595906   -2.739278
    117          6           0      -21.188373    2.487738   -1.501374
    118          8           0      -20.131136    2.938028   -1.893391
    119          6           0      -22.248777    3.388221   -0.808299
    120          6           0      -21.605720    4.106624    0.267572
    121          8           0      -21.484128    3.685839    1.423569
    122          8           0      -20.941505    5.227442   -0.244713
    123          6           0      -20.088214    5.935427    0.741562
    124          1           0      -28.120678    1.446323    2.776381
    125          1           0      -27.528272   -4.333887    0.053130
    126          1           0      -21.980213   -2.756761   -2.534293
    127          1           0      -24.155256    4.057271    1.802896
    128          1           0      -27.215068    4.050698    1.606712
    129          1           0      -27.265891    4.340818    3.764401
    130          1           0      -25.509581    4.189922    3.920251
    131          1           0      -26.495146    2.740891    3.940163
    132          1           0      -26.200543    5.514907    0.257606
    133          1           0      -24.758442    4.953224   -0.650966
    134          1           0      -24.995064    7.247123    0.760859
    135          1           0      -23.454307    6.444225    0.191980
    136          1           0      -30.078916    0.882093    2.700632
    137          1           0      -30.249352   -0.618924    3.639274
    138          1           0      -31.157971   -0.414868    2.105034
    139          1           0      -31.725366   -2.414187    1.825142
    140          1           0      -30.931519   -2.762281    3.348507
    141          1           0      -31.659514   -4.111969    2.511749
    142          1           0      -26.137506   -5.129466   -2.342371
    143          1           0      -23.273906   -5.037462   -1.539323
    144          1           0      -25.129685   -5.613959    0.486124
    145          1           0      -24.658032   -6.777802   -0.744105
    146          1           0      -26.351666   -6.606390   -0.301096
    147          1           0      -24.038305   -5.747240   -3.945105
    148          1           0      -22.792770   -4.639653   -3.866947
    149          1           0      -25.531086   -3.289472   -4.205759
    150          1           0      -24.664389   -4.111516   -5.567409
    151          1           0      -23.872708   -2.861754   -4.678182
    152          1           0      -19.938477    0.031491   -3.596629
    153          1           0      -20.269606   -1.632568   -3.062648
    154          1           0      -19.282357   -0.375195   -2.164967
    155          1           0      -22.522676    4.062935   -1.618708
    156          1           0      -19.222039    5.328629    1.004217
    157          1           0      -20.578370    6.150517    1.690387
    158          1           0      -19.915448    6.932360    0.335765
 ---------------------------------------------------------------------

 SCF Done:  E(RCAM-B3LYP) =  -4069.81002481     A.U. after   19 cycles

 Excitation energies and oscillator strengths:

 Excited State   1:      Singlet-A      1.7536 eV  707.01 nm  f=0.3726  <S**2>=0.000
     310 -> 315        0.18838
     312 -> 313        0.68193
     310 <- 315        0.10757
 This state for optimization and/or second-order correction.
 Total Energy, E(TD-HF/TD-DFT) =  -4069.74557996
 Copying the excited state density for this state as the 1-particle RhoCI density.

 Excited State   2:      Singlet-A      1.7837 eV  695.10 nm  f=0.3741  <S**2>=0.000
     309 -> 316        0.17650
     311 -> 314        0.68528
     309 <- 316        0.10146

 Excited State   3:      Singlet-A      2.2093 eV  561.18 nm  f=0.1084  <S**2>=0.000
     310 -> 313        0.64206
     312 -> 315       -0.28089

 Excited State   4:      Singlet-A      2.2586 eV  548.93 nm  f=0.1144  <S**2>=0.000
     309 -> 314        0.63968
     311 -> 316       -0.28423

 Excited State   5:      Singlet-A      3.2792 eV  378.10 nm  f=0.0000  <S**2>=0.000
     312 -> 314        0.70711

 The electronic state is 1-A.
 Alpha  occ. eigenvalues --  -46.89817 -46.88207 -19.24306 -19.24269 -19.19858
 Alpha  occ. eigenvalues --  -19.19359 -19.19294 -19.19198 -19.18772 -19.17526
 Alpha  occ. eigenvalues --  -14.42675 -14.42244 -14.41883 -14.41736 -14.40314
 Alpha  occ. eigenvalues --  -14.39764 -14.39677 -14.38695 -10.38612 -10.38297
 Alpha  occ. eigenvalues --  -10.36376 -10.35968 -10.35067 -10.33301 -10.32492
 Alpha  occ. eigenvalues --  -10.31951 -10.31903 -10.31718 -10.31417 -10.31245
 Alpha  occ. eigenvalues --  -10.31243 -10.31102 -10.31101 -10.30898 -10.30790
 Alpha  occ. eigenvalues --  -10.30201 -10.30161 -10.30144 -10.29854 -10.29783
 Alpha  occ. eigenvalues --  -10.29360 -10.28838 -10.28825 -10.28776 -10.28680
 Alpha  occ. eigenvalues --  -10.28628 -10.28470 -10.28377 -10.28104 -10.28059
 Alpha  occ. eigenvalues --  -10.27999 -10.27988 -10.27982 -10.27980 -10.27969
 Alpha  occ. eigenvalues --  -10.27949 -10.27781 -10.27756 -10.27690 -10.27639
 Alpha  occ. eigenvalues --  -10.27584 -10.27406 -10.27339 -10.27336 -10.27227
 Alpha  occ. eigenvalues --  -10.27136 -10.27098 -10.27026 -10.26881 -10.26750
 Alpha  occ. eigenvalues --  -10.26695 -10.26599 -10.26471 -10.26355 -10.26330
 Alpha  occ. eigenvalues --  -10.26309 -10.26223 -10.26003 -10.25973 -10.25954
 Alpha  occ. eigenvalues --  -10.25870 -10.25797 -10.25264 -10.25119 -10.24851
 Alpha  occ. eigenvalues --  -10.23897  -3.18153  -3.16736  -1.93068  -1.92644
 Alpha  occ. eigenvalues --   -1.92410  -1.91644  -1.91186  -1.91043  -1.15850
 Alpha  occ. eigenvalues --   -1.14355  -1.11488  -1.09247  -1.09239  -1.08464
 Alpha  occ. eigenvalues --   -1.07408  -1.06312  -1.06110  -1.04062  -1.03698
 Alpha  occ. eigenvalues --   -1.03032  -1.02444  -1.01938  -1.01702  -1.00917
 Alpha  occ. eigenvalues --   -0.92282  -0.91826  -0.89748  -0.89113  -0.88411
 Alpha  occ. eigenvalues --   -0.88284  -0.88019  -0.87826  -0.87252  -0.87197
 Alpha  occ. eigenvalues --   -0.86869  -0.86791  -0.85585  -0.85477  -0.84356
 Alpha  occ. eigenvalues --   -0.84321  -0.83617  -0.83372  -0.82538  -0.82483
 Alpha  occ. eigenvalues --   -0.82223  -0.81015  -0.80696  -0.80674  -0.80077
 Alpha  occ. eigenvalues --   -0.80047  -0.78411  -0.78321  -0.77578  -0.76918
 Alpha  occ. eigenvalues --   -0.76443  -0.76431  -0.75741  -0.75730  -0.74978
 Alpha  occ. eigenvalues --   -0.74696  -0.72523  -0.72222  -0.71558  -0.71279
 Alpha  occ. eigenvalues --   -0.70465  -0.69037  -0.69033  -0.68826  -0.67839
 Alpha  occ. eigenvalues --   -0.67402  -0.67214  -0.66913  -0.65607  -0.65315
 Alpha  occ. eigenvalues --   -0.64905  -0.64779  -0.64643  -0.64564  -0.64329
 Alpha  occ. eigenvalues --   -0.64235  -0.61417  -0.61124  -0.60227  -0.60014
 Alpha  occ. eigenvalues --   -0.59503  -0.59146  -0.58776  -0.58605  -0.58130
 Alpha  occ. eigenvalues --   -0.58003  -0.57939  -0.57787  -0.57524  -0.56984
 Alpha  occ. eigenvalues --   -0.56280  -0.56021  -0.55924  -0.55744  -0.55270
 Alpha  occ. eigenvalues --   -0.54949  -0.54716  -0.54221  -0.53674  -0.53593
 Alpha  occ. eigenvalues --   -0.53239  -0.53221  -0.53187  -0.53017  -0.53015
 Alpha  occ. eigenvalues --   -0.52838  -0.52626  -0.52532  -0.52106  -0.52022
 Alpha  occ. eigenvalues --   -0.51674  -0.51551  -0.51389  -0.51288  -0.50997
 Alpha  occ. eigenvalues --   -0.50893  -0.50807  -0.50567  -0.50453  -0.50123
 Alpha  occ. eigenvalues --   -0.49849  -0.49555  -0.49508  -0.49494  -0.49444
 Alpha  occ. eigenvalues --   -0.49247  -0.49213  -0.48953  -0.48861  -0.48626
 Alpha  occ. eigenvalues --   -0.48572  -0.48523  -0.48045  -0.47983  -0.47979
 Alpha  occ. eigenvalues --   -0.47927  -0.47714  -0.47506  -0.47472  -0.47314
 Alpha  occ. eigenvalues --   -0.46760  -0.46735  -0.46609  -0.46513  -0.46400
 Alpha  occ. eigenvalues --   -0.46195  -0.46161  -0.45976  -0.45820  -0.45505
 Alpha  occ. eigenvalues --   -0.45485  -0.45121  -0.44928  -0.44825  -0.44657
 Alpha  occ. eigenvalues --   -0.44596  -0.44449  -0.44222  -0.43973  -0.43910
 Alpha  occ. eigenvalues --   -0.43779  -0.43745  -0.43546  -0.43443  -0.43267
 Alpha  occ. eigenvalues --   -0.43201  -0.43174  -0.42941  -0.42722  -0.42475
 Alpha  occ. eigenvalues --   -0.42387  -0.42363  -0.42273  -0.41974  -0.41862
 Alpha  occ. eigenvalues --   -0.41823  -0.41579  -0.41486  -0.41372  -0.41255
 Alpha  occ. eigenvalues --   -0.41153  -0.41141  -0.40588  -0.40540  -0.40263
 Alpha  occ. eigenvalues --   -0.40117  -0.40003  -0.39775  -0.39655  -0.39409
 Alpha  occ. eigenvalues --   -0.39116  -0.38664  -0.37640  -0.37151  -0.36940
 Alpha  occ. eigenvalues --   -0.36844  -0.36628  -0.36363  -0.36225  -0.36096
 Alpha  occ. eigenvalues --   -0.35890  -0.35493  -0.34265  -0.33934  -0.33822
 Alpha  occ. eigenvalues --   -0.33671  -0.33060  -0.33045  -0.31634  -0.31460
 Alpha  occ. eigenvalues --   -0.31313  -0.31205  -0.30624  -0.30327  -0.30208
 Alpha  occ. eigenvalues --   -0.29962  -0.29556  -0.28637  -0.24041  -0.23789
 Alpha  occ. eigenvalues --   -0.21292  -0.21243
 Alpha virt. eigenvalues --   -0.08540  -0.08495  -0.01783  -0.01753   0.00067
 Alpha virt. eigenvalues --    0.00143   0.02123   0.02325   0.02586   0.02987
 Alpha virt. eigenvalues --    0.04562   0.05010   0.05421   0.05539   0.05961

 Mulliken charges:
               1
     1  Mg  11.999954
     2  C    6.000105
     3  C    6.000034
     4  C    5.999847
     5  C    5.999972
     6  N    7.000015
     7  C    5.999882
     8  C    6.000034
     9  C    5.999978
    10  C    6.000082
    11  C    5.999964
    12  C    6.000013
    13  C    6.000018
    14  H    0.999941
    15  N    7.000021
    16  C    6.000076
    17  C    6.000118
    18  C    6.000027
    19  C    6.000191
    20  C    5.999978
    21  C    6.000028
    22  O    8.000103
    23  C    5.999983
    24  N    6.999978
    25  C    6.000131
    26  C    5.999973
    27  C    6.000008
    28  C    5.999966
    29  C    5.999986
    30  C    6.000044
    31  C    6.000005
    32  N    6.999980
    33  C    5.999868
    34  C    5.999896
    35  C    6.000028
    36  C    5.999836
    37  C    6.000037
    38  C    5.999898
    39  O    7.999898
    40  C    5.999992
    41  C    5.999991
    42  O    7.999986
    43  O    7.999988
    44  C    6.000000
    45  H    1.000030
    46  H    1.000042
    47  H    0.999961
    48  H    1.000005
    49  H    0.999991
    50  H    1.000014
    51  H    1.000078
    52  H    1.000035
    53  H    0.999940
    54  H    0.999990
    55  H    1.000014
    56  H    1.000027
    57  H    1.000051
    58  H    1.000064
    59  H    1.000112
    60  H    1.000005
    61  H    1.000075
    62  H    1.000070
    63  H    0.999987
    64  H    1.000023
    65  H    1.000062
    66  H    1.000009
    67  H    1.000011
    68  H    0.999954
    69  H    0.999943
    70  H    1.000040
    71  H    0.999966
    72  H    0.999983
    73  H    0.999918
    74  H    0.999951
    75  H    0.999873
    76  H    0.999934
    77  H    1.000023
    78  H    0.999981
    79  H    0.999983
    80  Mg  12.000102
    81  C    5.987215
    82  C    6.024934
    83  C    6.007686
    84  C    5.979865
    85  N    6.998509
    86  C    6.023372
    87  C    5.992911
    88  C    6.017668
    89  C    5.960670
    90  C    5.999528
    91  C    5.998667
    92  C    5.997879
    93  H    1.005026
    94  N    7.018981
    95  C    5.950841
    96  C    5.984236
    97  C    5.983764
    98  C    5.964624
    99  C    6.002655
   100  C    5.988052
   101  O    7.971663
   102  C    6.004666
   103  N    6.991024
   104  C    5.969670
   105  C    6.008066
   106  C    5.990926
   107  C    6.039256
   108  C    6.004819
   109  C    5.995569
   110  C    5.995922
   111  N    6.995877
   112  C    6.049374
   113  C    6.025450
   114  C    6.002771
   115  C    6.030016
   116  C    5.997086
   117  C    6.013991
   118  O    8.030482
   119  C    6.001059
   120  C    6.005156
   121  O    8.008422
   122  O    7.999472
   123  C    5.996724
   124  H    0.996605
   125  H    0.992990
   126  H    1.008079
   127  H    0.996708
   128  H    0.995006
   129  H    0.997426
   130  H    0.988888
   131  H    1.003326
   132  H    1.008629
   133  H    0.993802
   134  H    1.004131
   135  H    0.994864
   136  H    0.982119
   137  H    0.982045
   138  H    0.984954
   139  H    0.992985
   140  H    0.992972
   141  H    0.985384
   142  H    0.998483
   143  H    1.001608
   144  H    1.000125
   145  H    0.988095
   146  H    1.003607
   147  H    1.009662
   148  H    0.996633
   149  H    1.012025
   150  H    1.005014
   151  H    0.991254
   152  H    1.019233
   153  H    1.019282
   154  H    1.018731
   155  H    1.007930
   156  H    1.000997
   157  H    1.006454
   158  H    1.005309
 Sum of Mulliken charges = 624.00000

 Dipole moment (field-independent basis, Debye):
    X=              9.2707    Y=              2.9074    Z=             -4.2038  Tot=             10.5864
 Quadrupole moment (field-independent basis, Debye-Ang):
   XX=           -467.1301   YY=             -1.2010   ZZ=              0.8950
   XY=            -78.4887   XZ=            108.1912   YZ=              2.7800

 Normal termination of Gaussian 16 at Thu Sep 23 08:43:18 2021.
