 Gaussian 16, Revision A.03,
 Gaussian 16:  ES64L-G16RevA.03 25-Dec-2016

 -----------------------------------
 #p cam-b3lyp/Def2SVP td=(nstates=5)
 -----------------------------------

 --------------------------------
 TDDFT excited states in gaussian
 --------------------------------
 Symbolic Z-matrix:
 Charge =  0 Multiplicity = 1

                         Standard orientation:
 ---------------------------------------------------------------------
 Center     Atomic      Atomic             Coordinates (Angstroms)
 Number     Number       Type             X           Y           Z
 ---------------------------------------------------------------------
      1         12           0        9.524546   -0.547342    0.461363
      2          6           0        8.818859    2.586919   -0.954510
      3          6           0        7.728323    0.382740    3.190989
      4          6           0        9.890290   -3.642165    1.453680
      5          6           0       10.589409   -1.481416   -2.849223
      6          7           0        8.485338    1.284777    1.040815
      7          6           0        8.302410    2.427536    0.314542
      8          6           0        7.228837    3.274229    1.014470
      9          6           0        7.374024    2.826638    2.464736
     10          6           0        7.803446    1.370739    2.200361
     11          6           0        8.461173    3.614248    3.231817
     12          6           0        5.795753    2.977409    0.436507
     13          6           0        5.040623    4.144187   -0.370712
     14          1           0        4.665616    3.911399   -1.844228
     15          7           0        8.849468   -1.518090    2.067822
     16          6           0        8.138902   -0.958303    3.104667
     17          6           0        8.021579   -1.934650    4.142172
     18          6           0        8.738986   -3.116280    3.760259
     19          6           0        9.202858   -2.818831    2.374104
     20          6           0        7.253612   -1.676782    5.483678
     21          6           0        8.952228   -4.374797    4.677456
     22          8           0        8.584805   -4.356711    5.811816
     23          6           0        9.841573   -5.429538    4.206400
     24          7           0        9.856786   -2.391814   -0.648879
     25          6           0       10.308808   -3.402363    0.131156
     26          6           0       11.282645   -4.322697   -0.585471
     27          6           0       11.204870   -3.852296   -2.029871
     28          6           0       10.490842   -2.467104   -1.854226
     29          6           0       12.744702   -4.237072   -0.010209
     30          6           0       10.485600   -4.774088   -3.123536
     31          6           0       11.262905   -5.511138   -4.180952
     32          7           0        9.877284    0.363231   -1.431344
     33          6           0       10.305358   -0.126608   -2.671938
     34          6           0       10.275412    0.900379   -3.690771
     35          6           0        9.725911    1.980586   -3.045032
     36          6           0        9.462439    1.640181   -1.677366
     37          6           0       10.673485    0.722767   -5.096795
     38          6           0        9.308745    3.362492   -3.226711
     39          8           0        9.431165    4.099741   -4.212720
     40          6           0        8.815391    3.837281   -1.876159
     41          6           0        9.723288    4.982042   -1.439938
     42          8           0       10.934974    4.815453   -1.320571
     43          8           0        9.019219    6.192377   -1.343381
     44          6           0        9.823742    7.324334   -0.968240
     45          1           0        7.282382    0.767574    4.110155
     46          1           0       10.270975   -4.541334    1.940561
     47          1           0       11.017898   -1.742949   -3.819204
     48          1           0        7.431961    4.313426    0.754587
     49          1           0        6.403802    2.931844    2.948627
     50          1           0        7.876854    3.880184    4.112005
     51          1           0        8.696240    4.459889    2.584881
     52          1           0        9.373946    3.074944    3.485275
     53          1           0        5.147065    2.755195    1.283723
     54          1           0        5.858077    2.055962   -0.141873
     55          1           0        5.748272    4.972981   -0.402439
     56          1           0        4.150153    4.534177    0.120865
     57          1           0        6.523179   -2.418336    5.805720
     58          1           0        6.735312   -0.727395    5.345148
     59          1           0        7.923870   -1.546398    6.333487
     60          1           0        9.544627   -5.878828    3.258489
     61          1           0        9.883192   -6.208233    4.967933
     62          1           0       10.875831   -5.089630    4.237924
     63          1           0       11.026122   -5.376267   -0.469709
     64          1           0       12.201255   -3.618366   -2.404868
     65          1           0       12.981671   -5.040420    0.687133
     66          1           0       12.927624   -3.232485    0.371135
     67          1           0       13.425519   -4.357859   -0.854047
     68          1           0        9.583178   -4.393686   -3.600894
     69          1           0       10.131707   -5.517827   -2.409099
     70          1           0       11.228259   -6.594478   -4.070160
     71          1           0       12.311780   -5.217369   -4.133568
     72          1           0       10.809292   -5.192083   -5.119042
     73          1           0       10.556852   -0.332918   -5.343303
     74          1           0       11.737906    0.957015   -5.129078
     75          1           0       10.136821    1.406728   -5.752689
     76          1           0        7.823243    4.220147   -2.111374
     77          1           0       10.079000    7.368974    0.090847
     78          1           0        9.328731    8.264783   -1.208719
     79          1           0       10.772713    7.396971   -1.498846
     80         12           0       -9.633260   -0.713642   -0.001125
     81          6           0       -8.850610    2.540168    0.776050
     82          6           0       -6.153744   -1.454096    0.064630
     83          6           0      -10.183312   -3.794961   -1.278852
     84          6           0      -12.872974    0.064398   -0.387837
     85          7           0       -7.718956    0.430498    0.376412
     86          6           0       -7.689686    1.768889    0.663139
     87          6           0       -6.265926    2.232731    0.978892
     88          6           0       -5.429043    0.945349    0.535455
     89          6           0       -6.485217   -0.095940    0.306591
     90          6           0       -4.456533    1.194561   -0.675254
     91          6           0       -6.039106    2.606713    2.514623
     92          6           0       -5.268409    3.829930    2.949543
     93          1           0       -3.959647    4.109694    2.300363
     94          7           0       -8.361917   -2.448719   -0.500296
     95          6           0       -7.045489   -2.601828   -0.237105
     96          6           0       -6.622022   -3.943615   -0.460114
     97          6           0       -7.796283   -4.673280   -0.828004
     98          6           0       -8.829424   -3.601380   -0.946279
     99          6           0       -5.170213   -4.269265   -0.317912
    100          6           0       -7.919986   -6.128337   -1.246858
    101          8           0       -8.926762   -6.571867   -1.807896
    102          6           0       -6.775402   -7.095425   -1.000084
    103          7           0      -11.294753   -1.704903   -0.891533
    104          6           0      -11.291593   -3.023413   -1.220991
    105          6           0      -12.707156   -3.505067   -1.534390
    106          6           0      -13.584601   -2.282693   -1.065700
    107          6           0      -12.530855   -1.238870   -0.752316
    108          6           0      -13.076438   -4.068919   -2.938275
    109          6           0      -14.623728   -2.555519    0.100572
    110          6           0      -14.237612   -2.312416    1.544235
    111          7           0      -10.662420    0.941804    0.052492
    112          6           0      -12.017005    1.156651    0.023882
    113          6           0      -12.375005    2.518920    0.182894
    114          6           0      -11.163900    3.107338    0.533410
    115          6           0      -10.162771    2.104742    0.461797
    116          6           0      -13.705891    3.258774    0.146838
    117          6           0      -10.520061    4.296938    0.883349
    118          8           0      -10.999044    5.411875    0.979482
    119          6           0       -8.920390    4.030985    1.053799
    120          6           0       -8.222920    4.868398    0.085747
    121          8           0       -8.292544    4.765623   -1.155049
    122          8           0       -7.486988    5.858031    0.657483
    123          6           0       -6.996924    6.954138   -0.185808
    124          1           0       -5.077641   -1.579824    0.198449
    125          1           0      -10.433363   -4.848713   -1.417133
    126          1           0      -13.917014    0.268520   -0.144313
    127          1           0       -6.073946    3.152454    0.424829
    128          1           0       -4.753404    0.618807    1.326194
    129          1           0       -3.445159    0.971332   -0.337294
    130          1           0       -4.655480    2.222743   -0.978013
    131          1           0       -4.567479    0.504418   -1.512162
    132          1           0       -5.519767    1.717163    2.871548
    133          1           0       -6.966799    2.517843    3.078958
    134          1           0       -5.184750    3.850394    4.036112
    135          1           0       -5.870177    4.678785    2.626871
    136          1           0       -5.149017   -5.196723    0.253176
    137          1           0       -4.663610   -3.521380    0.292612
    138          1           0       -4.608151   -4.386043   -1.245119
    139          1           0       -6.304821   -6.986297   -0.022527
    140          1           0       -6.116392   -7.112201   -1.869226
    141          1           0       -7.257470   -8.073081   -0.971495
    142          1           0      -12.804015   -4.395794   -0.913274
    143          1           0      -14.290551   -1.953791   -1.827376
    144          1           0      -13.722373   -3.369002   -3.468159
    145          1           0      -13.628541   -4.991334   -2.758953
    146          1           0      -12.127547   -4.235444   -3.446969
    147          1           0      -14.916758   -3.600759    0.011913
    148          1           0      -15.516097   -1.948205   -0.052590
    149          1           0      -14.436120   -3.183233    2.169478
    150          1           0      -14.739032   -1.453225    1.991713
    151          1           0      -13.167245   -2.108654    1.513747
    152          1           0      -14.509376    2.538187   -0.010442
    153          1           0      -13.679759    4.002693   -0.649804
    154          1           0      -13.843194    3.768083    1.100285
    155          1           0       -8.766520    4.435795    2.054496
    156          1           0       -6.788957    7.875095    0.359056
    157          1           0       -7.575357    7.147662   -1.088673
    158          1           0       -5.986040    6.657797   -0.466231
 ---------------------------------------------------------------------

 SCF Done:  E(RCAM-B3LYP) =  -4069.83801608     A.U. after   19 cycles

 Excitation energies and oscillator strengths:

 Excited State   1:      Singlet-A      1.7190 eV  721.24 nm  f=0.3643  <S**2>=0.000
     310 -> 316        0.16195
     311 -> 313        0.62523
     312 -> 314       -0.28248
 This state for optimization and/or second-order correction.
 Total Energy, E(TD-HF/TD-DFT) =  -4069.77484228
 Copying the excited state density for this state as the 1-particle RhoCI density.

 Excited State   2:      Singlet-A      1.7248 eV  718.82 nm  f=0.4062  <S**2>=0.000
     309 -> 315        0.17483
     311 -> 313        0.28365
     312 -> 314        0.62190
     309 <- 315        0.10127

 Excited State   3:      Singlet-A      2.1905 eV  566.01 nm  f=0.1736  <S**2>=0.000
     310 -> 313        0.66243
     311 -> 316       -0.23743

 Excited State   4:      Singlet-A      2.2832 eV  543.03 nm  f=0.0527  <S**2>=0.000
     309 -> 314        0.60473
     312 -> 315       -0.35607

 Excited State   5:      Singlet-A      2.7828 eV  445.54 nm  f=0.0000  <S**2>=0.000
     312 -> 313        0.70705

 The electronic state is 1-A.
 Alpha  occ. eigenvalues --  -46.89093 -46.88819 -19.26129 -19.25077 -19.20687
 Alpha  occ. eigenvalues --  -19.19229 -19.18880 -19.18857 -19.18588 -19.18526
 Alpha  occ. eigenvalues --  -14.42267 -14.42212 -14.42122 -14.41528 -14.39565
 Alpha  occ. eigenvalues --  -14.39519 -14.39489 -14.39479 -10.40358 -10.38938
 Alpha  occ. eigenvalues --  -10.35346 -10.35190 -10.34685 -10.34517 -10.31627
 Alpha  occ. eigenvalues --  -10.31600 -10.31267 -10.31255 -10.31062 -10.30972
 Alpha  occ. eigenvalues --  -10.30864 -10.30786 -10.30683 -10.30413 -10.30116
 Alpha  occ. eigenvalues --  -10.30061 -10.30038 -10.29926 -10.29867 -10.29670
 Alpha  occ. eigenvalues --  -10.29452 -10.28996 -10.28747 -10.28603 -10.28532
 Alpha  occ. eigenvalues --  -10.28451 -10.28343 -10.28281 -10.28267 -10.28198
 Alpha  occ. eigenvalues --  -10.28030 -10.28017 -10.27992 -10.27989 -10.27963
 Alpha  occ. eigenvalues --  -10.27952 -10.27944 -10.27674 -10.27668 -10.27487
 Alpha  occ. eigenvalues --  -10.27443 -10.27418 -10.27303 -10.27063 -10.27028
 Alpha  occ. eigenvalues --  -10.27005 -10.27000 -10.26963 -10.26885 -10.26872
 Alpha  occ. eigenvalues --  -10.26592 -10.26553 -10.26407 -10.26359 -10.26342
 Alpha  occ. eigenvalues --  -10.26221 -10.26159 -10.26131 -10.26047 -10.25801
 Alpha  occ. eigenvalues --  -10.25700 -10.25661 -10.25264 -10.25193 -10.25030
 Alpha  occ. eigenvalues --  -10.24608  -3.17702  -3.17429  -1.92585  -1.92304
 Alpha  occ. eigenvalues --   -1.92118  -1.92052  -1.91900  -1.91728  -1.16070
 Alpha  occ. eigenvalues --   -1.15859  -1.12047  -1.09882  -1.09442  -1.09220
 Alpha  occ. eigenvalues --   -1.08331  -1.05851  -1.05362  -1.04918  -1.04629
 Alpha  occ. eigenvalues --   -1.04406  -1.04142  -1.03468  -1.02990  -1.02208
 Alpha  occ. eigenvalues --   -0.93174  -0.92605  -0.89272  -0.89113  -0.89008
 Alpha  occ. eigenvalues --   -0.88638  -0.88249  -0.88194  -0.87771  -0.87740
 Alpha  occ. eigenvalues --   -0.87403  -0.87237  -0.86410  -0.85134  -0.84738
 Alpha  occ. eigenvalues --   -0.84358  -0.84277  -0.83757  -0.82727  -0.82677
 Alpha  occ. eigenvalues --   -0.82649  -0.81829  -0.81159  -0.81156  -0.80988
 Alpha  occ. eigenvalues --   -0.80312  -0.78375  -0.78124  -0.77468  -0.77351
 Alpha  occ. eigenvalues --   -0.77093  -0.76519  -0.76453  -0.76245  -0.75482
 Alpha  occ. eigenvalues --   -0.75242  -0.73531  -0.73016  -0.72253  -0.71535
 Alpha  occ. eigenvalues --   -0.69624  -0.69203  -0.69149  -0.68752  -0.68300
 Alpha  occ. eigenvalues --   -0.68128  -0.67123  -0.66911  -0.65996  -0.65731
 Alpha  occ. eigenvalues --   -0.65630  -0.65111  -0.64999  -0.64760  -0.64579
 Alpha  occ. eigenvalues --   -0.64201  -0.62839  -0.62240  -0.60381  -0.60180
 Alpha  occ. eigenvalues --   -0.60165  -0.59826  -0.59246  -0.59059  -0.59017
 Alpha  occ. eigenvalues --   -0.58623  -0.58288  -0.57904  -0.57808  -0.57282
 Alpha  occ. eigenvalues --   -0.56372  -0.56230  -0.56203  -0.55405  -0.55402
 Alpha  occ. eigenvalues --   -0.55085  -0.54969  -0.54870  -0.54070  -0.54068
 Alpha  occ. eigenvalues --   -0.53659  -0.53325  -0.53294  -0.53135  -0.53122
 Alpha  occ. eigenvalues --   -0.52910  -0.52805  -0.52778  -0.52586  -0.52319
 Alpha  occ. eigenvalues --   -0.52212  -0.52077  -0.51868  -0.51428  -0.51146
 Alpha  occ. eigenvalues --   -0.51021  -0.50750  -0.50581  -0.50550  -0.50275
 Alpha  occ. eigenvalues --   -0.50270  -0.49962  -0.49833  -0.49760  -0.49531
 Alpha  occ. eigenvalues --   -0.49430  -0.49226  -0.49210  -0.49082  -0.48812
 Alpha  occ. eigenvalues --   -0.48790  -0.48750  -0.48554  -0.48455  -0.48216
 Alpha  occ. eigenvalues --   -0.48201  -0.47818  -0.47648  -0.47532  -0.47243
 Alpha  occ. eigenvalues --   -0.47135  -0.46844  -0.46717  -0.46515  -0.46470
 Alpha  occ. eigenvalues --   -0.46420  -0.46269  -0.46157  -0.46111  -0.45948
 Alpha  occ. eigenvalues --   -0.45877  -0.45565  -0.45459  -0.45306  -0.44987
 Alpha  occ. eigenvalues --   -0.44561  -0.44479  -0.44428  -0.44278  -0.43979
 Alpha  occ. eigenvalues --   -0.43933  -0.43914  -0.43693  -0.43616  -0.43430
 Alpha  occ. eigenvalues --   -0.43362  -0.43200  -0.43197  -0.42955  -0.42697
 Alpha  occ. eigenvalues --   -0.42532  -0.42257  -0.42222  -0.42098  -0.41872
 Alpha  occ. eigenvalues --   -0.41854  -0.41814  -0.41720  -0.41515  -0.41314
 Alpha  occ. eigenvalues --   -0.41215  -0.41108  -0.41005  -0.40855  -0.40613
 Alpha  occ. eigenvalues --   -0.40499  -0.40172  -0.39980  -0.39828  -0.39524
 Alpha  occ. eigenvalues --   -0.39088  -0.38503  -0.38223  -0.38121  -0.37609
 Alpha  occ. eigenvalues --   -0.37347  -0.37250  -0.36819  -0.36657  -0.36605
 Alpha  occ. eigenvalues --   -0.36022  -0.35669  -0.34957  -0.34841  -0.34544
 Alpha  occ. eigenvalues --   -0.33612  -0.33435  -0.32871  -0.31538  -0.31343
 Alpha  occ. eigenvalues --   -0.31322  -0.31207  -0.31064  -0.30879  -0.30409
 Alpha  occ. eigenvalues --   -0.30274  -0.30081  -0.29787  -0.24524  -0.23823
 Alpha  occ. eigenvalues --   -0.21454  -0.21125
 Alpha virt. eigenvalues --   -0.09073  -0.08449  -0.02357  -0.01180   0.00239
 Alpha virt. eigenvalues --    0.00372   0.01706   0.01856   0.02486   0.02611
 Alpha virt. eigenvalues --    0.04091   0.04764   0.04873   0.05729   0.06163

 Mulliken charges:
               1
     1  Mg   0.818942
     2  C   -0.027598
     3  C   -0.090624
     4  C   -0.046396
     5  C   -0.087315
     6  N   -0.261331
     7  C   -0.073329
     8  C   -0.067229
     9  C   -0.064238
    10  C    0.017758
    11  C    0.108068
    12  C    0.065189
    13  C   -0.081712
    14  H    0.029557
    15  N   -0.432434
    16  C    0.196158
    17  C   -0.155482
    18  C   -0.066222
    19  C    0.129058
    20  C    0.128447
    21  C    0.011415
    22  O   -0.165299
    23  C    0.046954
    24  N   -0.260977
    25  C    0.045544
    26  C   -0.043797
    27  C   -0.029931
    28  C    0.049926
    29  C    0.066736
    30  C    0.022695
    31  C    0.021350
    32  N   -0.342472
    33  C    0.111674
    34  C   -0.193717
    35  C    0.033724
    36  C    0.152537
    37  C    0.142355
    38  C    0.017010
    39  O   -0.184753
    40  C    0.043473
    41  C    0.222935
    42  O   -0.215869
    43  O   -0.330741
    44  C    0.180635
    45  H   -0.024404
    46  H   -0.052457
    47  H   -0.027049
    48  H   -0.005270
    49  H   -0.002769
    50  H    0.020507
    51  H    0.017050
    52  H    0.033141
    53  H    0.007704
    54  H    0.031129
    55  H    0.028998
    56  H    0.035114
    57  H    0.031735
    58  H   -0.009514
    59  H    0.028025
    60  H    0.050226
    61  H    0.014746
    62  H    0.047127
    63  H    0.006571
    64  H    0.001472
    65  H    0.023927
    66  H    0.019726
    67  H    0.008505
    68  H    0.019189
    69  H   -0.007907
    70  H    0.022055
    71  H    0.005872
    72  H    0.020297
    73  H    0.016158
    74  H    0.034346
    75  H    0.041787
    76  H    0.030795
    77  H    0.024076
    78  H    0.031676
    79  H    0.036742
    80  Mg   0.838583
    81  C    0.011583
    82  C   -0.053467
    83  C   -0.054115
    84  C   -0.074737
    85  N   -0.258990
    86  C   -0.044617
    87  C   -0.039952
    88  C   -0.067837
    89  C    0.025086
    90  C    0.071303
    91  C    0.050795
    92  C   -0.046742
    93  H    0.016074
    94  N   -0.276125
    95  C    0.108830
    96  C   -0.140093
    97  C   -0.038875
    98  C    0.073836
    99  C    0.126557
   100  C   -0.001519
   101  O   -0.216504
   102  C    0.046164
   103  N   -0.278499
   104  C    0.028320
   105  C   -0.031871
   106  C    0.005500
   107  C    0.043843
   108  C    0.083015
   109  C   -0.011453
   110  C    0.012523
   111  N   -0.385142
   112  C    0.091395
   113  C   -0.180262
   114  C    0.092677
   115  C    0.102453
   116  C    0.138700
   117  C   -0.042541
   118  O   -0.171779
   119  C    0.016040
   120  C    0.193091
   121  O   -0.252783
   122  O   -0.327513
   123  C    0.186395
   124  H   -0.035245
   125  H   -0.008354
   126  H   -0.024026
   127  H    0.024565
   128  H    0.018062
   129  H    0.010118
   130  H    0.028615
   131  H    0.019286
   132  H   -0.011534
   133  H    0.007870
   134  H    0.032080
   135  H    0.033397
   136  H    0.009283
   137  H    0.014845
   138  H    0.039777
   139  H    0.033314
   140  H    0.047661
   141  H    0.024793
   142  H    0.009814
   143  H    0.009912
   144  H    0.015168
   145  H    0.018506
   146  H    0.029873
   147  H    0.004385
   148  H    0.004769
   149  H    0.014789
   150  H    0.015360
   151  H    0.016090
   152  H    0.004380
   153  H    0.043812
   154  H    0.038496
   155  H    0.030430
   156  H    0.034901
   157  H    0.058378
   158  H    0.019079
 Sum of Mulliken charges =  -0.00000

 Dipole moment (field-independent basis, Debye):
    X=              3.5378    Y=             -4.0199    Z=              3.6473  Tot=              6.4791
 Quadrupole moment (field-independent basis, Debye-Ang):
   XX=           -492.0815   YY=           -509.7257   ZZ=           -540.9671
   XY=             -8.7674   XZ=            -19.9128   YZ=             31.3874

 Normal termination of Gaussian 16 at Thu Sep 16 12:45:55 2021.
