 Gaussian 16, Revision A.03,
 Gaussian 16:  ES64L-G16RevA.03 25-Dec-2016

 -----------------------------------
 #p cam-b3lyp/Def2SVP td=(nstates=5)
 -----------------------------------

 --------------------------------
 TDDFT excited states in gaussian
 --------------------------------
 Symbolic Z-matrix:
 Charge =  0 Multiplicity = 1

                         Standard orientation:
 ---------------------------------------------------------------------
 Center     Atomic      Atomic             Coordinates (Angstroms)
 Number     Number       Type             X           Y           Z
 ---------------------------------------------------------------------
      1         12           0        0.800332    0.152917   -0.359569
      2          6           0       -2.779603    0.226318   -0.243363
      3          6           0        0.504887   -3.361550   -0.290256
      4          6           0        4.003591   -0.103831    0.254738
      5          6           0        0.834157    3.539890   -0.060006
      6          7           0       -0.955557   -1.353507   -0.328569
      7          6           0       -2.267442   -1.022003   -0.394604
      8          6           0       -3.079482   -2.291794   -0.589691
      9          6           0       -2.090954   -3.490587   -0.643279
     10          6           0       -0.772053   -2.719090   -0.444604
     11          6           0       -2.398554   -4.643628    0.469340
     12          6           0       -3.958431   -2.262415   -1.912722
     13          6           0       -5.422695   -2.679218   -1.770762
     14          1           0       -5.858287   -3.782742   -0.725135
     15          7           0        2.080814   -1.521468   -0.003865
     16          6           0        1.770773   -2.799766   -0.050706
     17          6           0        2.968438   -3.541714    0.225992
     18          6           0        4.083729   -2.666493    0.253044
     19          6           0        3.418809   -1.390620    0.206549
     20          6           0        3.030118   -5.066562    0.153907
     21          6           0        5.591308   -2.864399    0.232452
     22          8           0        6.381883   -1.944029    0.332098
     23          6           0        6.070132   -4.273784    0.017273
     24          7           0        2.137938    1.512364    0.388494
     25          6           0        3.496396    1.191522    0.361097
     26          6           0        4.418084    2.440752    0.398757
     27          6           0        3.338717    3.556159    0.130078
     28          6           0        1.993454    2.830420    0.147264
     29          6           0        5.160554    2.532824    1.739734
     30          6           0        3.484069    4.256059   -1.303202
     31          6           0        4.036026    5.640763   -1.366013
     32          7           0       -0.613659    1.591899   -0.302193
     33          6           0       -0.439982    2.949854   -0.143650
     34          6           0       -1.702481    3.668651    0.006960
     35          6           0       -2.686886    2.617630   -0.031552
     36          6           0       -1.975907    1.395863   -0.092174
     37          6           0       -1.831906    5.148349   -0.034028
     38          6           0       -4.110352    2.321140   -0.080292
     39          8           0       -5.048357    3.139007   -0.072153
     40          6           0       -4.246922    0.697553   -0.193046
     41          6           0       -4.959646    0.300020    1.010755
     42          8           0       -4.583608    0.560344    2.132706
     43          8           0       -6.066350   -0.393690    0.719306
     44          6           0       -7.011639   -0.871346    1.776673
     45          1           0        0.473419   -4.451696   -0.343840
     46          1           0        5.074595   -0.070344    0.041218
     47          1           0        0.895314    4.629876   -0.049695
     48          1           0       -3.710367   -2.404703    0.291991
     49          1           0       -2.177914   -4.049792   -1.575007
     50          1           0       -3.438539   -4.602686    0.793297
     51          1           0       -1.699548   -4.439089    1.280714
     52          1           0       -2.171681   -5.624915    0.052880
     53          1           0       -3.541689   -2.810092   -2.756880
     54          1           0       -4.014250   -1.238235   -2.281360
     55          1           0       -5.843984   -2.997293   -2.724644
     56          1           0       -5.918874   -1.732960   -1.555091
     57          1           0        3.397162   -5.454209   -0.796559
     58          1           0        2.088831   -5.522181    0.462777
     59          1           0        3.722232   -5.375448    0.936951
     60          1           0        5.513244   -4.845649   -0.725597
     61          1           0        6.077448   -4.895725    0.911301
     62          1           0        7.035477   -4.243764   -0.488077
     63          1           0        5.139922    2.333822   -0.410485
     64          1           0        3.436647    4.309484    0.911861
     65          1           0        5.077871    1.643328    2.364128
     66          1           0        4.776379    3.344108    2.357064
     67          1           0        6.215666    2.734154    1.551637
     68          1           0        2.554338    4.345762   -1.865005
     69          1           0        4.068638    3.659890   -2.002920
     70          1           0        4.979054    5.645701   -1.911122
     71          1           0        4.183008    5.891959   -0.315421
     72          1           0        3.339878    6.306531   -1.876051
     73          1           0       -2.760458    5.452462   -0.515955
     74          1           0       -0.912215    5.521535   -0.484208
     75          1           0       -1.859325    5.486087    1.002867
     76          1           0       -4.827319    0.400524   -1.065516
     77          1           0       -7.263688   -0.041541    2.437232
     78          1           0       -6.588183   -1.667552    2.389411
     79          1           0       -7.891914   -1.377485    1.381352
 ---------------------------------------------------------------------

 SCF Done:  E(RCAM-B3LYP) =  -2034.90006491     A.U. after   17 cycles

 Excitation energies and oscillator strengths:

 Excited State   1:      Singlet-A      1.6834 eV  736.49 nm  f=0.4037  <S**2>=0.000
     155 ->158        -0.17303
     156 ->157         0.68699
     155 <-158        -0.10718
 This state for optimization and/or second-order correction.
 Total Energy, E(TD-HF/TD-DFT) =  -2034.83819937
 Copying the excited state density for this state as the 1-particle RhoCI density.

 Excited State   2:      Singlet-A      2.1994 eV  563.73 nm  f=0.1327  <S**2>=0.000
     155 ->157         0.65028
     156 ->158         0.26292

 Excited State   3:      Singlet-A      3.3298 eV  372.35 nm  f=0.0032  <S**2>=0.000
     153 ->157        -0.10222
     154 ->157         0.67987

 Excited State   4:      Singlet-A      3.4889 eV  355.37 nm  f=0.0019  <S**2>=0.000
     151 ->157        -0.15362
     152 ->157        -0.35480
     152 ->159         0.21093
     152 ->161        -0.19290
     153 ->157         0.46608

 Excited State   5:      Singlet-A      3.5197 eV  352.26 nm  f=0.1274  <S**2>=0.000
     152 ->157        -0.37153
     152 ->159         0.11581
     152 ->161        -0.11706
     153 ->157        -0.33827
     155 ->157        -0.12666
     156 ->158         0.41394

 The electronic state is 1-A.
 Alpha  occ. eigenvalues --  -46.88625 -19.25268 -19.19535 -19.19018 -19.18523
 Alpha  occ. eigenvalues --  -14.41885 -14.41719 -14.39380 -14.39093 -10.38507
 Alpha  occ. eigenvalues --  -10.35793 -10.35466 -10.32545 -10.31338 -10.30749
 Alpha  occ. eigenvalues --  -10.30524 -10.30275 -10.29655 -10.29590 -10.29184
 Alpha  occ. eigenvalues --  -10.29031 -10.28754 -10.28571 -10.28213 -10.28187
 Alpha  occ. eigenvalues --  -10.28025 -10.27941 -10.27803 -10.27733 -10.27622
 Alpha  occ. eigenvalues --  -10.27093 -10.27012 -10.26666 -10.26577 -10.26433
 Alpha  occ. eigenvalues --  -10.26231 -10.26072 -10.26064 -10.25813 -10.25583
 Alpha  occ. eigenvalues --  -10.25574 -10.25469 -10.25027  -3.17254  -1.92120
 Alpha  occ. eigenvalues --   -1.91715  -1.91565  -1.16566  -1.10851  -1.08444
 Alpha  occ. eigenvalues --   -1.07374  -1.04655  -1.03516  -1.03150  -1.01891
 Alpha  occ. eigenvalues --   -0.92169  -0.88642  -0.88270  -0.88104  -0.87114
 Alpha  occ. eigenvalues --   -0.87028  -0.86413  -0.84234  -0.84130  -0.82671
 Alpha  occ. eigenvalues --   -0.81840  -0.81293  -0.80703  -0.78271  -0.77681
 Alpha  occ. eigenvalues --   -0.76873  -0.76285  -0.74848  -0.72492  -0.71422
 Alpha  occ. eigenvalues --   -0.68757  -0.67807  -0.67657  -0.66981  -0.65564
 Alpha  occ. eigenvalues --   -0.65168  -0.64630  -0.64506  -0.62430  -0.60508
 Alpha  occ. eigenvalues --   -0.59236  -0.58824  -0.58497  -0.58049  -0.57478
 Alpha  occ. eigenvalues --   -0.56090  -0.55764  -0.55170  -0.54373  -0.53508
 Alpha  occ. eigenvalues --   -0.53323  -0.52997  -0.52922  -0.52626  -0.52368
 Alpha  occ. eigenvalues --   -0.52100  -0.51293  -0.51197  -0.50595  -0.50534
 Alpha  occ. eigenvalues --   -0.50078  -0.49980  -0.49270  -0.49034  -0.48762
 Alpha  occ. eigenvalues --   -0.48574  -0.48405  -0.48150  -0.47725  -0.47437
 Alpha  occ. eigenvalues --   -0.46750  -0.46610  -0.46200  -0.46125  -0.45897
 Alpha  occ. eigenvalues --   -0.45312  -0.45107  -0.44517  -0.44243  -0.43830
 Alpha  occ. eigenvalues --   -0.43600  -0.43305  -0.43025  -0.42765  -0.42616
 Alpha  occ. eigenvalues --   -0.42479  -0.41849  -0.41522  -0.41421  -0.41295
 Alpha  occ. eigenvalues --   -0.41016  -0.40557  -0.40298  -0.39726  -0.39331
 Alpha  occ. eigenvalues --   -0.38399  -0.37927  -0.36980  -0.36558  -0.36228
 Alpha  occ. eigenvalues --   -0.36155  -0.34461  -0.33768  -0.33017  -0.31701
 Alpha  occ. eigenvalues --   -0.31245  -0.30746  -0.30093  -0.29400  -0.23838
 Alpha  occ. eigenvalues --   -0.20967
 Alpha virt. eigenvalues --   -0.08725  -0.01124   0.00110   0.01775   0.02070
 Alpha virt. eigenvalues --    0.04760   0.05515   0.06030   0.07495   0.08252
 Alpha virt. eigenvalues --    0.08806   0.09277   0.09645   0.10167   0.10679

 Mulliken charges:
               1
     1  Mg   0.829310
     2  C   -0.027422
     3  C   -0.081378
     4  C   -0.048345
     5  C   -0.097967
     6  N   -0.248693
     7  C   -0.030244
     8  C    0.007206
     9  C   -0.059269
    10  C    0.026543
    11  C    0.039536
    12  C    0.031801
    13  C   -0.059019
    14  H    0.004044
    15  N   -0.302858
    16  C    0.146133
    17  C   -0.169001
    18  C   -0.020039
    19  C    0.093331
    20  C    0.099927
    21  C    0.033796
    22  O   -0.186984
    23  C    0.024088
    24  N   -0.332239
    25  C   -0.001086
    26  C   -0.024795
    27  C   -0.002667
    28  C    0.080327
    29  C    0.078534
    30  C   -0.015174
    31  C    0.023914
    32  N   -0.395335
    33  C    0.148587
    34  C   -0.178795
    35  C    0.024809
    36  C    0.119036
    37  C    0.137495
    38  C    0.044586
    39  O   -0.191612
    40  C    0.008871
    41  C    0.183324
    42  O   -0.215313
    43  O   -0.324735
    44  C    0.186196
    45  H   -0.034539
    46  H   -0.001833
    47  H   -0.023796
    48  H    0.020289
    49  H    0.020904
    50  H    0.027653
    51  H    0.023991
    52  H    0.016035
    53  H    0.005682
    54  H    0.004826
    55  H    0.020173
    56  H    0.032998
    57  H    0.044411
    58  H    0.015523
    59  H    0.008529
    60  H    0.015410
    61  H    0.052143
    62  H    0.023557
    63  H    0.017646
    64  H    0.012709
    65  H    0.031330
    66  H    0.004857
    67  H    0.019356
    68  H    0.006161
    69  H   -0.004170
    70  H    0.014272
    71  H    0.005118
    72  H    0.017085
    73  H    0.042127
    74  H    0.016894
    75  H    0.031360
    76  H    0.029681
    77  H    0.052782
    78  H    0.029859
    79  H    0.042551
 Sum of Mulliken charges =  -0.00000

 Dipole moment (field-independent basis, Debye):
    X=              1.2401    Y=             -3.6435    Z=             -2.9834  Tot=              4.8697
 Quadrupole moment (field-independent basis, Debye-Ang):
   XX=           -266.2227   YY=           -231.0089   ZZ=           -256.1074
   XY=             24.8395   XZ=             -3.1214   YZ=             -1.7262

 Normal termination of Gaussian 16 at Wed Sep 15 08:08:23 2021.
