 Gaussian 16, Revision A.03,
 Gaussian 16:  ES64L-G16RevA.03 25-Dec-2016

 -----------------------------------
 #p cam-b3lyp/Def2SVP td=(nstates=5)
 -----------------------------------

 --------------------------------
 TDDFT excited states in gaussian
 --------------------------------
 Symbolic Z-matrix:
 Charge =  0 Multiplicity = 1

                         Standard orientation:
 ---------------------------------------------------------------------
 Center     Atomic      Atomic             Coordinates (Angstroms)
 Number     Number       Type             X           Y           Z
 ---------------------------------------------------------------------
      1         12           0      -24.543726    0.410600    0.206389
      2          6           0      -23.219884   -2.221827   -1.668915
      3          6           0      -22.771761    2.572752   -1.910133
      4          6           0      -25.264754    2.990496    2.212189
      5          6           0      -25.311722   -1.833368    2.700000
      6          7           0      -23.199086    0.221794   -1.702987
      7          6           0      -22.804006   -0.992033   -2.170923
      8          6           0      -21.826198   -0.820562   -3.400271
      9          6           0      -21.496802    0.753304   -3.292748
     10          6           0      -22.493753    1.230266   -2.223254
     11          6           0      -20.050067    0.887592   -2.697832
     12          6           0      -22.650228   -1.137509   -4.702025
     13          6           0      -21.945301   -0.911133   -6.067179
     14          1           0      -22.481021   -0.262890   -7.309008
     15          7           0      -24.245589    2.473467    0.030026
     16          6           0      -23.527320    3.214225   -0.923419
     17          6           0      -23.607249    4.567656   -0.564594
     18          6           0      -24.473837    4.728669    0.508228
     19          6           0      -24.706523    3.366982    0.960598
     20          6           0      -22.975283    5.611232   -1.426314
     21          6           0      -24.967872    6.019201    1.241467
     22          8           0      -25.755658    6.033393    2.181218
     23          6           0      -24.671321    7.422410    0.705370
     24          7           0      -25.080005    0.530511    2.206629
     25          6           0      -25.459606    1.709848    2.747282
     26          6           0      -26.168842    1.566197    4.108061
     27          6           0      -26.057877    0.032091    4.329358
     28          6           0      -25.571541   -0.495326    2.991409
     29          6           0      -25.640175    2.529718    5.221953
     30          6           0      -27.316727   -0.701251    4.868149
     31          6           0      -28.409024   -0.920550    3.909411
     32          7           0      -24.422694   -1.620195    0.475095
     33          6           0      -24.757948   -2.379040    1.492618
     34          6           0      -24.599690   -3.805081    1.189312
     35          6           0      -23.981120   -3.745435   -0.100300
     36          6           0      -23.860054   -2.420694   -0.471844
     37          6           0      -25.271434   -4.952170    1.785987
     38          6           0      -23.471767   -4.588587   -1.167668
     39          8           0      -23.493748   -5.791000   -1.302503
     40          6           0      -22.896164   -3.594865   -2.183945
     41          6           0      -21.413949   -3.863552   -2.464591
     42          8           0      -20.514558   -3.535915   -1.735006
     43          8           0      -21.295677   -4.592095   -3.624022
     44          6           0      -19.885274   -4.885054   -3.968292
     45          1           0      -22.324271    3.238374   -2.650027
     46          1           0      -25.706329    3.800517    2.796870
     47          1           0      -25.763316   -2.322526    3.564812
     48          1           0      -20.903599   -1.389684   -3.283390
     49          1           0      -21.570068    1.298459   -4.234604
     50          1           0      -19.978468    1.203662   -1.657617
     51          1           0      -19.525808    1.748092   -3.114242
     52          1           0      -19.444972   -0.013205   -2.798407
     53          1           0      -23.567658   -0.551642   -4.652515
     54          1           0      -22.991904   -2.169345   -4.615969
     55          1           0      -21.541123   -1.893246   -6.314274
     56          1           0      -21.149649   -0.231450   -5.764619
     57          1           0      -22.412356    5.239656   -2.282971
     58          1           0      -22.440155    6.302456   -0.773761
     59          1           0      -23.828217    6.145121   -1.846223
     60          1           0      -23.618010    7.698533    0.755488
     61          1           0      -25.299317    8.210468    1.121235
     62          1           0      -24.993163    7.423331   -0.336200
     63          1           0      -27.159221    1.880006    3.779435
     64          1           0      -25.226357   -0.072798    5.026266
     65          1           0      -25.258486    3.454015    4.789525
     66          1           0      -24.825653    2.043367    5.759361
     67          1           0      -26.418512    2.832377    5.922752
     68          1           0      -27.637170   -0.021165    5.656764
     69          1           0      -27.018402   -1.621335    5.371063
     70          1           0      -28.204972   -1.818605    3.326563
     71          1           0      -28.566069   -0.041081    3.285239
     72          1           0      -29.350474   -1.147969    4.410347
     73          1           0      -26.193769   -4.546123    2.202023
     74          1           0      -24.827460   -5.454515    2.645572
     75          1           0      -25.424588   -5.672004    0.982642
     76          1           0      -23.472957   -3.692645   -3.104236
     77          1           0      -19.843711   -5.869380   -4.434254
     78          1           0      -19.210374   -5.051026   -3.128344
     79          1           0      -19.504831   -4.170358   -4.697345
     80         12           0       24.041918    0.571454   -0.299869
     81          6           0       23.389335   -2.598603    0.924225
     82          6           0       20.683479    1.346278   -0.009537
     83          6           0       24.852003    3.816001   -0.759771
     84          6           0       27.454134   -0.313326   -0.192220
     85          7           0       22.280114   -0.428481    0.656405
     86          6           0       22.265390   -1.745205    0.881883
     87          6           0       20.861345   -2.182526    1.402551
     88          6           0       19.945275   -0.996146    0.838848
     89          6           0       21.030301    0.052572    0.382167
     90          6           0       18.930280   -1.472851   -0.227945
     91          6           0       20.837911   -2.189884    2.914110
     92          6           0       20.090240   -3.350206    3.552272
     93          1           0       19.223475   -3.191805    4.857936
     94          7           0       22.839938    2.319329   -0.542626
     95          6           0       21.522737    2.472087   -0.322607
     96          6           0       21.192699    3.829018   -0.615823
     97          6           0       22.364848    4.540952   -1.013442
     98          6           0       23.442823    3.562704   -0.822531
     99          6           0       19.783690    4.289991   -0.683005
    100          6           0       22.397724    5.999263   -1.304415
    101          8           0       21.363838    6.646521   -1.311976
    102          6           0       23.694862    6.712231   -1.667311
    103          7           0       25.981645    1.612692   -0.544369
    104          6           0       25.977781    2.971254   -0.647102
    105          6           0       27.361567    3.515283   -0.499543
    106          6           0       28.193347    2.159944   -0.308330
    107          6           0       27.198801    1.030359   -0.411756
    108          6           0       27.824303    4.425604   -1.652492
    109          6           0       29.088682    2.070517    1.005945
    110          6           0       30.586593    1.696110    0.912678
    111          7           0       25.196573   -1.067803    0.210372
    112          6           0       26.534037   -1.299270    0.133793
    113          6           0       26.789281   -2.668463    0.221499
    114          6           0       25.577775   -3.278508    0.515641
    115          6           0       24.658890   -2.260703    0.571325
    116          6           0       28.206117   -3.309092    0.144322
    117          6           0       24.928103   -4.479106    0.764544
    118          8           0       25.425165   -5.588926    0.920688
    119          6           0       23.395465   -4.154522    1.110612
    120          6           0       22.506769   -4.705528    0.152217
    121          8           0       22.228475   -4.343429   -0.993441
    122          8           0       21.926589   -5.813972    0.761318
    123          6           0       20.953607   -6.627957    0.053090
    124          1           0       19.612348    1.548835   -0.069894
    125          1           0       25.264457    4.815795   -0.913634
    126          1           0       28.526712   -0.499285   -0.279777
    127          1           0       20.655411   -3.177662    1.009324
    128          1           0       19.420833   -0.434701    1.611369
    129          1           0       19.083056   -2.518840   -0.493050
    130          1           0       19.017655   -0.848353   -1.117600
    131          1           0       17.931241   -1.300341    0.171721
    132          1           0       20.490408   -1.288093    3.418618
    133          1           0       21.889338   -2.156024    3.199460
    134          1           0       20.818269   -4.151065    3.680376
    135          1           0       19.435263   -3.650488    2.734404
    136          1           0       19.572158    4.253287   -1.751489
    137          1           0       19.670432    5.293393   -0.272123
    138          1           0       19.094252    3.645225   -0.137872
    139          1           0       24.205620    6.891258   -0.721052
    140          1           0       23.397722    7.703424   -2.008995
    141          1           0       24.276288    6.121541   -2.375099
    142          1           0       27.245827    4.070048    0.430993
    143          1           0       28.965316    2.052917   -1.070395
    144          1           0       27.807534    5.440653   -1.254260
    145          1           0       27.204451    4.330322   -2.544610
    146          1           0       28.861605    4.198138   -1.896978
    147          1           0       28.645301    1.327906    1.669146
    148          1           0       29.145270    3.016459    1.544996
    149          1           0       30.505580    0.613081    1.004436
    150          1           0       31.127870    2.081139    1.775925
    151          1           0       31.117627    1.790817   -0.034401
    152          1           0       28.729319   -3.099628    1.076446
    153          1           0       28.874133   -2.906874   -0.617552
    154          1           0       28.138187   -4.390496    0.022590
    155          1           0       23.241300   -4.513236    2.128402
    156          1           0       21.060831   -7.646163    0.425798
    157          1           0       20.982505   -6.546515   -1.033805
    158          1           0       19.964104   -6.327802    0.398187
 ---------------------------------------------------------------------

 SCF Done:  E(RCAM-B3LYP) =  -4069.80227282     A.U. after   18 cycles

 Excitation energies and oscillator strengths:

 Excited State   1:      Singlet-A      1.6990 eV  729.74 nm  f=0.3972  <S**2>=0.000
     309 -> 315       -0.18502
     311 -> 313        0.68486
     309 <- 315       -0.10995
 This state for optimization and/or second-order correction.
 Total Energy, E(TD-HF/TD-DFT) =  -4069.73983545
 Copying the excited state density for this state as the 1-particle RhoCI density.

 Excited State   2:      Singlet-A      1.7451 eV  710.48 nm  f=0.3943  <S**2>=0.000
     310 -> 316       -0.18611
     312 -> 314        0.68382
     310 <- 316       -0.10699

 Excited State   3:      Singlet-A      2.2279 eV  556.51 nm  f=0.1006  <S**2>=0.000
     309 -> 313        0.63665
     311 -> 315        0.29395

 Excited State   4:      Singlet-A      2.2617 eV  548.19 nm  f=0.1156  <S**2>=0.000
     310 -> 314        0.64504
     312 -> 316        0.27671

 Excited State   5:      Singlet-A      3.0354 eV  408.46 nm  f=0.0000  <S**2>=0.000
     312 -> 313        0.70710

 The electronic state is 1-A.
 Alpha  occ. eigenvalues --  -46.89706 -46.88705 -19.25785 -19.24656 -19.20413
 Alpha  occ. eigenvalues --  -19.20209 -19.19431 -19.19263 -19.18833 -19.18372
 Alpha  occ. eigenvalues --  -14.42368 -14.42243 -14.42037 -14.41059 -14.39823
 Alpha  occ. eigenvalues --  -14.39218 -14.39144 -14.39136 -10.39779 -10.39639
 Alpha  occ. eigenvalues --  -10.36166 -10.35247 -10.34640 -10.34509 -10.31813
 Alpha  occ. eigenvalues --  -10.31599 -10.31562 -10.31412 -10.31325 -10.31159
 Alpha  occ. eigenvalues --  -10.31075 -10.30922 -10.30630 -10.30573 -10.30358
 Alpha  occ. eigenvalues --  -10.29960 -10.29792 -10.29648 -10.29616 -10.29456
 Alpha  occ. eigenvalues --  -10.28848 -10.28736 -10.28696 -10.28674 -10.28556
 Alpha  occ. eigenvalues --  -10.28518 -10.28393 -10.28355 -10.28346 -10.28332
 Alpha  occ. eigenvalues --  -10.28194 -10.28192 -10.27961 -10.27830 -10.27814
 Alpha  occ. eigenvalues --  -10.27778 -10.27736 -10.27643 -10.27596 -10.27504
 Alpha  occ. eigenvalues --  -10.27423 -10.27389 -10.27272 -10.27099 -10.27057
 Alpha  occ. eigenvalues --  -10.27033 -10.26958 -10.26874 -10.26812 -10.26622
 Alpha  occ. eigenvalues --  -10.26547 -10.26349 -10.26191 -10.26083 -10.26049
 Alpha  occ. eigenvalues --  -10.25989 -10.25988 -10.25915 -10.25869 -10.25832
 Alpha  occ. eigenvalues --  -10.25288 -10.25270 -10.25128 -10.24925 -10.24867
 Alpha  occ. eigenvalues --  -10.24294  -3.18029  -3.17268  -1.92942  -1.92479
 Alpha  occ. eigenvalues --   -1.92322  -1.92155  -1.91737  -1.91555  -1.16832
 Alpha  occ. eigenvalues --   -1.15764  -1.10396  -1.10299  -1.10049  -1.10007
 Alpha  occ. eigenvalues --   -1.08768  -1.07541  -1.05529  -1.04969  -1.04102
 Alpha  occ. eigenvalues --   -1.03880  -1.03781  -1.03347  -1.02630  -1.02439
 Alpha  occ. eigenvalues --   -0.93917  -0.93821  -0.89497  -0.89434  -0.89172
 Alpha  occ. eigenvalues --   -0.88563  -0.88422  -0.88245  -0.87914  -0.87482
 Alpha  occ. eigenvalues --   -0.87220  -0.86898  -0.86214  -0.86198  -0.85445
 Alpha  occ. eigenvalues --   -0.84662  -0.84065  -0.83624  -0.83070  -0.82403
 Alpha  occ. eigenvalues --   -0.82276  -0.81536  -0.81503  -0.80924  -0.80819
 Alpha  occ. eigenvalues --   -0.80411  -0.78510  -0.78202  -0.77635  -0.77594
 Alpha  occ. eigenvalues --   -0.76586  -0.76583  -0.76530  -0.76151  -0.75199
 Alpha  occ. eigenvalues --   -0.74861  -0.73534  -0.72481  -0.72412  -0.71799
 Alpha  occ. eigenvalues --   -0.70050  -0.69844  -0.69281  -0.69161  -0.68355
 Alpha  occ. eigenvalues --   -0.68146  -0.67442  -0.67004  -0.66203  -0.65937
 Alpha  occ. eigenvalues --   -0.65508  -0.65370  -0.64883  -0.64826  -0.64440
 Alpha  occ. eigenvalues --   -0.64009  -0.62727  -0.62488  -0.60523  -0.60069
 Alpha  occ. eigenvalues --   -0.59912  -0.59447  -0.59377  -0.59149  -0.59124
 Alpha  occ. eigenvalues --   -0.58633  -0.58241  -0.58207  -0.58018  -0.57349
 Alpha  occ. eigenvalues --   -0.56551  -0.56377  -0.56176  -0.55727  -0.55504
 Alpha  occ. eigenvalues --   -0.55483  -0.55234  -0.54897  -0.54596  -0.54397
 Alpha  occ. eigenvalues --   -0.54012  -0.53563  -0.53422  -0.53247  -0.53138
 Alpha  occ. eigenvalues --   -0.52688  -0.52677  -0.52545  -0.52358  -0.52109
 Alpha  occ. eigenvalues --   -0.52104  -0.52094  -0.51855  -0.51525  -0.51336
 Alpha  occ. eigenvalues --   -0.51131  -0.51013  -0.50599  -0.50402  -0.50283
 Alpha  occ. eigenvalues --   -0.50161  -0.50037  -0.49921  -0.49627  -0.49613
 Alpha  occ. eigenvalues --   -0.49462  -0.49454  -0.49218  -0.49049  -0.49011
 Alpha  occ. eigenvalues --   -0.48972  -0.48820  -0.48494  -0.48410  -0.48316
 Alpha  occ. eigenvalues --   -0.47900  -0.47555  -0.47498  -0.47094  -0.46906
 Alpha  occ. eigenvalues --   -0.46776  -0.46730  -0.46658  -0.46633  -0.46150
 Alpha  occ. eigenvalues --   -0.46115  -0.45999  -0.45985  -0.45842  -0.45735
 Alpha  occ. eigenvalues --   -0.45499  -0.45367  -0.45320  -0.45099  -0.45074
 Alpha  occ. eigenvalues --   -0.44968  -0.44733  -0.44724  -0.44540  -0.44425
 Alpha  occ. eigenvalues --   -0.44207  -0.44078  -0.43928  -0.43853  -0.43665
 Alpha  occ. eigenvalues --   -0.43632  -0.43413  -0.43336  -0.43242  -0.43186
 Alpha  occ. eigenvalues --   -0.42900  -0.42894  -0.42573  -0.42403  -0.42390
 Alpha  occ. eigenvalues --   -0.42209  -0.42077  -0.41945  -0.41859  -0.41846
 Alpha  occ. eigenvalues --   -0.41657  -0.41465  -0.41091  -0.40770  -0.40268
 Alpha  occ. eigenvalues --   -0.40252  -0.39752  -0.39609  -0.38840  -0.38474
 Alpha  occ. eigenvalues --   -0.38312  -0.38235  -0.37990  -0.37845  -0.37745
 Alpha  occ. eigenvalues --   -0.37397  -0.37325  -0.37290  -0.36713  -0.36355
 Alpha  occ. eigenvalues --   -0.36293  -0.35694  -0.34939  -0.34926  -0.34384
 Alpha  occ. eigenvalues --   -0.34268  -0.33639  -0.33160  -0.31848  -0.31440
 Alpha  occ. eigenvalues --   -0.31224  -0.31089  -0.30806  -0.30737  -0.30518
 Alpha  occ. eigenvalues --   -0.30050  -0.29466  -0.29180  -0.24572  -0.23790
 Alpha  occ. eigenvalues --   -0.21566  -0.21072
 Alpha virt. eigenvalues --   -0.09204  -0.08382  -0.02293  -0.01328  -0.00198
 Alpha virt. eigenvalues --    0.00437   0.01899   0.02316   0.02496   0.02558
 Alpha virt. eigenvalues --    0.04032   0.04621   0.05151   0.05486   0.05547

 Mulliken charges:
               1
     1  Mg   0.838631
     2  C    0.003085
     3  C   -0.061086
     4  C   -0.104777
     5  C   -0.054745
     6  N   -0.218652
     7  C   -0.092778
     8  C   -0.042347
     9  C   -0.061295
    10  C    0.011005
    11  C    0.050364
    12  C    0.024653
    13  C   -0.040716
    14  H    0.041623
    15  N   -0.391195
    16  C    0.155173
    17  C   -0.142621
    18  C   -0.042374
    19  C    0.127192
    20  C    0.119219
    21  C    0.040012
    22  O   -0.203573
    23  C    0.039538
    24  N   -0.333277
    25  C    0.048232
    26  C   -0.057750
    27  C    0.015421
    28  C   -0.039424
    29  C    0.082149
    30  C    0.031338
    31  C    0.039680
    32  N   -0.320470
    33  C    0.146496
    34  C   -0.155208
    35  C   -0.024217
    36  C    0.123330
    37  C    0.118391
    38  C    0.036022
    39  O   -0.149055
    40  C   -0.004696
    41  C    0.202118
    42  O   -0.198432
    43  O   -0.329898
    44  C    0.164257
    45  H   -0.038338
    46  H   -0.000492
    47  H   -0.043704
    48  H    0.025020
    49  H    0.023764
    50  H    0.021435
    51  H    0.003563
    52  H    0.029316
    53  H    0.011276
    54  H    0.008504
    55  H    0.027375
    56  H    0.016230
    57  H    0.020653
    58  H    0.026119
    59  H    0.028291
    60  H    0.036710
    61  H    0.028220
    62  H    0.021114
    63  H    0.014649
    64  H    0.015000
    65  H    0.028224
    66  H    0.010041
    67  H    0.017425
    68  H   -0.003788
    69  H    0.009889
    70  H    0.011554
    71  H    0.012332
    72  H    0.011278
    73  H    0.009258
    74  H    0.018016
    75  H    0.040670
    76  H    0.048858
    77  H    0.031863
    78  H    0.052090
    79  H    0.038242
    80  Mg   0.803431
    81  C   -0.053527
    82  C   -0.077664
    83  C   -0.031497
    84  C   -0.113896
    85  N   -0.266405
    86  C   -0.028564
    87  C   -0.077954
    88  C   -0.056780
    89  C    0.065575
    90  C    0.083067
    91  C    0.065153
    92  C   -0.060434
    93  H    0.028861
    94  N   -0.375692
    95  C    0.137233
    96  C   -0.161469
    97  C   -0.018964
    98  C    0.178061
    99  C    0.123848
   100  C   -0.042903
   101  O   -0.205043
   102  C    0.068029
   103  N   -0.281927
   104  C   -0.040128
   105  C   -0.032400
   106  C   -0.000417
   107  C    0.029929
   108  C    0.073849
   109  C   -0.008466
   110  C   -0.012551
   111  N   -0.343848
   112  C    0.184297
   113  C   -0.180459
   114  C    0.103185
   115  C    0.131970
   116  C    0.117900
   117  C   -0.022202
   118  O   -0.171173
   119  C   -0.002516
   120  C    0.227946
   121  O   -0.227802
   122  O   -0.357576
   123  C    0.177856
   124  H   -0.025152
   125  H   -0.050658
   126  H   -0.029526
   127  H    0.016115
   128  H    0.020245
   129  H    0.026947
   130  H    0.012889
   131  H    0.013826
   132  H    0.013071
   133  H    0.002781
   134  H    0.032700
   135  H    0.023572
   136  H    0.036639
   137  H    0.042114
   138  H    0.002275
   139  H    0.036918
   140  H    0.024988
   141  H    0.043450
   142  H    0.026539
   143  H   -0.001262
   144  H    0.020689
   145  H    0.031756
   146  H    0.017648
   147  H    0.019566
   148  H    0.006263
   149  H    0.003071
   150  H    0.024542
   151  H    0.019079
   152  H    0.024520
   153  H    0.016653
   154  H    0.037811
   155  H    0.052387
   156  H    0.038639
   157  H    0.051823
   158  H    0.019147
 Sum of Mulliken charges =  -0.00000

 Dipole moment (field-independent basis, Debye):
    X=              2.2448    Y=              4.9029    Z=             -1.2208  Tot=              5.5289
 Quadrupole moment (field-independent basis, Debye-Ang):
   XX=           -401.4433   YY=           -556.6432   ZZ=           -496.1443
   XY=             -9.8716   XZ=             28.5702   YZ=            -10.0424

 Normal termination of Gaussian 16 at Tue Aug 31 20:33:11 2021.
