 Gaussian 16, Revision A.03,
 Gaussian 16:  ES64L-G16RevA.03 25-Dec-2016

 -----------------------------------
 #p cam-b3lyp/Def2SVP td=(nstates=5)
 -----------------------------------

 --------------------------------
 TDDFT excited states in gaussian
 --------------------------------
 Symbolic Z-matrix:
 Charge =  0 Multiplicity = 1

                         Standard orientation:
 ---------------------------------------------------------------------
 Center     Atomic      Atomic             Coordinates (Angstroms)
 Number     Number       Type             X           Y           Z
 ---------------------------------------------------------------------
      1         12           0      -25.610101   -0.486124   -0.287905
      2          6           0      -23.200786    1.951281   -0.528899
      3          6           0      -27.538847    1.764748    1.680125
      4          6           0      -27.812133   -2.929699    0.492905
      5          6           0      -23.646163   -2.707419   -1.856164
      6          7           0      -25.380324    1.625927    0.488362
      7          6           0      -24.275140    2.397142    0.247205
      8          6           0      -24.459198    3.811079    0.802943
      9          6           0      -25.787182    3.618337    1.671085
     10          6           0      -26.274174    2.257580    1.266932
     11          6           0      -25.582982    3.828199    3.216388
     12          6           0      -24.627182    4.927198   -0.326587
     13          6           0      -23.931680    6.265503   -0.258697
     14          1           0      -23.974660    7.021307    1.021723
     15          7           0      -27.478372   -0.590634    0.884535
     16          6           0      -28.159947    0.439475    1.432280
     17          6           0      -29.448251    0.031127    1.882809
     18          6           0      -29.576741   -1.346315    1.518412
     19          6           0      -28.216824   -1.680397    0.999422
     20          6           0      -30.299309    1.021124    2.610564
     21          6           0      -30.715940   -2.306618    1.815017
     22          8           0      -30.596463   -3.530359    1.699854
     23          6           0      -32.057538   -1.778168    2.291552
     24          7           0      -25.653985   -2.604638   -0.502280
     25          6           0      -26.741390   -3.364832   -0.207874
     26          6           0      -26.576814   -4.779599   -0.760485
     27          6           0      -25.299167   -4.633093   -1.671492
     28          6           0      -24.832167   -3.229986   -1.337786
     29          6           0      -26.563127   -6.018809    0.182577
     30          6           0      -25.488345   -4.925059   -3.218546
     31          6           0      -25.805144   -3.798008   -4.178620
     32          7           0      -23.777987   -0.466550   -0.955381
     33          6           0      -23.091799   -1.377479   -1.717767
     34          6           0      -21.791232   -0.944430   -2.078627
     35          6           0      -21.797249    0.387458   -1.676248
     36          6           0      -23.031880    0.632765   -1.021954
     37          6           0      -20.643097   -1.604867   -2.830657
     38          6           0      -21.062915    1.574348   -1.611604
     39          8           0      -19.922355    1.775095   -1.986534
     40          6           0      -21.921561    2.714076   -0.822630
     41          6           0      -21.160128    3.111074    0.355275
     42          8           0      -20.887336    2.382603    1.329903
     43          8           0      -20.697979    4.388066    0.295585
     44          6           0      -19.665351    4.813155    1.247285
     45          1           0      -28.074253    2.565185    2.194278
     46          1           0      -28.624647   -3.658879    0.480335
     47          1           0      -23.155569   -3.257061   -2.661273
     48          1           0      -23.555982    4.085086    1.349618
     49          1           0      -26.537615    4.368592    1.421374
     50          1           0      -26.237978    4.640995    3.528265
     51          1           0      -24.511301    3.992285    3.330306
     52          1           0      -25.929911    3.009793    3.847953
     53          1           0      -25.705100    5.088161   -0.302271
     54          1           0      -24.527577    4.493823   -1.321197
     55          1           0      -24.240760    6.888688   -1.097839
     56          1           0      -22.869828    6.043152   -0.357828
     57          1           0      -31.290674    0.908609    2.173179
     58          1           0      -29.981073    2.040588    2.391166
     59          1           0      -30.351757    0.909036    3.694054
     60          1           0      -32.396695   -0.886682    1.763158
     61          1           0      -32.071479   -1.744508    3.381806
     62          1           0      -32.764455   -2.558282    2.007462
     63          1           0      -27.506679   -4.936667   -1.307514
     64          1           0      -24.543692   -5.389729   -1.463046
     65          1           0      -25.561600   -6.446137    0.229786
     66          1           0      -27.236834   -6.748695   -0.265985
     67          1           0      -26.913441   -5.656833    1.148572
     68          1           0      -26.291400   -5.656677   -3.296588
     69          1           0      -24.583974   -5.383293   -3.619478
     70          1           0      -26.681854   -4.018534   -4.788049
     71          1           0      -24.980832   -3.550429   -4.848756
     72          1           0      -25.999557   -2.936663   -3.539541
     73          1           0      -20.954319   -2.599209   -3.153139
     74          1           0      -19.770784   -1.655176   -2.178526
     75          1           0      -20.400208   -0.990833   -3.697420
     76          1           0      -21.889447    3.518505   -1.558024
     77          1           0      -19.067439    5.658331    0.906011
     78          1           0      -19.037848    4.017135    1.647026
     79          1           0      -20.216216    5.278106    2.065031
     80         12           0       24.886000   -0.886221    0.191787
     81          6           0       24.482288    2.431571   -0.963300
     82          6           0       25.241630    0.363222    3.360619
     83          6           0       25.902944   -3.886220    1.158045
     84          6           0       24.983458   -1.932419   -3.146989
     85          7           0       25.025311    1.187619    1.068104
     86          6           0       24.712436    2.369932    0.392096
     87          6           0       24.493428    3.516801    1.409431
     88          6           0       24.764453    2.825390    2.795409
     89          6           0       24.996204    1.331258    2.437155
     90          6           0       25.751291    3.505596    3.728135
     91          6           0       23.136164    4.234983    1.352014
     92          6           0       23.244948    5.775240    1.182131
     93          1           0       22.544256    6.597452    2.240890
     94          7           0       25.405515   -1.652516    2.048428
     95          6           0       25.534180   -1.001701    3.240194
     96          6           0       25.762303   -1.996860    4.260684
     97          6           0       26.110050   -3.251927    3.599985
     98          6           0       25.822805   -2.920429    2.212818
     99          6           0       25.908495   -1.618741    5.824712
    100          6           0       26.844691   -4.433719    4.067848
    101          8           0       27.083241   -5.434359    3.453790
    102          6           0       27.373812   -4.366113    5.497352
    103          7           0       25.577687   -2.614846   -0.905921
    104          6           0       25.884702   -3.751371   -0.250748
    105          6           0       25.973742   -4.929697   -1.223342
    106          6           0       25.333563   -4.364356   -2.501344
    107          6           0       25.243935   -2.887864   -2.186216
    108          6           0       27.488012   -5.383279   -1.453300
    109          6           0       23.856216   -4.993323   -2.654238
    110          6           0       22.790400   -4.460232   -1.658207
    111          7           0       24.649675   -0.034366   -1.731367
    112          6           0       24.703561   -0.583638   -2.955540
    113          6           0       24.471606    0.454436   -3.923594
    114          6           0       24.333175    1.619355   -3.192546
    115          6           0       24.511765    1.307803   -1.841906
    116          6           0       24.413218    0.357372   -5.436191
    117          6           0       24.142470    3.058642   -3.391004
    118          8           0       24.083009    3.839944   -4.298195
    119          6           0       24.151429    3.638724   -1.951971
    120          6           0       25.251394    4.634729   -1.931572
    121          8           0       26.374307    4.338228   -2.254227
    122          8           0       24.833334    5.913556   -1.600283
    123          6           0       25.816210    7.021017   -1.847730
    124          1           0       25.144222    0.746946    4.378444
    125          1           0       26.119878   -4.920485    1.434575
    126          1           0       24.786924   -2.193428   -4.188988
    127          1           0       25.294992    4.245940    1.289494
    128          1           0       23.856006    2.907401    3.392468
    129          1           0       26.359517    4.234409    3.194463
    130          1           0       26.401068    2.811768    4.262110
    131          1           0       25.147535    4.088199    4.423490
    132          1           0       22.477373    4.154517    2.216681
    133          1           0       22.529806    3.848025    0.533369
    134          1           0       22.979137    6.085427    0.171625
    135          1           0       24.294547    6.042781    1.297223
    136          1           0       25.280522   -2.305295    6.392401
    137          1           0       25.565290   -0.626523    6.115204
    138          1           0       26.903825   -1.601225    6.268621
    139          1           0       26.466451   -4.275951    6.095028
    140          1           0       27.982103   -3.462580    5.524035
    141          1           0       27.890040   -5.265086    5.835607
    142          1           0       25.367213   -5.786253   -0.927259
    143          1           0       25.857532   -4.428962   -3.455218
    144          1           0       27.465479   -6.447757   -1.688189
    145          1           0       28.195820   -5.276620   -0.630574
    146          1           0       27.799983   -4.819950   -2.332616
    147          1           0       23.853743   -6.082014   -2.604611
    148          1           0       23.412882   -4.655247   -3.590961
    149          1           0       21.846297   -5.003857   -1.647289
    150          1           0       22.564388   -3.432101   -1.941441
    151          1           0       23.241622   -4.459104   -0.665452
    152          1           0       23.603906   -0.265930   -5.815787
    153          1           0       25.362293   -0.109757   -5.697849
    154          1           0       24.418139    1.333448   -5.921291
    155          1           0       23.193330    4.154083   -1.886900
    156          1           0       25.681995    7.570243   -0.915831
    157          1           0       25.541958    7.655293   -2.690486
    158          1           0       26.868319    6.794620   -2.018865
 ---------------------------------------------------------------------

 SCF Done:  E(RCAM-B3LYP) =  -4069.84275438     A.U. after   19 cycles

 Excitation energies and oscillator strengths:

 Excited State   1:      Singlet-A      1.7037 eV  727.75 nm  f=0.3996  <S**2>=0.000
     309 -> 315        0.17555
     311 -> 313        0.68725
     309 <- 315        0.10762
 This state for optimization and/or second-order correction.
 Total Energy, E(TD-HF/TD-DFT) =  -4069.78014585
 Copying the excited state density for this state as the 1-particle RhoCI density.

 Excited State   2:      Singlet-A      1.7200 eV  720.86 nm  f=0.4194  <S**2>=0.000
     310 -> 316       -0.17810
     312 -> 314        0.68649
     310 <- 316       -0.10693

 Excited State   3:      Singlet-A      2.1905 eV  566.01 nm  f=0.1549  <S**2>=0.000
     310 -> 314        0.66075
     312 -> 316        0.23681

 Excited State   4:      Singlet-A      2.1918 eV  565.68 nm  f=0.1591  <S**2>=0.000
     309 -> 313        0.65511
     311 -> 315       -0.24771

 Excited State   5:      Singlet-A      3.1662 eV  391.59 nm  f=0.0000  <S**2>=0.000
     312 -> 313        0.70711

 The electronic state is 1-A.
 Alpha  occ. eigenvalues --  -46.89543 -46.89125 -19.25142 -19.25099 -19.19605
 Alpha  occ. eigenvalues --  -19.19278 -19.18890 -19.18617 -19.18552 -19.18399
 Alpha  occ. eigenvalues --  -14.42152 -14.42110 -14.41921 -14.41560 -14.39771
 Alpha  occ. eigenvalues --  -14.39597 -14.39519 -14.39229 -10.38963 -10.38793
 Alpha  occ. eigenvalues --  -10.35379 -10.35154 -10.34545 -10.34374 -10.31807
 Alpha  occ. eigenvalues --  -10.31647 -10.31527 -10.31092 -10.30894 -10.30774
 Alpha  occ. eigenvalues --  -10.30758 -10.30754 -10.30445 -10.30240 -10.30146
 Alpha  occ. eigenvalues --  -10.30091 -10.30069 -10.29962 -10.29900 -10.29627
 Alpha  occ. eigenvalues --  -10.29352 -10.29160 -10.29028 -10.28675 -10.28597
 Alpha  occ. eigenvalues --  -10.28474 -10.28376 -10.28293 -10.28186 -10.28030
 Alpha  occ. eigenvalues --  -10.28025 -10.28024 -10.28019 -10.27996 -10.27993
 Alpha  occ. eigenvalues --  -10.27891 -10.27764 -10.27700 -10.27517 -10.27507
 Alpha  occ. eigenvalues --  -10.27476 -10.27393 -10.27332 -10.27029 -10.26988
 Alpha  occ. eigenvalues --  -10.26930 -10.26884 -10.26647 -10.26623 -10.26552
 Alpha  occ. eigenvalues --  -10.26508 -10.26437 -10.26272 -10.26249 -10.26194
 Alpha  occ. eigenvalues --  -10.26173 -10.26084 -10.25963 -10.25955 -10.25729
 Alpha  occ. eigenvalues --  -10.25607 -10.25224 -10.25062 -10.25057 -10.25041
 Alpha  occ. eigenvalues --  -10.24639  -3.17945  -3.17734  -1.92828  -1.92616
 Alpha  occ. eigenvalues --   -1.92414  -1.92239  -1.92150  -1.92083  -1.15882
 Alpha  occ. eigenvalues --   -1.15688  -1.11669  -1.11067  -1.09910  -1.09475
 Alpha  occ. eigenvalues --   -1.07621  -1.05876  -1.05393  -1.05186  -1.04660
 Alpha  occ. eigenvalues --   -1.04289  -1.04173  -1.03834  -1.03498  -1.01998
 Alpha  occ. eigenvalues --   -0.92633  -0.92360  -0.89040  -0.88878  -0.88811
 Alpha  occ. eigenvalues --   -0.88275  -0.88220  -0.88218  -0.87801  -0.87741
 Alpha  occ. eigenvalues --   -0.87437  -0.86543  -0.86441  -0.86330  -0.84411
 Alpha  occ. eigenvalues --   -0.84304  -0.83785  -0.83497  -0.82702  -0.82506
 Alpha  occ. eigenvalues --   -0.81860  -0.81210  -0.81186  -0.80863  -0.80342
 Alpha  occ. eigenvalues --   -0.80166  -0.78409  -0.78379  -0.77498  -0.77421
 Alpha  occ. eigenvalues --   -0.77120  -0.76762  -0.76272  -0.76165  -0.75513
 Alpha  occ. eigenvalues --   -0.75223  -0.73562  -0.73103  -0.71765  -0.71565
 Alpha  occ. eigenvalues --   -0.69652  -0.69366  -0.69233  -0.69197  -0.68149
 Alpha  occ. eigenvalues --   -0.68077  -0.67300  -0.67149  -0.65654  -0.65483
 Alpha  occ. eigenvalues --   -0.65321  -0.65156  -0.65141  -0.64789  -0.64440
 Alpha  occ. eigenvalues --   -0.64230  -0.62279  -0.62265  -0.60412  -0.60199
 Alpha  occ. eigenvalues --   -0.59855  -0.59719  -0.59284  -0.59088  -0.58751
 Alpha  occ. eigenvalues --   -0.58315  -0.58125  -0.57933  -0.57536  -0.57312
 Alpha  occ. eigenvalues --   -0.56263  -0.55986  -0.55427  -0.55369  -0.55222
 Alpha  occ. eigenvalues --   -0.55001  -0.54898  -0.54577  -0.54197  -0.54096
 Alpha  occ. eigenvalues --   -0.53426  -0.53323  -0.53150  -0.52942  -0.52809
 Alpha  occ. eigenvalues --   -0.52671  -0.52615  -0.52438  -0.52242  -0.52127
 Alpha  occ. eigenvalues --   -0.52104  -0.51885  -0.51493  -0.51457  -0.51260
 Alpha  occ. eigenvalues --   -0.50777  -0.50763  -0.50585  -0.50291  -0.50031
 Alpha  occ. eigenvalues --   -0.49862  -0.49798  -0.49559  -0.49507  -0.49382
 Alpha  occ. eigenvalues --   -0.49319  -0.49251  -0.49113  -0.49034  -0.48817
 Alpha  occ. eigenvalues --   -0.48781  -0.48583  -0.48406  -0.48288  -0.48233
 Alpha  occ. eigenvalues --   -0.47940  -0.47845  -0.47575  -0.47566  -0.47470
 Alpha  occ. eigenvalues --   -0.47165  -0.47007  -0.46875  -0.46541  -0.46431
 Alpha  occ. eigenvalues --   -0.46187  -0.46132  -0.46098  -0.45978  -0.45908
 Alpha  occ. eigenvalues --   -0.45897  -0.45594  -0.45336  -0.45306  -0.45103
 Alpha  occ. eigenvalues --   -0.45009  -0.44517  -0.44506  -0.44055  -0.43962
 Alpha  occ. eigenvalues --   -0.43945  -0.43685  -0.43645  -0.43391  -0.43385
 Alpha  occ. eigenvalues --   -0.43330  -0.43232  -0.43055  -0.42984  -0.42899
 Alpha  occ. eigenvalues --   -0.42436  -0.42309  -0.42248  -0.42072  -0.41986
 Alpha  occ. eigenvalues --   -0.41900  -0.41845  -0.41539  -0.41463  -0.41367
 Alpha  occ. eigenvalues --   -0.41339  -0.41133  -0.40922  -0.40643  -0.40315
 Alpha  occ. eigenvalues --   -0.40009  -0.39855  -0.39733  -0.39543  -0.39081
 Alpha  occ. eigenvalues --   -0.38531  -0.38326  -0.38253  -0.38064  -0.37838
 Alpha  occ. eigenvalues --   -0.37362  -0.37023  -0.36628  -0.36362  -0.36234
 Alpha  occ. eigenvalues --   -0.36049  -0.35693  -0.34574  -0.34402  -0.34082
 Alpha  occ. eigenvalues --   -0.33461  -0.33396  -0.32902  -0.31617  -0.31354
 Alpha  occ. eigenvalues --   -0.31239  -0.31219  -0.30909  -0.30438  -0.30390
 Alpha  occ. eigenvalues --   -0.30300  -0.30150  -0.30113  -0.24177  -0.23854
 Alpha  occ. eigenvalues --   -0.21580  -0.21485
 Alpha virt. eigenvalues --   -0.09172  -0.09104  -0.01428  -0.01211   0.00208
 Alpha virt. eigenvalues --    0.00558   0.01687   0.01827   0.02456   0.02511
 Alpha virt. eigenvalues --    0.04738   0.05309   0.05673   0.06132   0.06390

 Mulliken charges:
               1
     1  Mg   0.838601
     2  C    0.011602
     3  C   -0.053562
     4  C   -0.054116
     5  C   -0.074716
     6  N   -0.259026
     7  C   -0.044624
     8  C   -0.039959
     9  C   -0.067765
    10  C    0.025101
    11  C    0.071337
    12  C    0.050793
    13  C   -0.046906
    14  H    0.016631
    15  N   -0.276127
    16  C    0.108840
    17  C   -0.140169
    18  C   -0.038862
    19  C    0.073781
    20  C    0.126612
    21  C   -0.001528
    22  O   -0.216466
    23  C    0.046150
    24  N   -0.278518
    25  C    0.028289
    26  C   -0.031860
    27  C    0.005491
    28  C    0.043842
    29  C    0.083011
    30  C   -0.011483
    31  C    0.012528
    32  N   -0.385145
    33  C    0.091417
    34  C   -0.180258
    35  C    0.092697
    36  C    0.102463
    37  C    0.138700
    38  C   -0.042511
    39  O   -0.171706
    40  C    0.016081
    41  C    0.193106
    42  O   -0.252925
    43  O   -0.327416
    44  C    0.186370
    45  H   -0.035438
    46  H   -0.008335
    47  H   -0.023983
    48  H    0.024572
    49  H    0.018108
    50  H    0.010048
    51  H    0.028607
    52  H    0.019044
    53  H   -0.011557
    54  H    0.007814
    55  H    0.032253
    56  H    0.033337
    57  H    0.009179
    58  H    0.014688
    59  H    0.039619
    60  H    0.033224
    61  H    0.047638
    62  H    0.024856
    63  H    0.009832
    64  H    0.009923
    65  H    0.015165
    66  H    0.018543
    67  H    0.029847
    68  H    0.004416
    69  H    0.004795
    70  H    0.014815
    71  H    0.015389
    72  H    0.016058
    73  H    0.004399
    74  H    0.043808
    75  H    0.038561
    76  H    0.030570
    77  H    0.035062
    78  H    0.058248
    79  H    0.019100
    80  Mg   0.813019
    81  C   -0.023609
    82  C   -0.077253
    83  C   -0.062002
    84  C   -0.064322
    85  N   -0.302453
    86  C   -0.035132
    87  C    0.006902
    88  C   -0.058626
    89  C    0.050769
    90  C    0.068885
    91  C    0.056700
    92  C   -0.088708
    93  H    0.008353
    94  N   -0.363079
    95  C    0.161200
    96  C   -0.116982
    97  C   -0.041643
    98  C    0.130640
    99  C    0.062501
   100  C   -0.022262
   101  O   -0.176341
   102  C    0.054557
   103  N   -0.263206
   104  C    0.030060
   105  C   -0.035216
   106  C   -0.014454
   107  C    0.032474
   108  C    0.066528
   109  C    0.004394
   110  C   -0.014666
   111  N   -0.320757
   112  C    0.065161
   113  C   -0.162614
   114  C   -0.035077
   115  C    0.140037
   116  C    0.116968
   117  C    0.069112
   118  O   -0.136693
   119  C    0.003811
   120  C    0.181197
   121  O   -0.201524
   122  O   -0.351199
   123  C    0.165228
   124  H   -0.034087
   125  H   -0.000973
   126  H   -0.031188
   127  H    0.018621
   128  H    0.008135
   129  H    0.008562
   130  H    0.022437
   131  H    0.009358
   132  H    0.019164
   133  H    0.009155
   134  H    0.046123
   135  H    0.015628
   136  H    0.027196
   137  H    0.003888
   138  H    0.033283
   139  H    0.021874
   140  H    0.036824
   141  H    0.022618
   142  H    0.016590
   143  H    0.012831
   144  H    0.017349
   145  H    0.035548
   146  H    0.016218
   147  H    0.020204
   148  H    0.002075
   149  H    0.023690
   150  H    0.021709
   151  H    0.021065
   152  H    0.029142
   153  H    0.019742
   154  H    0.036349
   155  H    0.033847
   156  H    0.035892
   157  H    0.044045
   158  H    0.056412
 Sum of Mulliken charges =  -0.00000

 Dipole moment (field-independent basis, Debye):
    X=             -5.7430    Y=              1.9597    Z=              1.4279  Tot=              6.2339
 Quadrupole moment (field-independent basis, Debye-Ang):
   XX=           -442.2318   YY=           -492.9349   ZZ=           -497.3592
   XY=            -62.1833   XZ=             92.8679   YZ=             48.6283

 Normal termination of Gaussian 16 at Fri Sep  3 05:16:44 2021.
