 Gaussian 16, Revision A.03,
 Gaussian 16:  ES64L-G16RevA.03 25-Dec-2016

 -----------------------------------
 #p cam-b3lyp/Def2SVP td=(nstates=5)
 -----------------------------------

 --------------------------------
 TDDFT excited states in gaussian
 --------------------------------
 Symbolic Z-matrix:
 Charge =  0 Multiplicity = 1

                         Standard orientation:
 ---------------------------------------------------------------------
 Center     Atomic      Atomic             Coordinates (Angstroms)
 Number     Number       Type             X           Y           Z
 ---------------------------------------------------------------------
      1         12           0      -25.572353    0.676280    0.403700
      2          6           0      -25.978524   -2.176197   -1.476728
      3          6           0      -25.140051   -1.362386    3.217157
      4          6           0      -25.255395    3.423995    2.338637
      5          6           0      -26.369088    2.588234   -2.284589
      6          7           0      -25.831266   -1.548155    0.838219
      7          6           0      -25.760326   -2.518519   -0.169067
      8          6           0      -25.406384   -3.910216    0.391393
      9          6           0      -25.261695   -3.578248    1.922246
     10          6           0      -25.363045   -2.073266    2.047726
     11          6           0      -26.284386   -4.300978    2.789834
     12          6           0      -24.156710   -4.676631   -0.169841
     13          6           0      -24.439218   -6.035029   -1.014014
     14          1           0      -23.760220   -7.244074   -0.363117
     15          7           0      -25.352671    1.000951    2.456811
     16          6           0      -25.061546    0.025809    3.424430
     17          6           0      -24.635428    0.637439    4.687488
     18          6           0      -24.729154    2.121816    4.507800
     19          6           0      -25.064296    2.272605    3.035596
     20          6           0      -24.241922   -0.168557    5.905718
     21          6           0      -24.513172    3.221630    5.436700
     22          8           0      -24.749184    4.384852    5.078249
     23          6           0      -24.069542    3.017015    6.874628
     24          7           0      -25.865474    2.631597    0.067695
     25          6           0      -25.547471    3.650873    0.984288
     26          6           0      -25.593313    5.118434    0.395040
     27          6           0      -25.998691    4.766796   -1.128293
     28          6           0      -26.063705    3.222777   -1.113254
     29          6           0      -26.636339    6.099772    1.126011
     30          6           0      -24.955351    5.333386   -2.151662
     31          6           0      -25.468276    5.878607   -3.447657
     32          7           0      -26.183082    0.260583   -1.504847
     33          6           0      -26.427772    1.171870   -2.536164
     34          6           0      -26.597954    0.499966   -3.778982
     35          6           0      -26.325780   -0.869964   -3.412642
     36          6           0      -26.164765   -0.924367   -2.022362
     37          6           0      -26.841949    1.013397   -5.135769
     38          6           0      -26.332975   -2.207653   -3.916457
     39          8           0      -26.463838   -2.721093   -5.033083
     40          6           0      -26.248560   -3.129689   -2.616571
     41          6           0      -27.501873   -3.922772   -2.510990
     42          8           0      -28.438281   -3.720494   -1.842912
     43          8           0      -27.395721   -5.091514   -3.261332
     44          6           0      -28.232626   -6.185401   -2.813962
     45          1           0      -24.918327   -2.005166    4.071667
     46          1           0      -25.109645    4.385246    2.835708
     47          1           0      -26.476838    3.201917   -3.181340
     48          1           0      -26.271301   -4.561764    0.271616
     49          1           0      -24.316511   -3.941614    2.326556
     50          1           0      -26.951802   -3.561872    3.232175
     51          1           0      -25.662788   -4.754276    3.561053
     52          1           0      -26.830294   -5.110807    2.306291
     53          1           0      -23.512461   -4.925165    0.673901
     54          1           0      -23.591606   -4.055847   -0.865242
     55          1           0      -23.921817   -5.830344   -1.951465
     56          1           0      -25.511025   -6.203663   -1.115981
     57          1           0      -25.164521   -0.580594    6.316413
     58          1           0      -23.786995    0.511028    6.624705
     59          1           0      -23.637139   -1.044617    5.670513
     60          1           0      -24.310289    3.948462    7.387432
     61          1           0      -23.014386    2.761851    6.978221
     62          1           0      -24.651005    2.325378    7.483929
     63          1           0      -24.585751    5.531019    0.354523
     64          1           0      -26.938565    5.203776   -1.466385
     65          1           0      -27.111952    6.721188    0.366952
     66          1           0      -26.216097    6.858878    1.784628
     67          1           0      -27.395640    5.565743    1.697649
     68          1           0      -24.146559    4.641865   -2.387224
     69          1           0      -24.437094    6.214411   -1.773591
     70          1           0      -25.099930    5.182324   -4.200888
     71          1           0      -25.062516    6.803159   -3.858354
     72          1           0      -26.558651    5.890159   -3.436778
     73          1           0      -26.429465    2.020651   -5.200213
     74          1           0      -27.928284    1.070021   -5.203771
     75          1           0      -26.519898    0.260814   -5.855743
     76          1           0      -25.406881   -3.816724   -2.700436
     77          1           0      -29.225376   -5.916367   -3.173139
     78          1           0      -28.201325   -6.150567   -1.725086
     79          1           0      -27.925063   -7.133293   -3.256486
     80         12           0       25.207275    0.610304   -0.308227
     81          6           0       26.017842   -2.232385    1.719507
     82          6           0       24.045790   -1.422790   -2.610197
     83          6           0       25.292962    3.249159   -2.311607
     84          6           0       26.910605    2.611449    2.265257
     85          7           0       25.014434   -1.578651   -0.395265
     86          6           0       25.429962   -2.573474    0.512043
     87          6           0       25.128147   -4.041956    0.027682
     88          6           0       24.402676   -3.667295   -1.405828
     89          6           0       24.456315   -2.146340   -1.509843
     90          6           0       25.133249   -4.340850   -2.645604
     91          6           0       24.282872   -4.925504    1.009929
     92          6           0       23.644310   -6.167989    0.400728
     93          1           0       24.200962   -7.502226    0.930380
     94          7           0       24.636656    0.889354   -2.180648
     95          6           0       24.134759   -0.050343   -3.050121
     96          6           0       23.769917    0.520568   -4.329494
     97          6           0       24.141740    1.917583   -4.204108
     98          6           0       24.660824    2.073036   -2.798624
     99          6           0       23.113455   -0.162190   -5.435511
    100          6           0       24.009913    3.056120   -5.200719
    101          8           0       24.244117    4.203902   -4.944864
    102          6           0       23.639266    2.630770   -6.596659
    103          7           0       26.051631    2.636549   -0.081247
    104          6           0       25.902710    3.536711   -1.085554
    105          6           0       26.433807    4.932820   -0.663738
    106          6           0       26.810666    4.707159    0.841781
    107          6           0       26.531587    3.232136    1.057210
    108          6           0       27.611026    5.556508   -1.488218
    109          6           0       26.025119    5.573131    1.888792
    110          6           0       26.524704    7.032355    1.974131
    111          7           0       26.265221    0.336621    1.564370
    112          6           0       26.803119    1.202744    2.488221
    113          6           0       27.205432    0.470592    3.622628
    114          6           0       26.993500   -0.835966    3.386976
    115          6           0       26.421793   -0.920268    2.081278
    116          6           0       27.711285    1.172416    4.876220
    117          6           0       27.127904   -2.226512    3.832615
    118          8           0       27.592455   -2.682666    4.845398
    119          6           0       26.499937   -3.186573    2.713306
    120          6           0       27.629959   -3.951308    2.101264
    121          8           0       28.380691   -3.689256    1.188704
    122          8           0       27.652689   -5.149172    2.787727
    123          6           0       28.676331   -6.140278    2.378931
    124          1           0       23.688111   -2.017952   -3.452851
    125          1           0       25.429782    4.031359   -3.062168
    126          1           0       27.285284    3.355243    2.972274
    127          1           0       26.080255   -4.506977   -0.228483
    128          1           0       23.389587   -4.069462   -1.382219
    129          1           0       24.386623   -4.758706   -3.320739
    130          1           0       25.900370   -5.093123   -2.463949
    131          1           0       25.601844   -3.577939   -3.266525
    132          1           0       23.582397   -4.174069    1.376640
    133          1           0       24.747264   -5.259151    1.938154
    134          1           0       23.791788   -6.149988   -0.678732
    135          1           0       22.602544   -6.213523    0.716934
    136          1           0       22.165327    0.375493   -5.435136
    137          1           0       23.035918   -1.233005   -5.246619
    138          1           0       23.545773   -0.058183   -6.430486
    139          1           0       22.557781    2.693257   -6.716691
    140          1           0       24.230087    1.794082   -6.970590
    141          1           0       24.199967    3.328761   -7.217731
    142          1           0       25.543033    5.554785   -0.570622
    143          1           0       27.893335    4.776898    0.949281
    144          1           0       28.519257    5.791197   -0.932361
    145          1           0       27.257330    6.543596   -1.785135
    146          1           0       27.938363    4.974354   -2.349634
    147          1           0       26.149113    5.138498    2.880036
    148          1           0       24.978506    5.485652    1.593859
    149          1           0       27.543707    7.108572    1.594260
    150          1           0       26.431016    7.316666    3.022153
    151          1           0       25.962397    7.733955    1.357233
    152          1           0       27.531017    0.568885    5.765869
    153          1           0       27.234476    2.150126    4.946513
    154          1           0       28.767093    1.422841    4.770631
    155          1           0       25.733400   -3.841916    3.127567
    156          1           0       29.038674   -6.582722    3.306776
    157          1           0       29.512893   -5.718373    1.822119
    158          1           0       28.044918   -6.812161    1.796734
 ---------------------------------------------------------------------

 SCF Done:  E(RCAM-B3LYP) =  -4069.80656191     A.U. after   19 cycles

 Excitation energies and oscillator strengths:

 Excited State   1:      Singlet-A      1.6721 eV  741.50 nm  f=0.4023  <S**2>=0.000
     309 -> 315        0.15727
     311 -> 313        0.68848
 This state for optimization and/or second-order correction.
 Total Energy, E(TD-HF/TD-DFT) =  -4069.74511445
 Copying the excited state density for this state as the 1-particle RhoCI density.

 Excited State   2:      Singlet-A      1.6973 eV  730.49 nm  f=0.4033  <S**2>=0.000
     310 -> 316       -0.17774
     312 -> 314        0.68635
     310 <- 316       -0.10765

 Excited State   3:      Singlet-A      2.1913 eV  565.80 nm  f=0.1254  <S**2>=0.000
     309 -> 313        0.64543
     311 -> 315       -0.25764

 Excited State   4:      Singlet-A      2.2114 eV  560.66 nm  f=0.1395  <S**2>=0.000
     310 -> 314        0.65075
     312 -> 316        0.26506

 Excited State   5:      Singlet-A      2.9920 eV  414.39 nm  f=0.0000  <S**2>=0.000
     312 -> 313        0.70711

 The electronic state is 1-A.
 Alpha  occ. eigenvalues --  -46.88585 -46.87953 -19.23856 -19.22195 -19.19936
 Alpha  occ. eigenvalues --  -19.19611 -19.19124 -19.18963 -19.18882 -19.17978
 Alpha  occ. eigenvalues --  -14.42586 -14.42204 -14.42022 -14.41335 -14.40297
 Alpha  occ. eigenvalues --  -14.39642 -14.38863 -14.38608 -10.38989 -10.38133
 Alpha  occ. eigenvalues --  -10.35359 -10.35282 -10.34784 -10.34230 -10.31854
 Alpha  occ. eigenvalues --  -10.31313 -10.31218 -10.31075 -10.31058 -10.30926
 Alpha  occ. eigenvalues --  -10.30880 -10.30785 -10.30643 -10.30494 -10.30382
 Alpha  occ. eigenvalues --  -10.30305 -10.30203 -10.30120 -10.30118 -10.29556
 Alpha  occ. eigenvalues --  -10.29395 -10.29313 -10.29263 -10.29104 -10.28922
 Alpha  occ. eigenvalues --  -10.28873 -10.28777 -10.28583 -10.28502 -10.28281
 Alpha  occ. eigenvalues --  -10.28276 -10.27886 -10.27777 -10.27764 -10.27738
 Alpha  occ. eigenvalues --  -10.27682 -10.27636 -10.27496 -10.27336 -10.27199
 Alpha  occ. eigenvalues --  -10.27188 -10.27009 -10.26957 -10.26836 -10.26794
 Alpha  occ. eigenvalues --  -10.26782 -10.26766 -10.26754 -10.26720 -10.26564
 Alpha  occ. eigenvalues --  -10.26516 -10.26507 -10.26484 -10.26212 -10.26168
 Alpha  occ. eigenvalues --  -10.26006 -10.25905 -10.25895 -10.25849 -10.25725
 Alpha  occ. eigenvalues --  -10.25614 -10.25579 -10.25564 -10.25349 -10.24721
 Alpha  occ. eigenvalues --  -10.24513  -3.17128  -3.16715  -1.92024  -1.91584
 Alpha  occ. eigenvalues --   -1.91564  -1.91453  -1.91180  -1.91032  -1.16802
 Alpha  occ. eigenvalues --   -1.15719  -1.11381  -1.10805  -1.09588  -1.08143
 Alpha  occ. eigenvalues --   -1.07743  -1.07480  -1.04660  -1.03822  -1.03460
 Alpha  occ. eigenvalues --   -1.03311  -1.02518  -1.02092  -1.01607  -1.00653
 Alpha  occ. eigenvalues --   -0.93030  -0.92616  -0.89214  -0.88945  -0.88646
 Alpha  occ. eigenvalues --   -0.88528  -0.88264  -0.88137  -0.87376  -0.87229
 Alpha  occ. eigenvalues --   -0.87162  -0.86860  -0.86703  -0.86036  -0.84252
 Alpha  occ. eigenvalues --   -0.83909  -0.83490  -0.83206  -0.82434  -0.82191
 Alpha  occ. eigenvalues --   -0.82064  -0.81920  -0.80894  -0.80724  -0.80253
 Alpha  occ. eigenvalues --   -0.80091  -0.78805  -0.78128  -0.77431  -0.76989
 Alpha  occ. eigenvalues --   -0.76721  -0.76657  -0.75558  -0.75289  -0.75260
 Alpha  occ. eigenvalues --   -0.74833  -0.73095  -0.72785  -0.71717  -0.71337
 Alpha  occ. eigenvalues --   -0.69658  -0.69356  -0.68765  -0.68719  -0.67974
 Alpha  occ. eigenvalues --   -0.67736  -0.67579  -0.66971  -0.65699  -0.65332
 Alpha  occ. eigenvalues --   -0.65059  -0.65024  -0.64623  -0.64429  -0.63914
 Alpha  occ. eigenvalues --   -0.63904  -0.61474  -0.60885  -0.60215  -0.60095
 Alpha  occ. eigenvalues --   -0.59488  -0.59429  -0.59028  -0.58834  -0.58488
 Alpha  occ. eigenvalues --   -0.58346  -0.58322  -0.57857  -0.57723  -0.56888
 Alpha  occ. eigenvalues --   -0.56533  -0.56144  -0.55783  -0.55602  -0.55314
 Alpha  occ. eigenvalues --   -0.55016  -0.54479  -0.54295  -0.54145  -0.53955
 Alpha  occ. eigenvalues --   -0.53674  -0.53655  -0.53293  -0.53023  -0.52699
 Alpha  occ. eigenvalues --   -0.52673  -0.52392  -0.52307  -0.52181  -0.51963
 Alpha  occ. eigenvalues --   -0.51636  -0.51631  -0.51392  -0.51352  -0.51216
 Alpha  occ. eigenvalues --   -0.51010  -0.50783  -0.50586  -0.50557  -0.50204
 Alpha  occ. eigenvalues --   -0.50154  -0.50032  -0.49816  -0.49815  -0.49689
 Alpha  occ. eigenvalues --   -0.49651  -0.49498  -0.49169  -0.48994  -0.48843
 Alpha  occ. eigenvalues --   -0.48615  -0.48563  -0.48421  -0.48105  -0.48046
 Alpha  occ. eigenvalues --   -0.47983  -0.47826  -0.47763  -0.47306  -0.47068
 Alpha  occ. eigenvalues --   -0.46978  -0.46859  -0.46769  -0.46517  -0.46353
 Alpha  occ. eigenvalues --   -0.46170  -0.46021  -0.45907  -0.45759  -0.45461
 Alpha  occ. eigenvalues --   -0.45430  -0.45315  -0.45303  -0.45190  -0.45055
 Alpha  occ. eigenvalues --   -0.45002  -0.44859  -0.44732  -0.44663  -0.44186
 Alpha  occ. eigenvalues --   -0.43995  -0.43827  -0.43691  -0.43541  -0.43491
 Alpha  occ. eigenvalues --   -0.43360  -0.43199  -0.43087  -0.42936  -0.42773
 Alpha  occ. eigenvalues --   -0.42564  -0.42537  -0.42086  -0.42010  -0.41830
 Alpha  occ. eigenvalues --   -0.41679  -0.41633  -0.41445  -0.41203  -0.41131
 Alpha  occ. eigenvalues --   -0.41051  -0.40962  -0.40791  -0.40662  -0.40488
 Alpha  occ. eigenvalues --   -0.40159  -0.39918  -0.39355  -0.39091  -0.38803
 Alpha  occ. eigenvalues --   -0.38737  -0.38116  -0.37847  -0.37768  -0.37712
 Alpha  occ. eigenvalues --   -0.37099  -0.37024  -0.36557  -0.36357  -0.36147
 Alpha  occ. eigenvalues --   -0.35748  -0.34945  -0.34652  -0.34483  -0.34110
 Alpha  occ. eigenvalues --   -0.33952  -0.33211  -0.32606  -0.31573  -0.31459
 Alpha  occ. eigenvalues --   -0.31327  -0.30846  -0.30583  -0.30124  -0.30056
 Alpha  occ. eigenvalues --   -0.29804  -0.29755  -0.29300  -0.24405  -0.23603
 Alpha  occ. eigenvalues --   -0.21490  -0.20975
 Alpha virt. eigenvalues --   -0.09311  -0.08548  -0.02200  -0.01145  -0.00263
 Alpha virt. eigenvalues --    0.00866   0.01913   0.02388   0.02451   0.02661
 Alpha virt. eigenvalues --    0.04930   0.05093   0.05326   0.05837   0.06320

 Mulliken charges:
               1
     1  Mg   0.825957
     2  C    0.028293
     3  C   -0.094181
     4  C   -0.058322
     5  C   -0.101663
     6  N   -0.299874
     7  C   -0.077952
     8  C    0.037523
     9  C   -0.089637
    10  C    0.070718
    11  C    0.065645
    12  C    0.032590
    13  C   -0.092731
    14  H    0.019533
    15  N   -0.403874
    16  C    0.188370
    17  C   -0.166137
    18  C    0.012020
    19  C    0.173242
    20  C    0.129749
    21  C   -0.020949
    22  O   -0.222337
    23  C    0.027941
    24  N   -0.333188
    25  C    0.018361
    26  C    0.006429
    27  C   -0.041494
    28  C    0.114555
    29  C    0.047026
    30  C    0.002769
    31  C   -0.000922
    32  N   -0.324954
    33  C    0.108880
    34  C   -0.169633
    35  C    0.001146
    36  C    0.101996
    37  C    0.151111
    38  C    0.020488
    39  O   -0.181746
    40  C   -0.047743
    41  C    0.190036
    42  O   -0.156548
    43  O   -0.359266
    44  C    0.189241
    45  H   -0.036584
    46  H   -0.001667
    47  H   -0.045768
    48  H    0.009261
    49  H    0.006926
    50  H    0.028688
    51  H    0.005716
    52  H    0.024045
    53  H    0.019484
    54  H    0.016439
    55  H    0.052505
    56  H    0.038974
    57  H    0.034347
    58  H    0.012943
    59  H    0.031442
    60  H    0.024689
    61  H    0.050716
    62  H    0.032357
    63  H    0.025040
    64  H    0.015902
    65  H    0.012306
    66  H    0.024145
    67  H    0.035878
    68  H    0.008776
    69  H    0.005450
    70  H    0.005622
    71  H    0.014993
    72  H    0.015318
    73  H    0.020594
    74  H    0.030249
    75  H    0.042918
    76  H    0.023835
    77  H    0.031522
    78  H    0.021529
    79  H    0.040944
    80  Mg   0.840123
    81  C   -0.023632
    82  C   -0.059940
    83  C   -0.059510
    84  C   -0.088242
    85  N   -0.312900
    86  C   -0.052850
    87  C    0.013294
    88  C   -0.070185
    89  C    0.084873
    90  C    0.032869
    91  C    0.022268
    92  C   -0.067092
    93  H    0.013119
    94  N   -0.403462
    95  C    0.093545
    96  C   -0.114427
    97  C   -0.089675
    98  C    0.139396
    99  C    0.129794
   100  C   -0.007905
   101  O   -0.175140
   102  C    0.037059
   103  N   -0.268511
   104  C    0.008197
   105  C    0.022473
   106  C   -0.064390
   107  C   -0.003230
   108  C    0.067811
   109  C    0.012965
   110  C    0.024889
   111  N   -0.316141
   112  C    0.150936
   113  C   -0.226516
   114  C    0.063300
   115  C    0.099555
   116  C    0.138230
   117  C    0.034470
   118  O   -0.135687
   119  C   -0.039675
   120  C    0.217466
   121  O   -0.203409
   122  O   -0.356827
   123  C    0.167138
   124  H   -0.052226
   125  H   -0.001817
   126  H   -0.022096
   127  H    0.024669
   128  H    0.022120
   129  H    0.009515
   130  H    0.028701
   131  H    0.021750
   132  H    0.009425
   133  H    0.037186
   134  H    0.040136
   135  H    0.040317
   136  H    0.035108
   137  H    0.015715
   138  H    0.025421
   139  H    0.055342
   140  H    0.027337
   141  H    0.014959
   142  H    0.011959
   143  H    0.007794
   144  H    0.012417
   145  H    0.017599
   146  H    0.029890
   147  H    0.004769
   148  H    0.008069
   149  H    0.011356
   150  H    0.020282
   151  H    0.015882
   152  H    0.034515
   153  H    0.007364
   154  H    0.021778
   155  H    0.051794
   156  H    0.045616
   157  H    0.055988
   158  H    0.036944
 Sum of Mulliken charges =  -0.00000

 Dipole moment (field-independent basis, Debye):
    X=              0.8103    Y=              0.0804    Z=              1.8564  Tot=              2.0271
 Quadrupole moment (field-independent basis, Debye-Ang):
   XX=           -816.3056   YY=           -478.5474   ZZ=           -519.9331
   XY=            -26.7716   XZ=           -170.5536   YZ=            -10.1375

 Normal termination of Gaussian 16 at Thu Sep 16 08:59:30 2021.
