 Gaussian 16, Revision A.03,
 Gaussian 16:  ES64L-G16RevA.03 25-Dec-2016

 ----------------------------------------------------------
 #p cam-b3lyp/Def2SVP td=(nstates=5) density=(transition=1)
 ----------------------------------------------------------

 --------------------------------
 TDDFT excited states in gaussian
 --------------------------------
 Symbolic Z-matrix:
 Charge =  0 Multiplicity = 1

                         Standard orientation:
 ---------------------------------------------------------------------
 Center     Atomic      Atomic             Coordinates (Angstroms)
 Number     Number       Type             X           Y           Z
 ---------------------------------------------------------------------
      1         12           0       -0.792685    0.027477    0.197632
      2          6           0        2.739067    0.258241    0.193622
      3          6           0       -0.478202   -3.321995   -0.069584
      4          6           0       -4.060922   -0.113782    0.067336
      5          6           0       -0.860885    3.583537   -0.268871
      6          7           0        0.956791   -1.418346   -0.032218
      7          6           0        2.265363   -1.069064    0.256600
      8          6           0        3.017046   -2.340307    0.458409
      9          6           0        2.135355   -3.418882   -0.171761
     10          6           0        0.752389   -2.726172   -0.084245
     11          6           0        2.537171   -3.667390   -1.673924
     12          6           0        3.421376   -2.715688    1.984250
     13          6           0        4.835393   -3.286983    2.309876
     14          1           0        5.329071   -4.475766    1.435498
     15          7           0       -2.079721   -1.554986    0.006845
     16          6           0       -1.751482   -2.811118   -0.067100
     17          6           0       -2.984887   -3.602090   -0.219962
     18          6           0       -4.083420   -2.725268    0.031343
     19          6           0       -3.436739   -1.382383    0.020732
     20          6           0       -3.136751   -5.133261   -0.542235
     21          6           0       -5.572910   -2.995460    0.241775
     22          8           0       -6.440450   -2.106233    0.335621
     23          6           0       -6.049640   -4.364869    0.123847
     24          7           0       -2.258486    1.579941   -0.246117
     25          6           0       -3.603737    1.243297   -0.120616
     26          6           0       -4.461398    2.567058   -0.102602
     27          6           0       -3.389383    3.684759   -0.069394
     28          6           0       -2.070424    2.914047   -0.160217
     29          6           0       -5.498722    2.622389   -1.224418
     30          6           0       -3.495588    4.700064    1.096237
     31          6           0       -3.204694    6.186856    0.785453
     32          7           0        0.599459    1.625570   -0.017687
     33          6           0        0.438229    2.988125   -0.248220
     34          6           0        1.726833    3.625070   -0.149425
     35          6           0        2.655227    2.589201   -0.035385
     36          6           0        1.942126    1.362241    0.057778
     37          6           0        1.992071    5.003445   -0.147228
     38          6           0        4.078542    2.256440    0.124109
     39          8           0        5.086366    2.940818    0.203472
     40          6           0        4.176509    0.706377    0.306016
     41          6           0        5.106087    0.183391   -0.774545
     42          8           0        4.945777   -0.119339   -1.935260
     43          8           0        6.267145    0.004921   -0.079379
     44          6           0        7.328889   -0.815881   -0.709037
     45          1           0       -0.393740   -4.411069   -0.067226
     46          1           0       -5.136374   -0.207515    0.231476
     47          1           0       -0.870385    4.671752   -0.183834
     48          1           0        3.990473   -2.402801   -0.028680
     49          1           0        2.047089   -4.308002    0.452083
     50          1           0        2.391540   -4.694760   -2.005986
     51          1           0        3.602737   -3.533607   -1.862006
     52          1           0        1.867191   -3.030569   -2.250566
     53          1           0        2.642242   -3.341004    2.418928
     54          1           0        3.328453   -1.829556    2.613231
     55          1           0        4.687698   -3.705592    3.306054
     56          1           0        5.453655   -2.391992    2.239865
     57          1           0       -3.521979   -5.746023    0.272448
     58          1           0       -2.148345   -5.495352   -0.826546
     59          1           0       -3.872413   -5.375891   -1.309113
     60          1           0       -5.499378   -5.027991    0.791887
     61          1           0       -5.955588   -4.720751   -0.902196
     62          1           0       -7.055672   -4.384019    0.541790
     63          1           0       -4.927319    2.606466    0.882127
     64          1           0       -3.358151    4.213590   -1.021806
     65          1           0       -5.046891    3.080971   -2.104610
     66          1           0       -6.358893    3.257736   -1.015788
     67          1           0       -5.684587    1.611071   -1.584561
     68          1           0       -2.930542    4.417372    1.984307
     69          1           0       -4.494851    4.687103    1.533516
     70          1           0       -2.168278    6.323434    1.094487
     71          1           0       -3.838791    6.742261    1.477248
     72          1           0       -3.359719    6.387038   -0.274379
     73          1           0        2.978263    5.369815   -0.431463
     74          1           0        1.710673    5.373250    0.839257
     75          1           0        1.327476    5.423577   -0.901281
     76          1           0        4.554814    0.470665    1.300545
     77          1           0        7.693187   -1.454979    0.094777
     78          1           0        8.185846   -0.272811   -1.106726
     79          1           0        6.899381   -1.446012   -1.487414
 ---------------------------------------------------------------------

 SCF Done:  E(RCAM-B3LYP) =  -2034.89976312     A.U. after   17 cycles

 Excitation energies and oscillator strengths:

 Excited State   1:      Singlet-A      1.7330 eV  715.44 nm  f=0.3845  <S**2>=0.000
     155 ->158         0.19070
     156 ->157         0.68150
     155 <-158         0.10762
 This state for optimization and/or second-order correction.
 Total Energy, E(TD-HF/TD-DFT) =  -2034.83607705
 Copying the excited state density for this state as the 1-particle RhoCI density.

 Excited State   2:      Singlet-A      2.2617 eV  548.19 nm  f=0.0688  <S**2>=0.000
     155 ->157         0.62172
     156 ->158        -0.32229

 Excited State   3:      Singlet-A      3.3923 eV  365.49 nm  f=0.1185  <S**2>=0.000
     154 ->157         0.58749
     155 ->157         0.13348
     156 ->158         0.34577

 Excited State   4:      Singlet-A      3.4974 eV  354.50 nm  f=0.4952  <S**2>=0.000
     152 ->157         0.21596
     154 ->157        -0.34589
     155 ->157         0.26492
     156 ->158         0.48656

 Excited State   5:      Singlet-A      3.5459 eV  349.66 nm  f=0.0146  <S**2>=0.000
     153 ->157         0.56303
     153 ->159         0.25909
     153 ->160        -0.14534
     153 ->161         0.24263

 The electronic state is 1-A.
 Alpha  occ. eigenvalues --  -46.89370 -19.24359 -19.20031 -19.19257 -19.18682
 Alpha  occ. eigenvalues --  -14.41777 -14.41425 -14.39858 -14.38955 -10.39233
 Alpha  occ. eigenvalues --  -10.35524 -10.34815 -10.31699 -10.31453 -10.30813
 Alpha  occ. eigenvalues --  -10.30750 -10.30341 -10.30042 -10.29987 -10.29866
 Alpha  occ. eigenvalues --  -10.29543 -10.29454 -10.28212 -10.27918 -10.27897
 Alpha  occ. eigenvalues --  -10.27711 -10.27667 -10.27582 -10.27532 -10.27482
 Alpha  occ. eigenvalues --  -10.27354 -10.27315 -10.27183 -10.26690 -10.26540
 Alpha  occ. eigenvalues --  -10.26372 -10.26206 -10.26050 -10.25804 -10.25712
 Alpha  occ. eigenvalues --  -10.25627 -10.25257 -10.24796  -3.17757  -1.92655
 Alpha  occ. eigenvalues --   -1.92214  -1.92049  -1.16115  -1.09590  -1.09364
 Alpha  occ. eigenvalues --   -1.07760  -1.05152  -1.03940  -1.03054  -1.02069
 Alpha  occ. eigenvalues --   -0.92766  -0.88880  -0.88477  -0.87985  -0.87562
 Alpha  occ. eigenvalues --   -0.87126  -0.86884  -0.84232  -0.83591  -0.82731
 Alpha  occ. eigenvalues --   -0.82467  -0.81501  -0.80595  -0.78386  -0.77450
 Alpha  occ. eigenvalues --   -0.77032  -0.75860  -0.75117  -0.72507  -0.71816
 Alpha  occ. eigenvalues --   -0.68896  -0.68752  -0.67697  -0.67364  -0.65475
 Alpha  occ. eigenvalues --   -0.65309  -0.65047  -0.64327  -0.61937  -0.60481
 Alpha  occ. eigenvalues --   -0.59604  -0.59233  -0.58319  -0.57942  -0.57500
 Alpha  occ. eigenvalues --   -0.56152  -0.55896  -0.55202  -0.54462  -0.53698
 Alpha  occ. eigenvalues --   -0.53566  -0.53245  -0.53223  -0.52948  -0.52427
 Alpha  occ. eigenvalues --   -0.52120  -0.51684  -0.51568  -0.51203  -0.50798
 Alpha  occ. eigenvalues --   -0.50413  -0.49976  -0.49607  -0.49358  -0.48982
 Alpha  occ. eigenvalues --   -0.48835  -0.48176  -0.47660  -0.47389  -0.47131
 Alpha  occ. eigenvalues --   -0.46893  -0.46648  -0.46254  -0.45919  -0.45548
 Alpha  occ. eigenvalues --   -0.45031  -0.44926  -0.44691  -0.44351  -0.44046
 Alpha  occ. eigenvalues --   -0.43847  -0.43683  -0.43017  -0.42965  -0.42720
 Alpha  occ. eigenvalues --   -0.42304  -0.42161  -0.41915  -0.41539  -0.41238
 Alpha  occ. eigenvalues --   -0.40866  -0.40551  -0.40247  -0.39853  -0.39611
 Alpha  occ. eigenvalues --   -0.38774  -0.37664  -0.37393  -0.36524  -0.36449
 Alpha  occ. eigenvalues --   -0.35928  -0.34663  -0.33898  -0.33101  -0.31687
 Alpha  occ. eigenvalues --   -0.31170  -0.30558  -0.30462  -0.29258  -0.23969
 Alpha  occ. eigenvalues --   -0.20969
 Alpha virt. eigenvalues --   -0.08277  -0.02058  -0.00136   0.01752   0.02320
 Alpha virt. eigenvalues --    0.05197   0.05781   0.05969   0.07299   0.07543
 Alpha virt. eigenvalues --    0.08502   0.08979   0.09271   0.09757   0.10523

 Mulliken charges:
               1
     1  Mg  12.001762
     2  C    5.978939
     3  C    6.027876
     4  C    6.018043
     5  C    5.979316
     6  N    7.003436
     7  C    6.033051
     8  C    5.989874
     9  C    6.003980
    10  C    5.966688
    11  C    5.999007
    12  C    5.995805
    13  C    5.998897
    14  H    1.008326
    15  N    7.012437
    16  C    5.952757
    17  C    5.975959
    18  C    5.989024
    19  C    5.960027
    20  C    6.003313
    21  C    5.986568
    22  O    7.973968
    23  C    6.006858
    24  N    6.995137
    25  C    5.960372
    26  C    6.010031
    27  C    5.991592
    28  C    6.032854
    29  C    6.004533
    30  C    5.994649
    31  C    6.000031
    32  N    6.993671
    33  C    6.043833
    34  C    6.026972
    35  C    6.005461
    36  C    6.036504
    37  C    5.993452
    38  C    6.016668
    39  O    8.030451
    40  C    6.001898
    41  C    6.001683
    42  O    8.008529
    43  O    7.999542
    44  C    5.996708
    45  H    0.994545
    46  H    0.992556
    47  H    1.006098
    48  H    1.004257
    49  H    1.002536
    50  H    1.002597
    51  H    0.987950
    52  H    1.000370
    53  H    1.015317
    54  H    0.996852
    55  H    1.004105
    56  H    0.994960
    57  H    0.979032
    58  H    0.980601
    59  H    0.981696
    60  H    0.993739
    61  H    0.992226
    62  H    0.985169
    63  H    0.997009
    64  H    0.998699
    65  H    0.989789
    66  H    0.992011
    67  H    1.006671
    68  H    1.000060
    69  H    1.010681
    70  H    0.992543
    71  H    1.003872
    72  H    1.001982
    73  H    1.016697
    74  H    1.023043
    75  H    1.018410
    76  H    1.008784
    77  H    1.005329
    78  H    1.003692
    79  H    1.005642
 Sum of Mulliken charges = 312.00000

 Dipole moment (field-independent basis, Debye):
    X=              8.1293    Y=              7.1281    Z=              0.3350  Tot=             10.8170
 Quadrupole moment (field-independent basis, Debye-Ang):
   XX=             -9.0814   YY=             -0.0273   ZZ=              0.2868
   XY=             -7.0769   XZ=             -0.0420   YZ=             -1.2073

 Normal termination of Gaussian 16 at Fri Oct  8 16:58:17 2021.
