 Gaussian 16, Revision A.03,
 Gaussian 16:  ES64L-G16RevA.03 25-Dec-2016

 ----------------------------------------------------------
 #p cam-b3lyp/Def2SVP td=(nstates=5) density=(transition=1)
 ----------------------------------------------------------

 --------------------------------
 TDDFT excited states in gaussian
 --------------------------------
 Symbolic Z-matrix:
 Charge =  0 Multiplicity = 1

                         Standard orientation:
 ---------------------------------------------------------------------
 Center     Atomic      Atomic             Coordinates (Angstroms)
 Number     Number       Type             X           Y           Z
 ---------------------------------------------------------------------
      1         12           0       12.748417    0.416235    0.279258
      2          6           0        9.356294   -0.390119   -0.289225
      3          6           0       13.300902    0.497690   -2.970753
      4          6           0       16.090077    0.285567    0.978592
      5          6           0       12.188328   -0.741149    3.746527
      6          7           0       11.438945    0.023996   -1.415386
      7          6           0       10.091656   -0.039561   -1.422943
      8          6           0        9.584992    0.156815   -2.865268
      9          6           0       10.799952    0.455382   -3.683847
     10          6           0       11.958612    0.284612   -2.655255
     11          6           0       10.854686   -0.372723   -5.032375
     12          6           0        8.404690    1.154842   -3.112632
     13          6           0        8.305965    2.051178   -4.420625
     14          1           0        6.949830    2.159819   -5.133023
     15          7           0       14.440375    0.644762   -0.854808
     16          6           0       14.450116    0.666393   -2.231216
     17          6           0       15.804163    0.886114   -2.653558
     18          6           0       16.699932    0.794522   -1.517912
     19          6           0       15.759149    0.514359   -0.410865
     20          6           0       16.070775    0.994502   -4.100249
     21          6           0       18.231284    1.002481   -1.417149
     22          8           0       18.789828    0.836802   -0.383187
     23          6           0       18.980988    1.649399   -2.535897
     24          7           0       13.945019   -0.213291    2.120058
     25          6           0       15.282171   -0.015772    2.091317
     26          6           0       15.949704   -0.316402    3.471353
     27          6           0       14.717773   -0.608015    4.381746
     28          6           0       13.527127   -0.542259    3.393392
     29          6           0       16.945810   -1.445343    3.481349
     30          6           0       14.471801    0.328043    5.616365
     31          6           0       13.871518    1.676005    5.400173
     32          7           0       11.182417   -0.389431    1.577562
     33          6           0       11.121318   -0.729730    2.898525
     34          6           0        9.754284   -1.024364    3.252746
     35          6           0        8.994218   -0.917848    2.058320
     36          6           0        9.926019   -0.573088    1.058266
     37          6           0        9.239245   -1.538395    4.550698
     38          6           0        7.697306   -1.061260    1.460947
     39          8           0        6.588819   -1.330341    1.909415
     40          6           0        7.859087   -0.678343   -0.078391
     41          6           0        7.243505   -1.705552   -1.013495
     42          8           0        7.642389   -2.836030   -1.125081
     43          8           0        6.209252   -1.114897   -1.721954
     44          6           0        5.527469   -2.039898   -2.627991
     45          1           0       13.536736    0.743380   -4.008658
     46          1           0       17.170963    0.311082    1.130087
     47          1           0       11.999111   -0.981209    4.794780
     48          1           0        9.171880   -0.839893   -3.020297
     49          1           0       10.717813    1.487859   -4.024583
     50          1           0        9.913638   -0.905594   -5.167692
     51          1           0       11.768938   -0.965957   -5.016787
     52          1           0       10.859393    0.286130   -5.900900
     53          1           0        8.409040    1.852405   -2.274724
     54          1           0        7.434665    0.662361   -3.039827
     55          1           0        9.046859    1.622259   -5.095612
     56          1           0        8.640015    3.061222   -4.182999
     57          1           0       17.032889    0.507046   -4.256187
     58          1           0       16.196285    2.053650   -4.321954
     59          1           0       15.376773    0.607115   -4.846352
     60          1           0       19.299169    0.790748   -3.125704
     61          1           0       19.752066    2.297930   -2.118908
     62          1           0       18.370632    2.233186   -3.225277
     63          1           0       16.394433    0.576910    3.910346
     64          1           0       14.573342   -1.608335    4.788706
     65          1           0       17.200357   -1.761771    2.468991
     66          1           0       16.554673   -2.336387    3.973136
     67          1           0       17.825263   -1.052811    3.991216
     68          1           0       15.410918    0.489494    6.145713
     69          1           0       13.925074   -0.249319    6.362257
     70          1           0       14.047236    1.996416    4.373074
     71          1           0       14.221878    2.545093    5.957427
     72          1           0       12.823093    1.562170    5.677583
     73          1           0        9.664246   -2.490356    4.867579
     74          1           0        8.227319   -1.885039    4.339587
     75          1           0        9.294800   -0.784351    5.336318
     76          1           0        7.362253    0.285065   -0.194610
     77          1           0        5.924443   -1.497568   -3.485564
     78          1           0        4.472778   -1.846919   -2.433238
     79          1           0        5.851530   -3.074202   -2.510662
     80         12           0      -12.293486   -0.567426   -0.531204
     81          6           0      -12.290554    2.925481    0.272535
     82          6           0       -8.816048   -0.263618   -1.109305
     83          6           0      -12.092318   -3.917017   -0.538931
     84          6           0      -15.504978   -0.760106    0.718824
     85          7           0      -10.701794    1.141071   -0.445797
     86          6           0      -11.008401    2.415467   -0.058387
     87          6           0       -9.726921    3.194885    0.190944
     88          6           0       -8.711140    2.217544   -0.535954
     89          6           0       -9.395812    0.918987   -0.733412
     90          6           0       -8.101416    2.698580   -1.895398
     91          6           0       -9.560603    3.481011    1.717904
     92          6           0       -9.124334    4.922841    2.207369
     93          1           0       -7.803740    5.099484    2.978212
     94          7           0      -10.802087   -1.878524   -0.954379
     95          6           0       -9.431856   -1.586057   -1.184397
     96          6           0       -8.695721   -2.801311   -1.480064
     97          6           0       -9.671066   -3.864745   -1.300136
     98          6           0      -10.913650   -3.215952   -0.925719
     99          6           0       -7.243637   -2.789676   -1.719819
    100          6           0       -9.334856   -5.349676   -1.522161
    101          8           0       -8.123637   -5.617879   -1.772924
    102          6           0      -10.344587   -6.515625   -1.464761
    103          7           0      -13.507523   -2.213117    0.259468
    104          6           0      -13.290712   -3.482499   -0.026864
    105          6           0      -14.424033   -4.291762    0.515827
    106          6           0      -15.514942   -3.239662    0.850679
    107          6           0      -14.774414   -1.948816    0.681224
    108          6           0      -15.008960   -5.503958   -0.327811
    109          6           0      -16.184274   -3.381188    2.313860
    110          6           0      -17.690985   -3.725589    2.406915
    111          7           0      -13.694463    0.761012    0.125184
    112          6           0      -14.936642    0.554704    0.594243
    113          6           0      -15.562866    1.771110    0.963138
    114          6           0      -14.561074    2.731435    0.804240
    115          6           0      -13.404738    2.064827    0.325929
    116          6           0      -16.937546    2.054303    1.419544
    117          6           0      -14.330331    4.129015    1.003221
    118          8           0      -15.079872    4.957664    1.469135
    119          6           0      -12.715029    4.313042    0.680984
    120          6           0      -12.531233    5.272253   -0.414637
    121          8           0      -13.199502    5.312225   -1.455472
    122          8           0      -11.467567    6.075212   -0.061947
    123          6           0      -11.100007    7.121700   -1.014345
    124          1           0       -7.743066   -0.234402   -1.304992
    125          1           0      -12.058457   -5.002083   -0.423889
    126          1           0      -16.581432   -0.733883    0.901534
    127          1           0       -9.782370    4.081706   -0.440907
    128          1           0       -8.016426    2.084381    0.294179
    129          1           0       -8.340232    1.941462   -2.643656
    130          1           0       -7.015734    2.792783   -1.889669
    131          1           0       -8.522188    3.619008   -2.301350
    132          1           0       -8.774930    2.760888    1.945382
    133          1           0      -10.405338    3.206131    2.349139
    134          1           0       -9.961921    5.272943    2.810396
    135          1           0       -9.190417    5.601159    1.357254
    136          1           0       -6.799467   -2.259971   -0.876743
    137          1           0       -7.017168   -2.189393   -2.600751
    138          1           0       -6.755545   -3.738401   -1.944483
    139          1           0      -10.623998   -6.666156   -0.421860
    140          1           0       -9.903188   -7.278931   -2.104724
    141          1           0      -11.197458   -6.118676   -2.016377
    142          1           0      -14.054808   -4.773289    1.420468
    143          1           0      -16.163452   -3.308964   -0.022758
    144          1           0      -15.392608   -6.193763    0.424327
    145          1           0      -14.205171   -5.922684   -0.933162
    146          1           0      -15.828122   -5.098463   -0.921909
    147          1           0      -15.973343   -2.420651    2.783652
    148          1           0      -15.570175   -4.076259    2.886300
    149          1           0      -18.234566   -3.063705    3.079783
    150          1           0      -17.790095   -4.758085    2.742969
    151          1           0      -18.198403   -3.735907    1.442099
    152          1           0      -17.191219    3.107990    1.307778
    153          1           0      -16.806611    1.756113    2.459916
    154          1           0      -17.583344    1.255515    1.055097
    155          1           0      -12.151593    4.522949    1.589443
    156          1           0      -11.960643    7.725684   -1.302660
    157          1           0      -10.634962    6.673101   -1.893416
    158          1           0      -10.382623    7.789575   -0.537417
 ---------------------------------------------------------------------

 SCF Done:  E(RCAM-B3LYP) =  -4069.77667489     A.U. after   16 cycles

 Excitation energies and oscillator strengths:

 Excited State   1:      Singlet-A      1.6976 eV  730.34 nm  f=0.5724  <S**2>=0.000
     309 -> 315        0.16196
     311 -> 313        0.60025
     312 -> 314        0.33028
 This state for optimization and/or second-order correction.
 Total Energy, E(TD-HF/TD-DFT) =  -4069.71428842
 Copying the excited state density for this state as the 1-particle RhoCI density.

 Excited State   2:      Singlet-A      1.7030 eV  728.05 nm  f=0.2113  <S**2>=0.000
     310 -> 316       -0.16406
     311 -> 313       -0.33081
     312 -> 314        0.59880

 Excited State   3:      Singlet-A      2.1898 eV  566.19 nm  f=0.1109  <S**2>=0.000
     310 -> 314        0.64224
     312 -> 316        0.28256

 Excited State   4:      Singlet-A      2.2523 eV  550.47 nm  f=0.1324  <S**2>=0.000
     309 -> 313        0.64089
     311 -> 315       -0.28921

 Excited State   5:      Singlet-A      2.9360 eV  422.29 nm  f=0.0000  <S**2>=0.000
     312 -> 313        0.70706

 The electronic state is 1-A.
 Alpha  occ. eigenvalues --  -46.89992 -46.88842 -19.26227 -19.24721 -19.20510
 Alpha  occ. eigenvalues --  -19.20011 -19.19682 -19.19577 -19.18626 -19.18058
 Alpha  occ. eigenvalues --  -14.42213 -14.41868 -14.41779 -14.41336 -14.39867
 Alpha  occ. eigenvalues --  -14.39762 -14.39494 -14.38806 -10.40047 -10.39104
 Alpha  occ. eigenvalues --  -10.35726 -10.35389 -10.35171 -10.34793 -10.32412
 Alpha  occ. eigenvalues --  -10.31624 -10.31236 -10.31123 -10.31123 -10.30883
 Alpha  occ. eigenvalues --  -10.30709 -10.30709 -10.30573 -10.30362 -10.30337
 Alpha  occ. eigenvalues --  -10.30263 -10.30246 -10.29689 -10.29595 -10.29444
 Alpha  occ. eigenvalues --  -10.29016 -10.29012 -10.28874 -10.28673 -10.28671
 Alpha  occ. eigenvalues --  -10.28587 -10.28497 -10.28179 -10.28039 -10.28034
 Alpha  occ. eigenvalues --  -10.27925 -10.27826 -10.27710 -10.27654 -10.27556
 Alpha  occ. eigenvalues --  -10.27555 -10.27530 -10.27454 -10.27427 -10.27403
 Alpha  occ. eigenvalues --  -10.27379 -10.27363 -10.27294 -10.27172 -10.27134
 Alpha  occ. eigenvalues --  -10.27024 -10.26929 -10.26784 -10.26728 -10.26719
 Alpha  occ. eigenvalues --  -10.26604 -10.26562 -10.26532 -10.26371 -10.26348
 Alpha  occ. eigenvalues --  -10.26343 -10.26256 -10.26179 -10.26130 -10.26021
 Alpha  occ. eigenvalues --  -10.25388 -10.25102 -10.24973 -10.24965 -10.24876
 Alpha  occ. eigenvalues --  -10.24498  -3.18301  -3.17396  -1.93174  -1.92765
 Alpha  occ. eigenvalues --   -1.92592  -1.92286  -1.91840  -1.91713  -1.16497
 Alpha  occ. eigenvalues --   -1.16275  -1.12897  -1.10763  -1.09204  -1.08524
 Alpha  occ. eigenvalues --   -1.08121  -1.07167  -1.05388  -1.04662  -1.04219
 Alpha  occ. eigenvalues --   -1.03676  -1.03138  -1.02480  -1.02274  -1.01833
 Alpha  occ. eigenvalues --   -0.93119  -0.91609  -0.89305  -0.89264  -0.88878
 Alpha  occ. eigenvalues --   -0.88255  -0.88220  -0.88066  -0.87909  -0.87410
 Alpha  occ. eigenvalues --   -0.87368  -0.87171  -0.86091  -0.85937  -0.84574
 Alpha  occ. eigenvalues --   -0.84002  -0.83799  -0.83655  -0.82668  -0.82526
 Alpha  occ. eigenvalues --   -0.81995  -0.81948  -0.81305  -0.80834  -0.80420
 Alpha  occ. eigenvalues --   -0.80396  -0.78283  -0.78159  -0.77587  -0.77156
 Alpha  occ. eigenvalues --   -0.77097  -0.76810  -0.76241  -0.75847  -0.75281
 Alpha  occ. eigenvalues --   -0.74647  -0.73132  -0.72324  -0.72151  -0.71465
 Alpha  occ. eigenvalues --   -0.69814  -0.69753  -0.69325  -0.69274  -0.68415
 Alpha  occ. eigenvalues --   -0.68200  -0.66904  -0.66684  -0.66093  -0.65573
 Alpha  occ. eigenvalues --   -0.65054  -0.64916  -0.64698  -0.64302  -0.64137
 Alpha  occ. eigenvalues --   -0.64006  -0.62906  -0.61692  -0.60081  -0.60025
 Alpha  occ. eigenvalues --   -0.59838  -0.59549  -0.59484  -0.58856  -0.58801
 Alpha  occ. eigenvalues --   -0.58370  -0.58343  -0.57992  -0.57530  -0.57383
 Alpha  occ. eigenvalues --   -0.56182  -0.56140  -0.55926  -0.55875  -0.55593
 Alpha  occ. eigenvalues --   -0.55383  -0.55048  -0.54797  -0.54579  -0.54443
 Alpha  occ. eigenvalues --   -0.54055  -0.53721  -0.53629  -0.53343  -0.53233
 Alpha  occ. eigenvalues --   -0.52875  -0.52761  -0.52564  -0.52372  -0.52037
 Alpha  occ. eigenvalues --   -0.51722  -0.51708  -0.51346  -0.51191  -0.51170
 Alpha  occ. eigenvalues --   -0.50928  -0.50826  -0.50617  -0.50515  -0.50295
 Alpha  occ. eigenvalues --   -0.50279  -0.50029  -0.49965  -0.49909  -0.49513
 Alpha  occ. eigenvalues --   -0.49504  -0.49345  -0.49200  -0.48979  -0.48766
 Alpha  occ. eigenvalues --   -0.48725  -0.48592  -0.48404  -0.48337  -0.47878
 Alpha  occ. eigenvalues --   -0.47692  -0.47684  -0.47583  -0.47523  -0.47390
 Alpha  occ. eigenvalues --   -0.47203  -0.47135  -0.46964  -0.46760  -0.46579
 Alpha  occ. eigenvalues --   -0.46393  -0.46069  -0.46022  -0.45864  -0.45776
 Alpha  occ. eigenvalues --   -0.45554  -0.45552  -0.45425  -0.45316  -0.44915
 Alpha  occ. eigenvalues --   -0.44625  -0.44560  -0.44474  -0.44329  -0.44083
 Alpha  occ. eigenvalues --   -0.43716  -0.43713  -0.43639  -0.43595  -0.43493
 Alpha  occ. eigenvalues --   -0.43243  -0.43213  -0.43024  -0.42995  -0.42924
 Alpha  occ. eigenvalues --   -0.42888  -0.42740  -0.42607  -0.42338  -0.42263
 Alpha  occ. eigenvalues --   -0.42032  -0.41824  -0.41464  -0.41460  -0.41164
 Alpha  occ. eigenvalues --   -0.41033  -0.40872  -0.40783  -0.40592  -0.40265
 Alpha  occ. eigenvalues --   -0.40167  -0.40127  -0.39192  -0.38963  -0.38858
 Alpha  occ. eigenvalues --   -0.38681  -0.38179  -0.38118  -0.37908  -0.37672
 Alpha  occ. eigenvalues --   -0.37570  -0.37383  -0.36899  -0.36382  -0.35895
 Alpha  occ. eigenvalues --   -0.35786  -0.35715  -0.35137  -0.34610  -0.34046
 Alpha  occ. eigenvalues --   -0.33554  -0.33149  -0.32951  -0.31791  -0.31265
 Alpha  occ. eigenvalues --   -0.31066  -0.30834  -0.30604  -0.30257  -0.30046
 Alpha  occ. eigenvalues --   -0.29828  -0.29340  -0.29299  -0.24105  -0.23821
 Alpha  occ. eigenvalues --   -0.21246  -0.21052
 Alpha virt. eigenvalues --   -0.08862  -0.08639  -0.01666  -0.01622   0.00316
 Alpha virt. eigenvalues --    0.00349   0.01155   0.02359   0.02490   0.02517
 Alpha virt. eigenvalues --    0.04302   0.04504   0.05087   0.05701   0.05902

 Mulliken charges:
               1
     1  Mg  12.000862
     2  C    6.015081
     3  C    5.992688
     4  C    5.989291
     5  C    6.003565
     6  N    7.007021
     7  C    5.980674
     8  C    6.003538
     9  C    5.993612
    10  C    6.016888
    11  C    6.000057
    12  C    6.000557
    13  C    5.998996
    14  H    1.000621
    15  N    6.994716
    16  C    6.021221
    17  C    6.008988
    18  C    6.009408
    19  C    6.016588
    20  C    5.996082
    21  C    6.006578
    22  O    8.012494
    23  C    5.997554
    24  N    6.999270
    25  C    6.015178
    26  C    5.993711
    27  C    6.001885
    28  C    5.986697
    29  C    5.999678
    30  C    6.002633
    31  C    6.003986
    32  N    7.002251
    33  C    5.982281
    34  C    5.981870
    35  C    5.999955
    36  C    5.981418
    37  C    6.002008
    38  C    5.993312
    39  O    7.985148
    40  C    5.998038
    41  C    5.997915
    42  O    7.998355
    43  O    7.999294
    44  C    6.000868
    45  H    1.004384
    46  H    1.002613
    47  H    0.994330
    48  H    1.000846
    49  H    1.002680
    50  H    1.005599
    51  H    0.998323
    52  H    1.001479
    53  H    1.001382
    54  H    1.001553
    55  H    0.996515
    56  H    0.999224
    57  H    1.009092
    58  H    1.010660
    59  H    1.010066
    60  H    1.004399
    61  H    1.007037
    62  H    1.001850
    63  H    1.001187
    64  H    1.000686
    65  H    0.996383
    66  H    1.004636
    67  H    1.000941
    68  H    0.994415
    69  H    1.000711
    70  H    0.994863
    71  H    0.996296
    72  H    1.003256
    73  H    0.988371
    74  H    0.992654
    75  H    0.989679
    76  H    0.996949
    77  H    0.997276
    78  H    0.998058
    79  H    0.998780
    80  Mg  11.999905
    81  C    6.018512
    82  C    5.977687
    83  C    5.979585
    84  C    6.023447
    85  N    6.996150
    86  C    5.972989
    87  C    6.006899
    88  C    5.991780
    89  C    6.029104
    90  C    5.997594
    91  C    6.007317
    92  C    6.000340
    93  H    0.991352
    94  N    6.993701
    95  C    6.048669
    96  C    6.016836
    97  C    6.011985
    98  C    6.034307
    99  C    5.994546
   100  C    6.010707
   101  O    8.020028
   102  C    6.001356
   103  N    6.999864
   104  C    6.030724
   105  C    5.989559
   106  C    6.010943
   107  C    5.966526
   108  C    5.998623
   109  C    6.001556
   110  C    6.001299
   111  N    7.004083
   112  C    5.962024
   113  C    5.976184
   114  C    5.994380
   115  C    5.969830
   116  C    6.000574
   117  C    5.986778
   118  O    7.975301
   119  C    5.995457
   120  C    5.995658
   121  O    7.996323
   122  O    7.997866
   123  C    6.002610
   124  H    1.007997
   125  H    1.006305
   126  H    0.994148
   127  H    0.999866
   128  H    1.002498
   129  H    0.995208
   130  H    1.001836
   131  H    1.011839
   132  H    0.988532
   133  H    1.004787
   134  H    1.003125
   135  H    0.999890
   136  H    1.018594
   137  H    1.018856
   138  H    1.013561
   139  H    1.009780
   140  H    1.010713
   141  H    1.006786
   142  H    1.001393
   143  H    0.997275
   144  H    1.005064
   145  H    0.993047
   146  H    1.006586
   147  H    1.005472
   148  H    0.990954
   149  H    1.001840
   150  H    0.994422
   151  H    0.998639
   152  H    0.987262
   153  H    0.982294
   154  H    0.981928
   155  H    0.991150
   156  H    0.998241
   157  H    0.993985
   158  H    0.995172
 Sum of Mulliken charges = 624.00000

 Dipole moment (field-independent basis, Debye):
    X=             10.5492    Y=             -5.4998    Z=             -6.0243  Tot=             13.3351
 Quadrupole moment (field-independent basis, Debye-Ang):
   XX=            -52.3569   YY=              4.3591   ZZ=             -1.7573
   XY=             89.4399   XZ=             -9.8594   YZ=              3.7104

 Normal termination of Gaussian 16 at Wed Sep 22 04:08:40 2021.
