 Gaussian 16, Revision A.03,
 Gaussian 16:  ES64L-G16RevA.03 25-Dec-2016

 -----------------------------------
 #p cam-b3lyp/Def2SVP td=(nstates=5)
 -----------------------------------

 --------------------------------
 TDDFT excited states in gaussian
 --------------------------------
 Symbolic Z-matrix:
 Charge =  0 Multiplicity = 1

                         Standard orientation:
 ---------------------------------------------------------------------
 Center     Atomic      Atomic             Coordinates (Angstroms)
 Number     Number       Type             X           Y           Z
 ---------------------------------------------------------------------
      1         12           0        8.683352    0.654561    0.297714
      2          6           0        7.326377   -0.963121   -2.368657
      3          6           0        7.517199    3.704223   -1.061749
      4          6           0        9.035613    2.028240    3.321470
      5          6           0        9.349369   -2.531406    1.862533
      6          7           0        7.597350    1.237671   -1.494534
      7          6           0        7.124542    0.492835   -2.438141
      8          6           0        6.635037    1.308404   -3.687286
      9          6           0        6.984390    2.806926   -3.345881
     10          6           0        7.443801    2.626024   -1.858105
     11          6           0        7.894200    3.535694   -4.335819
     12          6           0        5.060888    1.008024   -4.046083
     13          6           0        4.149342    0.484156   -2.948173
     14          1           0        2.630612    0.601909   -3.076478
     15          7           0        8.312400    2.601780    1.018162
     16          6           0        7.911933    3.714419    0.318128
     17          6           0        7.792602    4.801257    1.189870
     18          6           0        8.189690    4.352880    2.508478
     19          6           0        8.505686    2.909493    2.344064
     20          6           0        7.488672    6.191968    0.663599
     21          6           0        8.222191    5.255239    3.755277
     22          8           0        7.880786    6.451456    3.617779
     23          6           0        8.609262    4.846463    5.074566
     24          7           0        8.990581   -0.187527    2.409563
     25          6           0        9.274774    0.663442    3.354199
     26          6           0        9.820601   -0.016801    4.641877
     27          6           0        9.975451   -1.477739    4.165788
     28          6           0        9.425700   -1.471098    2.682220
     29          6           0       11.109361    0.536140    5.133876
     30          6           0        9.233688   -2.525322    5.122771
     31          6           0       10.170397   -3.486835    5.963707
     32          7           0        8.534880   -1.355454   -0.135350
     33          6           0        8.859162   -2.540522    0.536849
     34          6           0        8.562406   -3.696765   -0.365048
     35          6           0        7.932764   -3.096910   -1.464879
     36          6           0        7.902144   -1.682860   -1.279366
     37          6           0        8.790925   -5.112561   -0.147290
     38          6           0        7.292569   -3.440153   -2.650878
     39          8           0        7.081207   -4.514547   -3.232292
     40          6           0        6.953360   -2.086938   -3.338073
     41          6           0        7.621071   -2.075610   -4.733750
     42          8           0        7.087604   -1.868666   -5.810380
     43          8           0        8.973383   -2.332376   -4.665756
     44          6           0        9.719304   -2.388295   -5.928580
     45          1           0        7.078595    4.583396   -1.538004
     46          1           0        9.322607    2.447554    4.287833
     47          1           0        9.713004   -3.473883    2.276949
     48          1           0        7.321869    1.061499   -4.497294
     49          1           0        6.091422    3.425146   -3.248517
     50          1           0        8.842384    3.774286   -3.854423
     51          1           0        7.464958    4.480208   -4.672103
     52          1           0        8.085041    3.015387   -5.274458
     53          1           0        5.164965    0.333801   -4.896524
     54          1           0        4.479853    1.877811   -4.353385
     55          1           0        4.482050    1.039429   -2.071590
     56          1           0        4.455114   -0.551102   -2.795961
     57          1           0        8.173187    7.013931    0.874768
     58          1           0        6.473358    6.459454    0.957262
     59          1           0        7.436581    6.153148   -0.424292
     60          1           0        9.627572    4.485385    5.217579
     61          1           0        8.054512    3.957647    5.373481
     62          1           0        8.360916    5.572278    5.848288
     63          1           0        9.214964    0.016705    5.547422
     64          1           0       11.014135   -1.776415    4.023750
     65          1           0       11.032009    1.172552    6.015269
     66          1           0       11.511945    1.260857    4.425289
     67          1           0       11.811699   -0.271894    5.337924
     68          1           0        8.661759   -3.207844    4.492688
     69          1           0        8.626302   -2.070176    5.903922
     70          1           0        9.824713   -3.522126    6.996075
     71          1           0       11.154661   -3.022495    6.025996
     72          1           0       10.030859   -4.471491    5.517136
     73          1           0        9.679421   -5.147189    0.483601
     74          1           0        8.995628   -5.618865   -1.091292
     75          1           0        7.860325   -5.512140    0.254638
     76          1           0        5.927804   -2.035794   -3.703024
     77          1           0       10.609269   -2.998461   -5.773271
     78          1           0       10.116591   -1.457691   -6.333519
     79          1           0        9.129803   -2.747394   -6.772677
     80         12           0       -8.900850   -0.104421   -0.113236
     81          6           0       -6.215044   -2.344137   -0.037281
     82          6           0       -7.061075    2.083840   -1.724596
     83          6           0      -11.282244    2.292701    0.508510
     84          6           0      -10.694452   -2.240887    2.051025
     85          7           0       -6.932537   -0.214650   -0.858168
     86          6           0       -5.990853   -1.218498   -0.801237
     87          6           0       -4.782891   -0.910945   -1.676709
     88          6           0       -5.009612    0.600357   -2.001819
     89          6           0       -6.430174    0.812670   -1.609001
     90          6           0       -4.036229    1.633740   -1.477261
     91          6           0       -4.604856   -1.857050   -2.906924
     92          6           0       -3.376298   -1.571342   -3.777434
     93          1           0       -2.469358   -2.759432   -4.062739
     94          7           0       -9.114340    2.030931   -0.520801
     95          6           0       -8.276785    2.698414   -1.341584
     96          6           0       -8.806691    4.009936   -1.592722
     97          6           0       -9.995529    4.121996   -0.851353
     98          6           0      -10.163642    2.778098   -0.234476
     99          6           0       -8.116532    5.048758   -2.451266
    100          6           0      -10.964664    5.255148   -0.763582
    101          8           0      -11.937881    5.342991    0.032025
    102          6           0      -10.852812    6.433165   -1.723654
    103          7           0      -10.675836    0.007913    1.107976
    104          6           0      -11.429594    1.124653    1.235985
    105          6           0      -12.793221    0.770221    2.041109
    106          6           0      -12.743242   -0.797315    2.089248
    107          6           0      -11.334545   -1.073362    1.671463
    108          6           0      -12.762569    1.488529    3.446607
    109          6           0      -13.674654   -1.420445    0.986209
    110          6           0      -13.537812   -0.954069   -0.454807
    111          7           0       -8.584309   -2.008069    0.819755
    112          6           0       -9.422790   -2.701706    1.648544
    113          6           0       -8.775677   -3.883857    1.984760
    114          6           0       -7.479134   -3.854590    1.395154
    115          6           0       -7.408426   -2.681700    0.690499
    116          6           0       -9.227082   -4.973155    2.892500
    117          6           0       -6.173049   -4.529364    1.219637
    118          8           0       -5.687858   -5.560271    1.671489
    119          6           0       -5.335078   -3.597692    0.183145
    120          6           0       -3.941676   -3.403487    0.665322
    121          8           0       -3.606152   -3.289700    1.881634
    122          8           0       -3.146099   -3.547501   -0.385920
    123          6           0       -1.768529   -3.850421   -0.047970
    124          1           0       -6.537910    2.804512   -2.356757
    125          1           0      -12.066545    3.032328    0.686304
    126          1           0      -11.327277   -2.930570    2.611734
    127          1           0       -3.930080   -1.144538   -1.039049
    128          1           0       -5.011091    0.809163   -3.072183
    129          1           0       -3.051946    1.274853   -1.176513
    130          1           0       -4.501404    2.174158   -0.652408
    131          1           0       -4.022990    2.450327   -2.199413
    132          1           0       -5.508213   -1.837774   -3.517116
    133          1           0       -4.535863   -2.885815   -2.554905
    134          1           0       -2.605361   -1.045224   -3.214726
    135          1           0       -3.650302   -1.034259   -4.685968
    136          1           0       -7.111249    4.780479   -2.775909
    137          1           0       -7.860340    5.982849   -1.951921
    138          1           0       -8.677877    5.313485   -3.347849
    139          1           0       -9.950793    6.987770   -1.466548
    140          1           0      -11.589557    7.206645   -1.507961
    141          1           0      -10.946741    6.145475   -2.771424
    142          1           0      -13.650573    1.172045    1.501099
    143          1           0      -12.912491   -1.049911    3.135961
    144          1           0      -11.993369    2.256933    3.525947
    145          1           0      -12.568575    0.819731    4.285322
    146          1           0      -13.673106    2.041293    3.673350
    147          1           0      -14.641027   -1.141132    1.406105
    148          1           0      -13.648698   -2.508249    0.929656
    149          1           0      -12.915407   -0.060241   -0.502191
    150          1           0      -14.463917   -0.832735   -1.015635
    151          1           0      -13.083300   -1.820343   -0.935587
    152          1           0      -10.202857   -5.390613    2.642854
    153          1           0       -9.323129   -4.501329    3.869956
    154          1           0       -8.496869   -5.777313    2.977158
    155          1           0       -5.295912   -4.198402   -0.725177
    156          1           0       -1.387097   -4.634197   -0.703617
    157          1           0       -1.589075   -4.223513    0.960062
    158          1           0       -1.209506   -2.931376   -0.226898
 ---------------------------------------------------------------------

 SCF Done:  E(RCAM-B3LYP) =  -4069.78909202     A.U. after   19 cycles

 Excitation energies and oscillator strengths:

 Excited State   1:      Singlet-A      1.7034 eV  727.85 nm  f=0.2205  <S**2>=0.000
     309 -> 315       -0.14694
     311 -> 313        0.63069
     312 -> 314        0.27705
 This state for optimization and/or second-order correction.
 Total Energy, E(TD-HF/TD-DFT) =  -4069.72649193
 Copying the excited state density for this state as the 1-particle RhoCI density.

 Excited State   2:      Singlet-A      1.7161 eV  722.46 nm  f=0.5795  <S**2>=0.000
     310 -> 316        0.15215
     311 -> 313       -0.27685
     312 -> 314        0.63089

 Excited State   3:      Singlet-A      2.1448 eV  578.08 nm  f=0.1756  <S**2>=0.000
     310 -> 314        0.66340
     312 -> 316       -0.22623

 Excited State   4:      Singlet-A      2.2512 eV  550.75 nm  f=0.1179  <S**2>=0.000
     309 -> 313        0.64211
     311 -> 315        0.27270

 Excited State   5:      Singlet-A      2.7339 eV  453.50 nm  f=0.0000  <S**2>=0.000
     312 -> 313        0.70695

 The electronic state is 1-A.
 Alpha  occ. eigenvalues --  -46.90437 -46.89275 -19.26481 -19.25041 -19.20272
 Alpha  occ. eigenvalues --  -19.19102 -19.19019 -19.18894 -19.18338 -19.17521
 Alpha  occ. eigenvalues --  -14.43334 -14.42792 -14.42040 -14.41721 -14.40659
 Alpha  occ. eigenvalues --  -14.39946 -14.39659 -14.37918 -10.39876 -10.39084
 Alpha  occ. eigenvalues --  -10.35666 -10.34853 -10.34708 -10.34357 -10.33148
 Alpha  occ. eigenvalues --  -10.32004 -10.31882 -10.31798 -10.31640 -10.31366
 Alpha  occ. eigenvalues --  -10.30991 -10.30896 -10.30888 -10.30858 -10.30766
 Alpha  occ. eigenvalues --  -10.30681 -10.30521 -10.30507 -10.29999 -10.29754
 Alpha  occ. eigenvalues --  -10.29665 -10.29467 -10.29428 -10.29160 -10.29036
 Alpha  occ. eigenvalues --  -10.28964 -10.28752 -10.28532 -10.28479 -10.28376
 Alpha  occ. eigenvalues --  -10.28226 -10.28170 -10.28134 -10.28116 -10.28072
 Alpha  occ. eigenvalues --  -10.27790 -10.27773 -10.27731 -10.27693 -10.27679
 Alpha  occ. eigenvalues --  -10.27670 -10.27598 -10.27211 -10.27207 -10.27204
 Alpha  occ. eigenvalues --  -10.27164 -10.27099 -10.26998 -10.26897 -10.26828
 Alpha  occ. eigenvalues --  -10.26579 -10.26405 -10.26376 -10.26371 -10.26369
 Alpha  occ. eigenvalues --  -10.26166 -10.26067 -10.26043 -10.26041 -10.25731
 Alpha  occ. eigenvalues --  -10.25723 -10.25589 -10.25336 -10.25042 -10.24798
 Alpha  occ. eigenvalues --  -10.24167  -3.18844  -3.17663  -1.93722  -1.93333
 Alpha  occ. eigenvalues --   -1.93111  -1.92572  -1.92088  -1.91978  -1.17921
 Alpha  occ. eigenvalues --   -1.16291  -1.09191  -1.08679  -1.08280  -1.07714
 Alpha  occ. eigenvalues --   -1.07506  -1.05765  -1.05308  -1.05158  -1.04635
 Alpha  occ. eigenvalues --   -1.04248  -1.03765  -1.03235  -1.02375  -1.02357
 Alpha  occ. eigenvalues --   -0.93133  -0.91737  -0.89802  -0.89498  -0.89463
 Alpha  occ. eigenvalues --   -0.89185  -0.89123  -0.88440  -0.88307  -0.87977
 Alpha  occ. eigenvalues --   -0.87873  -0.87037  -0.85578  -0.85443  -0.84773
 Alpha  occ. eigenvalues --   -0.84674  -0.84264  -0.83630  -0.83126  -0.82802
 Alpha  occ. eigenvalues --   -0.82603  -0.81747  -0.81588  -0.81215  -0.80564
 Alpha  occ. eigenvalues --   -0.80404  -0.78784  -0.78586  -0.77518  -0.77476
 Alpha  occ. eigenvalues --   -0.77217  -0.77160  -0.76460  -0.75997  -0.75400
 Alpha  occ. eigenvalues --   -0.75130  -0.73525  -0.72648  -0.72080  -0.71630
 Alpha  occ. eigenvalues --   -0.69796  -0.69692  -0.69084  -0.68977  -0.68606
 Alpha  occ. eigenvalues --   -0.68218  -0.67570  -0.66970  -0.66109  -0.65824
 Alpha  occ. eigenvalues --   -0.65388  -0.65071  -0.65022  -0.64678  -0.64558
 Alpha  occ. eigenvalues --   -0.64468  -0.63476  -0.62602  -0.61012  -0.60919
 Alpha  occ. eigenvalues --   -0.60077  -0.59652  -0.59140  -0.59055  -0.58639
 Alpha  occ. eigenvalues --   -0.58424  -0.58172  -0.57469  -0.57382  -0.57123
 Alpha  occ. eigenvalues --   -0.56445  -0.56106  -0.55884  -0.55751  -0.55743
 Alpha  occ. eigenvalues --   -0.55648  -0.55373  -0.55189  -0.54998  -0.54673
 Alpha  occ. eigenvalues --   -0.54258  -0.53983  -0.53567  -0.53358  -0.53162
 Alpha  occ. eigenvalues --   -0.53034  -0.53029  -0.52812  -0.52720  -0.52432
 Alpha  occ. eigenvalues --   -0.52408  -0.51607  -0.51604  -0.51462  -0.51370
 Alpha  occ. eigenvalues --   -0.51034  -0.50845  -0.50765  -0.50452  -0.50397
 Alpha  occ. eigenvalues --   -0.50350  -0.50035  -0.49988  -0.49721  -0.49420
 Alpha  occ. eigenvalues --   -0.49308  -0.49116  -0.48988  -0.48960  -0.48743
 Alpha  occ. eigenvalues --   -0.48668  -0.48484  -0.48428  -0.48383  -0.48221
 Alpha  occ. eigenvalues --   -0.48008  -0.47789  -0.47489  -0.47313  -0.47138
 Alpha  occ. eigenvalues --   -0.47096  -0.46954  -0.46855  -0.46619  -0.46376
 Alpha  occ. eigenvalues --   -0.46308  -0.46259  -0.45999  -0.45844  -0.45842
 Alpha  occ. eigenvalues --   -0.45751  -0.45398  -0.45323  -0.45161  -0.45077
 Alpha  occ. eigenvalues --   -0.44976  -0.44730  -0.44631  -0.44574  -0.44361
 Alpha  occ. eigenvalues --   -0.44129  -0.44002  -0.43731  -0.43727  -0.43627
 Alpha  occ. eigenvalues --   -0.43322  -0.43073  -0.42823  -0.42804  -0.42760
 Alpha  occ. eigenvalues --   -0.42461  -0.42391  -0.42261  -0.42208  -0.42143
 Alpha  occ. eigenvalues --   -0.41956  -0.41672  -0.41618  -0.41335  -0.41121
 Alpha  occ. eigenvalues --   -0.41110  -0.40930  -0.40838  -0.40722  -0.40379
 Alpha  occ. eigenvalues --   -0.40072  -0.39903  -0.39478  -0.39159  -0.39158
 Alpha  occ. eigenvalues --   -0.38903  -0.38581  -0.38186  -0.37966  -0.37792
 Alpha  occ. eigenvalues --   -0.37161  -0.37088  -0.36816  -0.36670  -0.36539
 Alpha  occ. eigenvalues --   -0.36400  -0.36142  -0.34955  -0.34413  -0.34164
 Alpha  occ. eigenvalues --   -0.33962  -0.33833  -0.32790  -0.31847  -0.31735
 Alpha  occ. eigenvalues --   -0.31209  -0.31064  -0.31034  -0.30685  -0.30268
 Alpha  occ. eigenvalues --   -0.29988  -0.29135  -0.28405  -0.25058  -0.23962
 Alpha  occ. eigenvalues --   -0.21784  -0.21668
 Alpha virt. eigenvalues --   -0.09641  -0.09270  -0.02012  -0.01186  -0.00154
 Alpha virt. eigenvalues --    0.00072   0.00519   0.01901   0.02107   0.02613
 Alpha virt. eigenvalues --    0.04590   0.04785   0.04845   0.05115   0.05186

 Mulliken charges:
               1
     1  Mg   0.825921
     2  C    0.014530
     3  C   -0.064255
     4  C   -0.033677
     5  C   -0.084665
     6  N   -0.280146
     7  C   -0.034556
     8  C   -0.003001
     9  C   -0.057084
    10  C    0.024015
    11  C    0.073163
    12  C    0.009642
    13  C   -0.044083
    14  H    0.040060
    15  N   -0.376662
    16  C    0.139317
    17  C   -0.134068
    18  C   -0.051010
    19  C    0.178987
    20  C    0.140078
    21  C    0.018894
    22  O   -0.238653
    23  C    0.062900
    24  N   -0.229371
    25  C   -0.016325
    26  C   -0.028447
    27  C    0.002347
    28  C    0.020948
    29  C    0.047697
    30  C    0.001086
    31  C   -0.010244
    32  N   -0.376945
    33  C    0.118604
    34  C   -0.163823
    35  C    0.035603
    36  C    0.123988
    37  C    0.127155
    38  C    0.044095
    39  O   -0.184498
    40  C   -0.043181
    41  C    0.175033
    42  O   -0.213040
    43  O   -0.339199
    44  C    0.178473
    45  H   -0.011971
    46  H   -0.063068
    47  H   -0.025890
    48  H    0.025998
    49  H    0.011698
    50  H    0.018232
    51  H    0.012299
    52  H    0.020218
    53  H    0.032984
    54  H    0.016058
    55  H    0.031073
    56  H    0.016404
    57  H    0.037204
    58  H    0.022464
    59  H   -0.021851
    60  H    0.042338
    61  H    0.020320
    62  H    0.028132
    63  H    0.019872
    64  H    0.008229
    65  H    0.006595
    66  H    0.010110
    67  H    0.018646
    68  H    0.012825
    69  H    0.017885
    70  H    0.011328
    71  H    0.016087
    72  H    0.026712
    73  H    0.022661
    74  H    0.042676
    75  H    0.050856
    76  H    0.028530
    77  H    0.034309
    78  H    0.019762
    79  H    0.044669
    80  Mg   0.807852
    81  C    0.045505
    82  C   -0.060996
    83  C   -0.047400
    84  C   -0.073511
    85  N   -0.322602
    86  C   -0.057678
    87  C    0.013119
    88  C   -0.034067
    89  C    0.075025
    90  C    0.092339
    91  C    0.063885
    92  C   -0.074608
    93  H    0.016144
    94  N   -0.299737
    95  C    0.075842
    96  C   -0.092450
    97  C   -0.003398
    98  C    0.074297
    99  C    0.096268
   100  C   -0.003947
   101  O   -0.229846
   102  C    0.052630
   103  N   -0.284353
   104  C    0.052254
   105  C   -0.096602
   106  C    0.025743
   107  C    0.020399
   108  C    0.057967
   109  C    0.029743
   110  C    0.003980
   111  N   -0.330814
   112  C    0.139940
   113  C   -0.185022
   114  C    0.005550
   115  C    0.046702
   116  C    0.122887
   117  C    0.080697
   118  O   -0.165234
   119  C   -0.061887
   120  C    0.199406
   121  O   -0.251472
   122  O   -0.299710
   123  C    0.165680
   124  H   -0.049981
   125  H   -0.001896
   126  H   -0.028353
   127  H    0.005031
   128  H    0.004303
   129  H    0.033695
   130  H    0.011496
   131  H    0.004109
   132  H   -0.001923
   133  H    0.022386
   134  H    0.025019
   135  H    0.039895
   136  H    0.005015
   137  H    0.026466
   138  H    0.032404
   139  H    0.022870
   140  H    0.017614
   141  H    0.042446
   142  H    0.017901
   143  H    0.003425
   144  H    0.022348
   145  H    0.011441
   146  H    0.017728
   147  H    0.003914
   148  H    0.005043
   149  H    0.037515
   150  H    0.019431
   151  H    0.012013
   152  H    0.012889
   153  H    0.020051
   154  H    0.033403
   155  H    0.053074
   156  H    0.036844
   157  H    0.061268
   158  H    0.032593
 Sum of Mulliken charges =  -0.00000

 Dipole moment (field-independent basis, Debye):
    X=              4.6651    Y=              2.2947    Z=             -3.0505  Tot=              6.0278
 Quadrupole moment (field-independent basis, Debye-Ang):
   XX=           -418.2949   YY=           -566.7315   ZZ=           -501.0508
   XY=            -20.4240   XZ=             44.2644   YZ=            -39.2655

 Normal termination of Gaussian 16 at Tue Sep 14 23:49:46 2021.
