 Gaussian 16, Revision A.03,
 Gaussian 16:  ES64L-G16RevA.03 25-Dec-2016

 ----------------------------------------------------------
 #p cam-b3lyp/Def2SVP td=(nstates=5) density=(transition=1)
 ----------------------------------------------------------

 --------------------------------
 TDDFT excited states in gaussian
 --------------------------------
 Symbolic Z-matrix:
 Charge =  0 Multiplicity = 1

                         Standard orientation:
 ---------------------------------------------------------------------
 Center     Atomic      Atomic             Coordinates (Angstroms)
 Number     Number       Type             X           Y           Z
 ---------------------------------------------------------------------
      1         12           0      -28.290959    0.351680   -0.664848
      2          6           0      -27.849878   -2.312104    1.558967
      3          6           0      -27.596357    2.491880    1.724047
      4          6           0      -29.464021    2.892579   -2.657725
      5          6           0      -29.528169   -1.913785   -3.073684
      6          7           0      -27.696222    0.064925    1.336499
      7          6           0      -27.500917   -1.081851    2.074389
      8          6           0      -26.859371   -0.783823    3.423392
      9          6           0      -27.014527    0.768631    3.506730
     10          6           0      -27.348928    1.142359    2.104632
     11          6           0      -27.909696    1.376343    4.564972
     12          6           0      -25.409223   -1.337675    3.598208
     13          6           0      -24.766955   -1.065728    4.962872
     14          1           0      -24.187076   -2.275612    5.680798
     15          7           0      -28.567001    2.507824   -0.449756
     16          6           0      -28.064086    3.201485    0.592659
     17          6           0      -28.203568    4.608074    0.335729
     18          6           0      -28.852773    4.737205   -0.904183
     19          6           0      -28.997575    3.335525   -1.382917
     20          6           0      -27.771869    5.689555    1.303512
     21          6           0      -29.223885    5.967271   -1.665874
     22          8           0      -29.932534    6.013356   -2.706811
     23          6           0      -28.697844    7.327678   -1.224798
     24          7           0      -29.350909    0.459289   -2.540876
     25          6           0      -29.770684    1.617793   -3.100609
     26          6           0      -30.319414    1.328954   -4.600207
     27          6           0      -29.871555   -0.157385   -4.828689
     28          6           0      -29.492466   -0.580696   -3.445841
     29          6           0      -31.878397    1.575425   -4.634178
     30          6           0      -28.562575   -0.219503   -5.697727
     31          6           0      -27.357961    0.614850   -5.290888
     32          7           0      -28.592772   -1.765510   -0.809622
     33          6           0      -29.094895   -2.485746   -1.858529
     34          6           0      -29.085491   -3.821056   -1.476251
     35          6           0      -28.632510   -3.885592   -0.127119
     36          6           0      -28.343329   -2.597291    0.238760
     37          6           0      -29.565239   -5.013333   -2.226350
     38          6           0      -28.348527   -4.731503    1.054309
     39          8           0      -28.484525   -5.926770    1.289240
     40          6           0      -27.725452   -3.727555    2.171622
     41          6           0      -28.345307   -3.976248    3.500422
     42          8           0      -29.556114   -4.300104    3.684821
     43          8           0      -27.364082   -3.962306    4.392497
     44          6           0      -27.688768   -4.628528    5.639252
     45          1           0      -27.265566    3.243862    2.443628
     46          1           0      -29.809049    3.690927   -3.319075
     47          1           0      -29.793170   -2.593102   -3.885367
     48          1           0      -27.450883   -1.366352    4.129958
     49          1           0      -26.068549    1.281269    3.684518
     50          1           0      -28.152570    0.749895    5.423248
     51          1           0      -28.826823    1.731251    4.094080
     52          1           0      -27.486770    2.349398    4.815554
     53          1           0      -24.772013   -0.952752    2.801617
     54          1           0      -25.420932   -2.415680    3.440718
     55          1           0      -25.522478   -0.900718    5.730819
     56          1           0      -24.058069   -0.238907    4.909789
     57          1           0      -27.453680    5.328857    2.281579
     58          1           0      -28.559031    6.359730    1.648108
     59          1           0      -26.966815    6.317975    0.921379
     60          1           0      -29.183068    7.582963   -0.283142
     61          1           0      -29.092935    8.136562   -1.838961
     62          1           0      -27.609005    7.389638   -1.226026
     63          1           0      -29.873246    2.040322   -5.295201
     64          1           0      -30.768744   -0.668710   -5.177483
     65          1           0      -32.253572    2.110164   -3.761419
     66          1           0      -32.473623    0.662957   -4.672590
     67          1           0      -32.201184    2.210968   -5.457544
     68          1           0      -28.977187    0.115212   -6.648657
     69          1           0      -28.166077   -1.222470   -5.852769
     70          1           0      -27.642299    1.334359   -4.522760
     71          1           0      -26.798117    1.084978   -6.098647
     72          1           0      -26.662062   -0.143832   -4.932716
     73          1           0      -29.125140   -5.127762   -3.217283
     74          1           0      -30.632025   -4.843626   -2.369293
     75          1           0      -29.443937   -5.938607   -1.664032
     76          1           0      -26.678989   -4.026259    2.227544
     77          1           0      -26.848316   -5.243351    5.963750
     78          1           0      -28.536789   -5.312493    5.615093
     79          1           0      -27.852065   -3.833427    6.367479
     80         12           0       28.954024   -0.425772   -0.009637
     81          6           0       26.244035    1.549037    1.076265
     82          6           0       26.734578   -2.859828   -0.637390
     83          6           0       31.453285   -1.959522   -1.452523
     84          6           0       30.893690    2.573493    0.102505
     85          7           0       26.730939   -0.589961    0.164115
     86          6           0       25.824170    0.267185    0.690242
     87          6           0       24.416729   -0.291807    0.741585
     88          6           0       24.713593   -1.813369    0.429092
     89          6           0       26.144670   -1.804571   -0.067062
     90          6           0       24.520840   -2.796768    1.656331
     91          6           0       23.251258    0.284130   -0.175400
     92          6           0       23.553621    1.188709   -1.399502
     93          1           0       22.604544    1.078013   -2.650808
     94          7           0       29.057209   -2.273712   -0.809576
     95          6           0       28.044846   -3.085406   -1.083967
     96          6           0       28.558540   -4.256501   -1.845426
     97          6           0       30.031355   -4.047464   -1.936393
     98          6           0       30.222677   -2.701882   -1.394421
     99          6           0       27.726756   -5.457359   -2.207321
    100          6           0       31.015525   -4.986005   -2.584152
    101          8           0       30.607324   -6.060626   -3.017593
    102          6           0       32.542065   -4.687366   -2.819998
    103          7           0       30.945598    0.260227   -0.722484
    104          6           0       31.740840   -0.677618   -1.106097
    105          6           0       33.186684   -0.032387   -1.285952
    106          6           0       32.876819    1.441321   -1.015137
    107          6           0       31.444680    1.453834   -0.516391
    108          6           0       34.359837   -0.579634   -0.455891
    109          6           0       32.869718    2.357410   -2.346092
    110          6           0       33.980808    3.417700   -2.455255
    111          7           0       28.690031    1.640969    0.406510
    112          6           0       29.560395    2.691285    0.532316
    113          6           0       28.906087    3.834198    1.220565
    114          6           0       27.532351    3.484114    1.350916
    115          6           0       27.521027    2.084664    0.928614
    116          6           0       29.521250    5.219532    1.519803
    117          6           0       26.222980    3.881192    1.748534
    118          8           0       25.707172    4.962226    2.080538
    119          6           0       25.332238    2.615768    1.661898
    120          6           0       24.776685    2.368455    3.067428
    121          8           0       23.687866    2.523523    3.553282
    122          8           0       25.750163    1.671389    3.791277
    123          6           0       25.392641    1.210020    5.168654
    124          1           0       25.988584   -3.631530   -0.839388
    125          1           0       32.267801   -2.529053   -1.906620
    126          1           0       31.564265    3.392077    0.370799
    127          1           0       24.133695   -0.222318    1.791745
    128          1           0       24.024588   -2.162495   -0.340126
    129          1           0       24.260099   -2.245938    2.559424
    130          1           0       25.542839   -3.135845    1.822001
    131          1           0       23.806044   -3.576567    1.392859
    132          1           0       22.570082    0.819707    0.485983
    133          1           0       22.651707   -0.548630   -0.544587
    134          1           0       24.564190    0.926968   -1.713180
    135          1           0       23.410858    2.251663   -1.207401
    136          1           0       28.322217   -6.315859   -2.517264
    137          1           0       26.979992   -5.107371   -2.921015
    138          1           0       27.144263   -5.645956   -1.304923
    139          1           0       33.186169   -4.364230   -2.001318
    140          1           0       32.616454   -3.852128   -3.516385
    141          1           0       33.069705   -5.549450   -3.227035
    142          1           0       33.565521   -0.180930   -2.296585
    143          1           0       33.521955    1.998986   -0.335340
    144          1           0       34.054375   -1.410845    0.179827
    145          1           0       34.842694    0.205752    0.126555
    146          1           0       35.155993   -1.012092   -1.061883
    147          1           0       31.943960    2.923237   -2.441172
    148          1           0       32.932877    1.657335   -3.179444
    149          1           0       33.705197    4.335336   -2.975543
    150          1           0       34.759089    2.951565   -3.059424
    151          1           0       34.233778    3.620724   -1.414565
    152          1           0       30.458542    5.429382    1.005529
    153          1           0       29.706818    5.197235    2.593379
    154          1           0       28.754054    5.974590    1.350132
    155          1           0       24.509597    2.800675    0.971912
    156          1           0       24.680718    1.798347    5.747151
    157          1           0       26.336028    1.292126    5.708122
    158          1           0       25.095152    0.170553    5.308379
 ---------------------------------------------------------------------

 SCF Done:  E(RCAM-B3LYP) =  -4069.80414622     A.U. after   19 cycles

 Excitation energies and oscillator strengths:

 Excited State   1:      Singlet-A      1.7144 eV  723.17 nm  f=0.3893  <S**2>=0.000
     310 -> 316        0.16596
     311 -> 313        0.68903
     310 <- 316        0.10310
 This state for optimization and/or second-order correction.
 Total Energy, E(TD-HF/TD-DFT) =  -4069.74114156
 Copying the excited state density for this state as the 1-particle RhoCI density.

 Excited State   2:      Singlet-A      1.7690 eV  700.89 nm  f=0.4122  <S**2>=0.000
     309 -> 315       -0.18509
     312 -> 314        0.68379
     309 <- 315       -0.10633

 Excited State   3:      Singlet-A      2.1453 eV  577.93 nm  f=0.1693  <S**2>=0.000
     310 -> 313        0.66339
     311 -> 316       -0.22678

 Excited State   4:      Singlet-A      2.2834 eV  542.99 nm  f=0.0990  <S**2>=0.000
     309 -> 314        0.63711
     312 -> 315        0.29627

 Excited State   5:      Singlet-A      3.1531 eV  393.22 nm  f=0.0000  <S**2>=0.000
     312 -> 313        0.70711

 The electronic state is 1-A.
 Alpha  occ. eigenvalues --  -46.90099 -46.89385 -19.26665 -19.24630 -19.20447
 Alpha  occ. eigenvalues --  -19.19497 -19.19114 -19.19054 -19.18629 -19.18457
 Alpha  occ. eigenvalues --  -14.42906 -14.42346 -14.41870 -14.41829 -14.40466
 Alpha  occ. eigenvalues --  -14.40194 -14.39767 -14.38029 -10.39911 -10.39243
 Alpha  occ. eigenvalues --  -10.35761 -10.35721 -10.35635 -10.34830 -10.32123
 Alpha  occ. eigenvalues --  -10.32024 -10.31899 -10.31553 -10.31153 -10.31095
 Alpha  occ. eigenvalues --  -10.31057 -10.31020 -10.30801 -10.30787 -10.30759
 Alpha  occ. eigenvalues --  -10.30632 -10.30206 -10.30139 -10.30131 -10.30101
 Alpha  occ. eigenvalues --  -10.29897 -10.29769 -10.29437 -10.29257 -10.29000
 Alpha  occ. eigenvalues --  -10.28829 -10.28784 -10.28529 -10.28317 -10.28309
 Alpha  occ. eigenvalues --  -10.28254 -10.28222 -10.28176 -10.28050 -10.27939
 Alpha  occ. eigenvalues --  -10.27887 -10.27869 -10.27851 -10.27793 -10.27769
 Alpha  occ. eigenvalues --  -10.27708 -10.27653 -10.27595 -10.27403 -10.27276
 Alpha  occ. eigenvalues --  -10.27214 -10.27119 -10.27074 -10.26865 -10.26616
 Alpha  occ. eigenvalues --  -10.26597 -10.26505 -10.26490 -10.26483 -10.26476
 Alpha  occ. eigenvalues --  -10.26407 -10.26374 -10.26206 -10.26150 -10.26130
 Alpha  occ. eigenvalues --  -10.25818 -10.25672 -10.25422 -10.25408 -10.24891
 Alpha  occ. eigenvalues --  -10.24278  -3.18576  -3.17773  -1.93465  -1.93031
 Alpha  occ. eigenvalues --   -1.92880  -1.92682  -1.92198  -1.92088  -1.18102
 Alpha  occ. eigenvalues --   -1.16090  -1.09599  -1.09360  -1.08800  -1.08375
 Alpha  occ. eigenvalues --   -1.07310  -1.06775  -1.05926  -1.05416  -1.04856
 Alpha  occ. eigenvalues --   -1.04367  -1.04042  -1.03342  -1.03334  -1.02464
 Alpha  occ. eigenvalues --   -0.93616  -0.91860  -0.89838  -0.89604  -0.89289
 Alpha  occ. eigenvalues --   -0.88855  -0.88647  -0.88410  -0.88332  -0.87991
 Alpha  occ. eigenvalues --   -0.87144  -0.86934  -0.85686  -0.85442  -0.84923
 Alpha  occ. eigenvalues --   -0.84808  -0.83988  -0.83768  -0.82934  -0.82915
 Alpha  occ. eigenvalues --   -0.81863  -0.81825  -0.81341  -0.80841  -0.80675
 Alpha  occ. eigenvalues --   -0.80577  -0.78887  -0.78550  -0.77743  -0.77591
 Alpha  occ. eigenvalues --   -0.77362  -0.77062  -0.76722  -0.76130  -0.75402
 Alpha  occ. eigenvalues --   -0.75240  -0.73352  -0.72755  -0.72430  -0.71753
 Alpha  occ. eigenvalues --   -0.69915  -0.69599  -0.69302  -0.69186  -0.68723
 Alpha  occ. eigenvalues --   -0.68356  -0.67689  -0.67559  -0.66888  -0.65729
 Alpha  occ. eigenvalues --   -0.65545  -0.65536  -0.65207  -0.64907  -0.64683
 Alpha  occ. eigenvalues --   -0.64568  -0.63196  -0.62745  -0.61022  -0.60635
 Alpha  occ. eigenvalues --   -0.60233  -0.59783  -0.59497  -0.59253  -0.58586
 Alpha  occ. eigenvalues --   -0.58538  -0.58120  -0.57617  -0.57345  -0.57233
 Alpha  occ. eigenvalues --   -0.56403  -0.56214  -0.56040  -0.55908  -0.55806
 Alpha  occ. eigenvalues --   -0.55728  -0.55469  -0.55324  -0.55107  -0.54564
 Alpha  occ. eigenvalues --   -0.54401  -0.53980  -0.53644  -0.53279  -0.53145
 Alpha  occ. eigenvalues --   -0.53041  -0.52932  -0.52857  -0.52541  -0.52051
 Alpha  occ. eigenvalues --   -0.51800  -0.51723  -0.51580  -0.51569  -0.51280
 Alpha  occ. eigenvalues --   -0.51143  -0.50983  -0.50649  -0.50570  -0.50456
 Alpha  occ. eigenvalues --   -0.50117  -0.50049  -0.49832  -0.49531  -0.49521
 Alpha  occ. eigenvalues --   -0.49113  -0.49060  -0.48909  -0.48860  -0.48586
 Alpha  occ. eigenvalues --   -0.48585  -0.48547  -0.48495  -0.48364  -0.48325
 Alpha  occ. eigenvalues --   -0.48109  -0.47932  -0.47664  -0.47467  -0.47269
 Alpha  occ. eigenvalues --   -0.47246  -0.47206  -0.46966  -0.46770  -0.46679
 Alpha  occ. eigenvalues --   -0.46500  -0.46389  -0.46310  -0.46120  -0.45966
 Alpha  occ. eigenvalues --   -0.45936  -0.45861  -0.45562  -0.45448  -0.45391
 Alpha  occ. eigenvalues --   -0.45186  -0.44903  -0.44738  -0.44461  -0.44288
 Alpha  occ. eigenvalues --   -0.44241  -0.43951  -0.43866  -0.43730  -0.43613
 Alpha  occ. eigenvalues --   -0.43424  -0.43327  -0.43212  -0.43157  -0.42882
 Alpha  occ. eigenvalues --   -0.42710  -0.42590  -0.42360  -0.42287  -0.42104
 Alpha  occ. eigenvalues --   -0.42079  -0.42044  -0.41774  -0.41498  -0.41443
 Alpha  occ. eigenvalues --   -0.41279  -0.41241  -0.40955  -0.40871  -0.40715
 Alpha  occ. eigenvalues --   -0.40504  -0.40000  -0.39615  -0.39268  -0.39257
 Alpha  occ. eigenvalues --   -0.38885  -0.38676  -0.38240  -0.37902  -0.37691
 Alpha  occ. eigenvalues --   -0.37313  -0.36927  -0.36925  -0.36696  -0.36582
 Alpha  occ. eigenvalues --   -0.36354  -0.36304  -0.35046  -0.34296  -0.34085
 Alpha  occ. eigenvalues --   -0.33956  -0.33677  -0.32911  -0.31956  -0.31942
 Alpha  occ. eigenvalues --   -0.31445  -0.31159  -0.31078  -0.30995  -0.30797
 Alpha  occ. eigenvalues --   -0.30109  -0.29300  -0.28514  -0.24524  -0.24073
 Alpha  occ. eigenvalues --   -0.21777  -0.21563
 Alpha virt. eigenvalues --   -0.09378  -0.08944  -0.02063  -0.01294  -0.00649
 Alpha virt. eigenvalues --   -0.00034   0.01156   0.01790   0.01838   0.02497
 Alpha virt. eigenvalues --    0.04272   0.04437   0.04651   0.04936   0.05409

 Mulliken charges:
               1
     1  Mg  12.006215
     2  C    5.973084
     3  C    6.011077
     4  C    6.028266
     5  C    5.994676
     6  N    6.982038
     7  C    6.038461
     8  C    5.990539
     9  C    6.009488
    10  C    5.962700
    11  C    6.001747
    12  C    5.997021
    13  C    6.002785
    14  H    0.997135
    15  N    7.010412
    16  C    5.956710
    17  C    5.983180
    18  C    5.979007
    19  C    5.963897
    20  C    6.006443
    21  C    5.989733
    22  O    7.965935
    23  C    6.006676
    24  N    7.007911
    25  C    5.968132
    26  C    6.004587
    27  C    5.987309
    28  C    6.029908
    29  C    6.002085
    30  C    5.989335
    31  C    5.997416
    32  N    6.995062
    33  C    6.036115
    34  C    6.031542
    35  C    5.999725
    36  C    6.039099
    37  C    5.997409
    38  C    6.013136
    39  O    8.026708
    40  C    6.005900
    41  C    6.005955
    42  O    8.001375
    43  O    8.002203
    44  C    5.997860
    45  H    0.989755
    46  H    0.998278
    47  H    1.014948
    48  H    0.997850
    49  H    0.997104
    50  H    0.984484
    51  H    1.000287
    52  H    1.000865
    53  H    1.006231
    54  H    0.992620
    55  H    1.003011
    56  H    1.005709
    57  H    0.981947
    58  H    0.980213
    59  H    0.980336
    60  H    0.992466
    61  H    0.984665
    62  H    0.991108
    63  H    1.001980
    64  H    1.003069
    65  H    1.006625
    66  H    0.988974
    67  H    0.999937
    68  H    1.012074
    69  H    0.997629
    70  H    1.016412
    71  H    1.005829
    72  H    0.994702
    73  H    1.021605
    74  H    1.021747
    75  H    1.016345
    76  H    1.004676
    77  H    1.003256
    78  H    1.000618
    79  H    1.006649
    80  Mg  11.999979
    81  C    5.999933
    82  C    5.999958
    83  C    6.000114
    84  C    6.000053
    85  N    7.000006
    86  C    6.000106
    87  C    5.999968
    88  C    6.000023
    89  C    5.999984
    90  C    6.000010
    91  C    6.000004
    92  C    5.999961
    93  H    1.000042
    94  N    6.999990
    95  C    5.999905
    96  C    5.999869
    97  C    5.999994
    98  C    5.999819
    99  C    6.000037
   100  C    5.999967
   101  O    7.999916
   102  C    6.000010
   103  N    6.999983
   104  C    5.999890
   105  C    6.000038
   106  C    5.999991
   107  C    6.000041
   108  C    6.000004
   109  C    5.999963
   110  C    6.000005
   111  N    7.000031
   112  C    6.000064
   113  C    6.000142
   114  C    5.999998
   115  C    6.000118
   116  C    5.999979
   117  C    6.000066
   118  O    8.000146
   119  C    5.999994
   120  C    6.000008
   121  O    8.000046
   122  O    7.999986
   123  C    5.999980
   124  H    0.999964
   125  H    0.999956
   126  H    1.000015
   127  H    1.000004
   128  H    0.999984
   129  H    0.999954
   130  H    1.000013
   131  H    0.999973
   132  H    1.000006
   133  H    1.000026
   134  H    1.000008
   135  H    1.000002
   136  H    0.999923
   137  H    0.999903
   138  H    0.999906
   139  H    0.999959
   140  H    0.999969
   141  H    0.999941
   142  H    0.999997
   143  H    1.000003
   144  H    1.000006
   145  H    0.999970
   146  H    0.999992
   147  H    0.999994
   148  H    1.000046
   149  H    1.000012
   150  H    1.000020
   151  H    1.000000
   152  H    1.000079
   153  H    1.000076
   154  H    1.000074
   155  H    1.000044
   156  H    1.000025
   157  H    1.000012
   158  H    1.000021
 Sum of Mulliken charges = 624.00000

 Dipole moment (field-independent basis, Debye):
    X=             -0.5403    Y=            -10.7956    Z=             -1.7123  Tot=             10.9439
 Quadrupole moment (field-independent basis, Debye-Ang):
   XX=             29.7813   YY=            -10.8558   ZZ=              4.9453
   XY=            312.6947   XZ=             49.6206   YZ=              4.8416

 Normal termination of Gaussian 16 at Wed Sep 22 05:18:30 2021.
