 Gaussian 16, Revision A.03,
 Gaussian 16:  ES64L-G16RevA.03 25-Dec-2016

 -----------------------------------
 #p cam-b3lyp/Def2SVP td=(nstates=5)
 -----------------------------------

 --------------------------------
 TDDFT excited states in gaussian
 --------------------------------
 Symbolic Z-matrix:
 Charge =  0 Multiplicity = 1

                         Standard orientation:
 ---------------------------------------------------------------------
 Center     Atomic      Atomic             Coordinates (Angstroms)
 Number     Number       Type             X           Y           Z
 ---------------------------------------------------------------------
      1         12           0       -9.617487   -0.871030    0.502356
      2          6           0       -9.556303    2.527775   -0.407233
      3          6           0       -7.691749   -0.025268    3.271257
      4          6           0       -9.429028   -4.124558    1.140016
      5          6           0      -10.824468   -1.669364   -2.783423
      6          7           0       -8.718660    1.001655    1.311059
      7          6           0       -8.950126    2.290889    0.811285
      8          6           0       -8.631436    3.307670    1.891734
      9          6           0       -7.787064    2.529437    2.940589
     10          6           0       -8.087281    1.069853    2.484162
     11          6           0       -6.281183    2.925386    3.051419
     12          6           0       -9.881596    4.042991    2.487719
     13          6           0       -9.592950    5.532483    2.970235
     14          1           0       -8.158396    6.055233    2.857112
     15          7           0       -8.822876   -1.875114    2.018342
     16          6           0       -8.136837   -1.354361    3.102002
     17          6           0       -7.833483   -2.383842    4.053774
     18          6           0       -8.208909   -3.606826    3.411159
     19          6           0       -8.870518   -3.223231    2.176843
     20          6           0       -7.076444   -2.127652    5.392602
     21          6           0       -7.994550   -5.010990    3.873461
     22          8           0       -8.238244   -5.990558    3.129124
     23          6           0       -7.394389   -5.522916    5.215950
     24          7           0       -9.800042   -2.665823   -0.733527
     25          6           0       -9.773378   -3.895912   -0.186669
     26          6           0      -10.376516   -4.936685   -1.163235
     27          6           0      -10.801500   -4.170724   -2.421193
     28          6           0      -10.490161   -2.692754   -1.917434
     29          6           0       -9.481714   -6.126211   -1.334460
     30          6           0      -12.253661   -4.365638   -2.907581
     31          6           0      -13.351597   -3.979275   -1.886092
     32          7           0      -10.058289    0.163294   -1.316269
     33          6           0      -10.665578   -0.277460   -2.442643
     34          6           0      -11.054525    0.910443   -3.201133
     35          6           0      -10.682788    2.071308   -2.466863
     36          6           0      -10.020190    1.565363   -1.322139
     37          6           0      -11.860036    0.914722   -4.497680
     38          6           0      -10.684759    3.499284   -2.449062
     39          8           0      -11.197721    4.360066   -3.159197
     40          6           0       -9.849686    3.882040   -1.060689
     41          6           0       -8.704197    4.813723   -1.409203
     42          8           0       -7.645645    4.434610   -1.870667
     43          8           0       -8.994107    6.107055   -1.038101
     44          6           0       -8.216056    7.198467   -1.615170
     45          1           0       -7.203015    0.369175    4.164363
     46          1           0       -9.425367   -5.171839    1.448360
     47          1           0      -11.312701   -1.983663   -3.707926
     48          1           0       -8.013847    4.100016    1.469051
     49          1           0       -8.259145    2.691127    3.909230
     50          1           0       -5.778330    1.973721    2.882757
     51          1           0       -6.035258    3.221191    4.071993
     52          1           0       -5.861439    3.656019    2.360018
     53          1           0      -10.235247    3.554923    3.395386
     54          1           0      -10.688289    4.002655    1.756917
     55          1           0       -9.760351    5.561360    4.047028
     56          1           0      -10.274401    6.185325    2.425323
     57          1           0       -6.402196   -2.969664    5.553839
     58          1           0       -7.745467   -2.089541    6.251625
     59          1           0       -6.487664   -1.223599    5.547204
     60          1           0       -7.943902   -5.112794    6.063733
     61          1           0       -6.326646   -5.320714    5.300020
     62          1           0       -7.637392   -6.558769    5.449743
     63          1           0      -11.200981   -5.397122   -0.620364
     64          1           0      -10.006699   -4.363907   -3.142524
     65          1           0       -9.815340   -6.992586   -0.763025
     66          1           0       -8.455347   -5.857735   -1.083761
     67          1           0       -9.383723   -6.467005   -2.365769
     68          1           0      -12.314332   -5.440839   -3.077233
     69          1           0      -12.409698   -3.835308   -3.847466
     70          1           0      -13.930850   -3.195583   -2.373927
     71          1           0      -12.837928   -3.614910   -0.996395
     72          1           0      -13.950843   -4.817968   -1.531353
     73          1           0      -12.635880    1.679758   -4.506644
     74          1           0      -12.438393   -0.001752   -4.611074
     75          1           0      -11.158447    0.967812   -5.330631
     76          1           0      -10.565612    4.454255   -0.470119
     77          1           0       -7.181982    6.854773   -1.652030
     78          1           0       -8.232413    8.125513   -1.041986
     79          1           0       -8.678639    7.405348   -2.580250
     80         12           0        9.573772   -0.604587   -0.141221
     81          6           0        7.807082    2.410519   -0.321747
     82          6           0       12.224432    1.040267    1.254868
     83          6           0       11.300544   -3.420174   -0.319892
     84          6           0        6.804908   -2.160416   -1.781103
     85          7           0        9.961045    1.520614    0.354078
     86          6           0        9.102740    2.594822    0.276087
     87          6           0        9.668481    3.783351    1.031263
     88          6           0       11.177497    3.374175    1.257808
     89          6           0       11.065095    1.831161    1.010374
     90          6           0       12.144475    4.046824    0.291776
     91          6           0        8.757081    4.117014    2.268153
     92          6           0        9.371851    5.181054    3.219257
     93          1           0       10.280667    6.214410    2.586663
     94          7           0       11.426318   -1.103034    0.391810
     95          6           0       12.435973   -0.272111    0.860839
     96          6           0       13.699890   -1.004594    1.053631
     97          6           0       13.390552   -2.330151    0.619014
     98          6           0       11.992210   -2.316322    0.197581
     99          6           0       14.917406   -0.386650    1.632013
    100          6           0       14.340532   -3.499657    0.591439
    101          8           0       13.970849   -4.652362    0.233794
    102          6           0       15.761223   -3.363641    1.068108
    103          7           0        9.081482   -2.550939   -0.898169
    104          6           0       10.005992   -3.508989   -0.827805
    105          6           0        9.499441   -4.822754   -1.570469
    106          6           0        8.017714   -4.393883   -2.095351
    107          6           0        7.959822   -2.954338   -1.582438
    108          6           0       10.529493   -5.179557   -2.719200
    109          6           0        6.827417   -5.234713   -1.463410
    110          6           0        6.481069   -6.567771   -2.186767
    111          7           0        7.743181   -0.057068   -0.959568
    112          6           0        6.652699   -0.792643   -1.494369
    113          6           0        5.483455    0.152944   -1.766391
    114          6           0        5.908118    1.424692   -1.395144
    115          6           0        7.268096    1.223075   -0.833290
    116          6           0        4.122154   -0.196175   -2.281058
    117          6           0        5.546356    2.815541   -1.252490
    118          8           0        4.518193    3.437880   -1.537042
    119          6           0        6.706631    3.498138   -0.371602
    120          6           0        7.184856    4.810312   -0.949811
    121          8           0        8.045622    4.904702   -1.782548
    122          8           0        6.667399    5.906276   -0.222968
    123          6           0        7.367161    7.192968   -0.355185
    124          1           0       12.993298    1.711390    1.644252
    125          1           0       11.881030   -4.342582   -0.390341
    126          1           0        5.971727   -2.545149   -2.373083
    127          1           0        9.609327    4.647466    0.370740
    128          1           0       11.553400    3.504403    2.273133
    129          1           0       12.870209    4.565664    0.917866
    130          1           0       11.569216    4.666211   -0.395981
    131          1           0       12.796766    3.336458   -0.215597
    132          1           0        8.482936    3.117746    2.604960
    133          1           0        7.835892    4.515466    1.844338
    134          1           0        9.908203    4.575127    3.949571
    135          1           0        8.552482    5.716408    3.698764
    136          1           0       15.620079   -0.435541    0.800349
    137          1           0       15.265272   -0.885188    2.536358
    138          1           0       14.902770    0.667321    1.912499
    139          1           0       15.755542   -3.124647    2.130684
    140          1           0       16.077810   -2.566487    0.394334
    141          1           0       16.420535   -4.209832    0.876786
    142          1           0        9.459969   -5.511103   -0.725345
    143          1           0        7.896976   -4.203004   -3.162542
    144          1           0       11.358933   -4.479334   -2.816782
    145          1           0       10.018214   -5.196022   -3.682083
    146          1           0       10.980926   -6.124764   -2.419162
    147          1           0        5.961465   -4.615802   -1.230253
    148          1           0        7.175535   -5.535869   -0.475903
    149          1           0        6.543098   -7.354721   -1.435959
    150          1           0        7.153364   -6.684035   -3.036927
    151          1           0        5.462185   -6.570117   -2.574759
    152          1           0        3.445871   -0.106651   -1.430645
    153          1           0        4.122766   -1.204570   -2.696634
    154          1           0        3.685802    0.448235   -3.043947
    155          1           0        6.286103    3.631573    0.624698
    156          1           0        7.031807    7.593337   -1.311551
    157          1           0        8.440646    7.065915   -0.213779
    158          1           0        7.037305    7.803435    0.484999
 ---------------------------------------------------------------------

 SCF Done:  E(RCAM-B3LYP) =  -4069.82982505     A.U. after   17 cycles

 Excitation energies and oscillator strengths:

 Excited State   1:      Singlet-A      1.6586 eV  747.51 nm  f=0.4023  <S**2>=0.000
     309 -> 316        0.16731
     311 -> 313        0.68826
     309 <- 316        0.10533
 This state for optimization and/or second-order correction.
 Total Energy, E(TD-HF/TD-DFT) =  -4069.76887159
 Copying the excited state density for this state as the 1-particle RhoCI density.

 Excited State   2:      Singlet-A      1.7140 eV  723.37 nm  f=0.3867  <S**2>=0.000
     310 -> 315       -0.19947
     312 -> 314        0.68035
     310 <- 315       -0.11165

 Excited State   3:      Singlet-A      2.1918 eV  565.68 nm  f=0.1494  <S**2>=0.000
     309 -> 313        0.65719
     311 -> 316       -0.24493

 Excited State   4:      Singlet-A      2.2903 eV  541.34 nm  f=0.0345  <S**2>=0.000
     310 -> 314        0.58772
     312 -> 315        0.38652

 Excited State   5:      Singlet-A      2.5506 eV  486.09 nm  f=0.0000  <S**2>=0.000
     312 -> 313        0.70704

 The electronic state is 1-A.
 Alpha  occ. eigenvalues --  -46.88815 -46.88008 -19.24109 -19.23922 -19.20240
 Alpha  occ. eigenvalues --  -19.19253 -19.19109 -19.19106 -19.18336 -19.18290
 Alpha  occ. eigenvalues --  -14.42452 -14.42090 -14.41496 -14.41341 -14.40182
 Alpha  occ. eigenvalues --  -14.39885 -14.39815 -14.39283 -10.39361 -10.38974
 Alpha  occ. eigenvalues --  -10.35481 -10.35459 -10.35406 -10.35192 -10.31711
 Alpha  occ. eigenvalues --  -10.31450 -10.31252 -10.30859 -10.30832 -10.30701
 Alpha  occ. eigenvalues --  -10.30691 -10.30641 -10.30545 -10.30372 -10.30298
 Alpha  occ. eigenvalues --  -10.30293 -10.30265 -10.30248 -10.30047 -10.29762
 Alpha  occ. eigenvalues --  -10.29596 -10.29427 -10.29414 -10.29181 -10.29161
 Alpha  occ. eigenvalues --  -10.29033 -10.28942 -10.28479 -10.28230 -10.28129
 Alpha  occ. eigenvalues --  -10.28120 -10.28101 -10.28078 -10.28038 -10.27889
 Alpha  occ. eigenvalues --  -10.27854 -10.27776 -10.27692 -10.27658 -10.27561
 Alpha  occ. eigenvalues --  -10.27513 -10.27425 -10.27409 -10.27378 -10.27370
 Alpha  occ. eigenvalues --  -10.27127 -10.26843 -10.26808 -10.26654 -10.26551
 Alpha  occ. eigenvalues --  -10.26501 -10.26389 -10.26365 -10.26276 -10.26119
 Alpha  occ. eigenvalues --  -10.26101 -10.25981 -10.25915 -10.25717 -10.25547
 Alpha  occ. eigenvalues --  -10.25507 -10.25502 -10.25314 -10.25196 -10.25088
 Alpha  occ. eigenvalues --  -10.24840  -3.17385  -3.16691  -1.92255  -1.91841
 Alpha  occ. eigenvalues --   -1.91699  -1.91596  -1.91132  -1.91021  -1.15417
 Alpha  occ. eigenvalues --   -1.15300  -1.09341  -1.09036  -1.08342  -1.07751
 Alpha  occ. eigenvalues --   -1.07718  -1.07307  -1.04268  -1.04234  -1.03404
 Alpha  occ. eigenvalues --   -1.03373  -1.03125  -1.02734  -1.02021  -1.01311
 Alpha  occ. eigenvalues --   -0.92085  -0.91543  -0.89133  -0.88852  -0.88531
 Alpha  occ. eigenvalues --   -0.88440  -0.88055  -0.87762  -0.87499  -0.87277
 Alpha  occ. eigenvalues --   -0.86715  -0.86655  -0.86248  -0.85222  -0.84195
 Alpha  occ. eigenvalues --   -0.83723  -0.83241  -0.82872  -0.82142  -0.82076
 Alpha  occ. eigenvalues --   -0.81866  -0.80975  -0.80691  -0.80521  -0.79965
 Alpha  occ. eigenvalues --   -0.79942  -0.78901  -0.78627  -0.77346  -0.76919
 Alpha  occ. eigenvalues --   -0.76860  -0.76663  -0.75724  -0.75705  -0.74893
 Alpha  occ. eigenvalues --   -0.74480  -0.72448  -0.71995  -0.71408  -0.70991
 Alpha  occ. eigenvalues --   -0.69844  -0.69363  -0.69044  -0.68543  -0.68234
 Alpha  occ. eigenvalues --   -0.68212  -0.67432  -0.67007  -0.65441  -0.65116
 Alpha  occ. eigenvalues --   -0.65070  -0.64810  -0.64073  -0.64034  -0.63888
 Alpha  occ. eigenvalues --   -0.63704  -0.61505  -0.61206  -0.60824  -0.60577
 Alpha  occ. eigenvalues --   -0.59430  -0.59386  -0.58696  -0.58632  -0.57979
 Alpha  occ. eigenvalues --   -0.57735  -0.57448  -0.57309  -0.56851  -0.56706
 Alpha  occ. eigenvalues --   -0.56083  -0.55893  -0.55811  -0.55671  -0.54802
 Alpha  occ. eigenvalues --   -0.54653  -0.54458  -0.54191  -0.53892  -0.53815
 Alpha  occ. eigenvalues --   -0.53628  -0.53364  -0.53185  -0.52946  -0.52691
 Alpha  occ. eigenvalues --   -0.52452  -0.52445  -0.52267  -0.52143  -0.51897
 Alpha  occ. eigenvalues --   -0.51843  -0.51680  -0.51383  -0.51225  -0.51084
 Alpha  occ. eigenvalues --   -0.50926  -0.50771  -0.50619  -0.50416  -0.50008
 Alpha  occ. eigenvalues --   -0.49936  -0.49459  -0.49425  -0.49363  -0.49256
 Alpha  occ. eigenvalues --   -0.49162  -0.49116  -0.48939  -0.48937  -0.48807
 Alpha  occ. eigenvalues --   -0.48669  -0.48505  -0.48441  -0.48095  -0.48048
 Alpha  occ. eigenvalues --   -0.47997  -0.47788  -0.47648  -0.47328  -0.47326
 Alpha  occ. eigenvalues --   -0.46805  -0.46584  -0.46274  -0.46201  -0.46114
 Alpha  occ. eigenvalues --   -0.46016  -0.45736  -0.45666  -0.45525  -0.45367
 Alpha  occ. eigenvalues --   -0.45119  -0.45111  -0.45088  -0.44787  -0.44613
 Alpha  occ. eigenvalues --   -0.44583  -0.44464  -0.44136  -0.44123  -0.43986
 Alpha  occ. eigenvalues --   -0.43930  -0.43913  -0.43400  -0.43296  -0.43066
 Alpha  occ. eigenvalues --   -0.43037  -0.43008  -0.42966  -0.42838  -0.42558
 Alpha  occ. eigenvalues --   -0.42485  -0.42321  -0.42270  -0.42034  -0.41840
 Alpha  occ. eigenvalues --   -0.41748  -0.41515  -0.41457  -0.41455  -0.41228
 Alpha  occ. eigenvalues --   -0.40848  -0.40632  -0.40472  -0.40259  -0.40126
 Alpha  occ. eigenvalues --   -0.39994  -0.39555  -0.39179  -0.39137  -0.39002
 Alpha  occ. eigenvalues --   -0.38600  -0.38459  -0.38148  -0.37918  -0.37701
 Alpha  occ. eigenvalues --   -0.37534  -0.36726  -0.36587  -0.36216  -0.36212
 Alpha  occ. eigenvalues --   -0.35833  -0.35820  -0.34473  -0.34077  -0.33889
 Alpha  occ. eigenvalues --   -0.33640  -0.33110  -0.32959  -0.31377  -0.31242
 Alpha  occ. eigenvalues --   -0.30862  -0.30696  -0.30641  -0.30456  -0.30411
 Alpha  occ. eigenvalues --   -0.30224  -0.29963  -0.29395  -0.24030  -0.23919
 Alpha  occ. eigenvalues --   -0.21289  -0.20360
 Alpha virt. eigenvalues --   -0.09153  -0.07819  -0.02074  -0.01317  -0.00140
 Alpha virt. eigenvalues --    0.00039   0.01444   0.02235   0.02257   0.03314
 Alpha virt. eigenvalues --    0.04554   0.04990   0.05343   0.05496   0.05938

 Mulliken charges:
               1
     1  Mg   0.835522
     2  C    0.031293
     3  C   -0.056884
     4  C   -0.053706
     5  C   -0.058986
     6  N   -0.269264
     7  C   -0.044621
     8  C    0.001938
     9  C   -0.047258
    10  C   -0.014793
    11  C    0.074580
    12  C    0.034779
    13  C   -0.076735
    14  H    0.021159
    15  N   -0.405672
    16  C    0.178128
    17  C   -0.125207
    18  C   -0.001007
    19  C    0.109725
    20  C    0.101797
    21  C   -0.004324
    22  O   -0.244275
    23  C    0.051080
    24  N   -0.270201
    25  C    0.053242
    26  C   -0.078139
    27  C    0.027824
    28  C   -0.007725
    29  C    0.069639
    30  C    0.031309
    31  C    0.009336
    32  N   -0.344276
    33  C    0.135779
    34  C   -0.189106
    35  C    0.048300
    36  C    0.088988
    37  C    0.113965
    38  C    0.043141
    39  O   -0.170873
    40  C   -0.068806
    41  C    0.209037
    42  O   -0.206886
    43  O   -0.347583
    44  C    0.171838
    45  H   -0.027427
    46  H   -0.004295
    47  H   -0.028370
    48  H    0.008610
    49  H    0.006739
    50  H    0.010295
    51  H    0.012483
    52  H    0.037432
    53  H    0.005383
    54  H    0.014380
    55  H    0.032202
    56  H    0.046646
    57  H    0.015781
    58  H    0.027627
    59  H    0.023680
    60  H    0.009375
    61  H    0.052334
    62  H    0.022758
    63  H    0.010252
    64  H    0.009976
    65  H    0.021093
    66  H    0.019748
    67  H   -0.000453
    68  H    0.007128
    69  H    0.015366
    70  H    0.024399
    71  H    0.019991
    72  H    0.019702
    73  H    0.034755
    74  H   -0.002314
    75  H    0.036150
    76  H    0.036027
    77  H    0.044473
    78  H    0.035772
    79  H    0.046227
    80  Mg   0.841855
    81  C   -0.020572
    82  C   -0.090245
    83  C   -0.079645
    84  C   -0.078289
    85  N   -0.250662
    86  C   -0.044751
    87  C   -0.012929
    88  C   -0.082127
    89  C   -0.014649
    90  C    0.091616
    91  C    0.015879
    92  C   -0.044421
    93  H    0.032198
    94  N   -0.411393
    95  C    0.200907
    96  C   -0.144177
    97  C   -0.034036
    98  C    0.153027
    99  C    0.122258
   100  C   -0.007266
   101  O   -0.242018
   102  C    0.080581
   103  N   -0.275360
   104  C    0.019432
   105  C   -0.035691
   106  C    0.002842
   107  C    0.012032
   108  C    0.060846
   109  C    0.002628
   110  C    0.023741
   111  N   -0.368268
   112  C    0.111774
   113  C   -0.177222
   114  C    0.032883
   115  C    0.112051
   116  C    0.110875
   117  C    0.072132
   118  O   -0.178785
   119  C   -0.071763
   120  C    0.225508
   121  O   -0.190628
   122  O   -0.375692
   123  C    0.183858
   124  H   -0.035067
   125  H   -0.005965
   126  H   -0.023512
   127  H    0.008544
   128  H    0.003460
   129  H    0.006267
   130  H    0.036722
   131  H    0.014683
   132  H    0.016557
   133  H    0.015039
   134  H    0.036533
   135  H    0.035636
   136  H    0.032087
   137  H    0.035479
   138  H    0.011887
   139  H    0.044458
   140  H    0.019936
   141  H    0.027990
   142  H    0.024580
   143  H    0.018708
   144  H    0.031682
   145  H    0.016353
   146  H    0.027565
   147  H    0.011545
   148  H   -0.005146
   149  H    0.019851
   150  H    0.018601
   151  H    0.015071
   152  H    0.038184
   153  H    0.005943
   154  H    0.038331
   155  H    0.062725
   156  H    0.050079
   157  H    0.033181
   158  H    0.033682
 Sum of Mulliken charges =  -0.00000

 Dipole moment (field-independent basis, Debye):
    X=              2.0255    Y=              0.1104    Z=              8.1939  Tot=              8.4413
 Quadrupole moment (field-independent basis, Debye-Ang):
   XX=           -434.4742   YY=           -513.6205   ZZ=           -491.1845
   XY=             47.9943   XZ=             -1.4719   YZ=             42.3785

 Normal termination of Gaussian 16 at Wed Sep  1 09:49:50 2021.
