 Gaussian 16, Revision A.03,
 Gaussian 16:  ES64L-G16RevA.03 25-Dec-2016

 -----------------------------------
 #p cam-b3lyp/Def2SVP td=(nstates=5)
 -----------------------------------

 --------------------------------
 TDDFT excited states in gaussian
 --------------------------------
 Symbolic Z-matrix:
 Charge =  0 Multiplicity = 1

                         Standard orientation:
 ---------------------------------------------------------------------
 Center     Atomic      Atomic             Coordinates (Angstroms)
 Number     Number       Type             X           Y           Z
 ---------------------------------------------------------------------
      1         12           0       29.222407    0.662074   -0.444259
      2          6           0       28.742115   -2.691214    0.173048
      3          6           0       26.175913    1.286760    0.967454
      4          6           0       30.263357    3.752403    0.083946
      5          6           0       32.345193   -0.157680   -1.824003
      6          7           0       27.887819   -0.581375    0.873986
      7          6           0       27.766420   -1.929774    0.768654
      8          6           0       26.514563   -2.451647    1.409684
      9          6           0       25.589243   -1.202883    1.244094
     10          6           0       26.591213   -0.100257    0.935280
     11          6           0       24.474439   -1.407148    0.178497
     12          6           0       26.733468   -2.821935    2.961750
     13          6           0       25.900666   -4.080036    3.491010
     14          1           0       25.000433   -3.605593    4.604798
     15          7           0       28.252241    2.333787    0.232055
     16          6           0       27.055666    2.428607    0.852356
     17          6           0       26.792549    3.803959    1.256542
     18          6           0       27.963068    4.537563    0.973808
     19          6           0       28.895917    3.524319    0.405472
     20          6           0       25.455790    4.199795    1.929342
     21          6           0       28.167775    5.955365    1.429681
     22          8           0       27.273544    6.532571    1.991311
     23          6           0       29.483195    6.742947    1.278088
     24          7           0       31.021115    1.746009   -0.928514
     25          6           0       31.186377    2.949091   -0.598218
     26          6           0       32.561505    3.447645   -0.848762
     27          6           0       33.267252    2.189064   -1.490514
     28          6           0       32.186075    1.200075   -1.421936
     29          6           0       32.555527    4.766288   -1.693725
     30          6           0       34.562862    1.741928   -0.667631
     31          6           0       35.604554    0.823381   -1.400073
     32          7           0       30.325580   -1.032425   -0.857857
     33          6           0       31.529352   -1.206800   -1.516215
     34          6           0       31.784505   -2.602428   -1.742222
     35          6           0       30.658297   -3.248594   -1.122175
     36          6           0       29.885945   -2.270351   -0.526257
     37          6           0       32.944923   -3.219469   -2.454291
     38          6           0       30.059250   -4.517158   -0.888617
     39          8           0       30.356191   -5.688566   -1.156351
     40          6           0       28.900786   -4.227946    0.122491
     41          6           0       27.717956   -5.005023   -0.351055
     42          8           0       27.411099   -6.138207    0.045105
     43          8           0       27.062571   -4.302605   -1.324394
     44          6           0       25.914922   -5.114644   -1.817711
     45          1           0       25.170861    1.588818    1.270507
     46          1           0       30.597864    4.763039    0.324903
     47          1           0       33.365222   -0.405872   -2.127177
     48          1           0       26.200031   -3.259018    0.749588
     49          1           0       25.052447   -1.032983    2.177559
     50          1           0       23.500457   -1.370819    0.665638
     51          1           0       24.581185   -2.422458   -0.204810
     52          1           0       24.632752   -0.667786   -0.605979
     53          1           0       26.620469   -2.004163    3.673334
     54          1           0       27.777201   -3.074811    3.145441
     55          1           0       26.656616   -4.730054    3.931851
     56          1           0       25.367969   -4.714064    2.782156
     57          1           0       25.553416    4.638124    2.922469
     58          1           0       24.726624    3.390411    1.979822
     59          1           0       24.970275    4.912942    1.263995
     60          1           0       29.761021    6.921161    0.239779
     61          1           0       30.325194    6.296243    1.807451
     62          1           0       29.326927    7.647973    1.865912
     63          1           0       32.950142    3.617961    0.155169
     64          1           0       33.520268    2.220009   -2.550019
     65          1           0       33.057042    5.525935   -1.094526
     66          1           0       31.544179    5.077241   -1.956228
     67          1           0       33.229649    4.750407   -2.549977
     68          1           0       34.265413    1.215192    0.239353
     69          1           0       35.043194    2.671851   -0.366825
     70          1           0       36.635996    1.144430   -1.542917
     71          1           0       35.288807    0.629969   -2.424342
     72          1           0       35.674218   -0.141189   -0.897202
     73          1           0       33.608947   -2.539767   -2.987951
     74          1           0       32.402489   -3.892493   -3.117075
     75          1           0       33.377025   -3.797167   -1.637089
     76          1           0       29.133755   -4.483119    1.156829
     77          1           0       26.292524   -5.969076   -2.378469
     78          1           0       25.340920   -4.606146   -2.592373
     79          1           0       25.299189   -5.371243   -0.955409
     80         12           0      -29.795023   -0.067457   -0.428289
     81          6           0      -26.649877    0.215097    1.047437
     82          6           0      -30.014689   -3.297908    0.755144
     83          6           0      -32.774251   -0.078788   -1.803925
     84          6           0      -29.884111    3.568426   -0.662712
     85          7           0      -28.360765   -1.418191    0.761268
     86          6           0      -27.143478   -1.087485    1.287074
     87          6           0      -26.522742   -2.255666    1.967352
     88          6           0      -27.636450   -3.375781    1.906191
     89          6           0      -28.789993   -2.688640    1.076134
     90          6           0      -27.137901   -4.759544    1.418855
     91          6           0      -26.093146   -1.951613    3.423179
     92          6           0      -24.636222   -2.350010    3.652325
     93          1           0      -24.328116   -3.287092    4.858954
     94          7           0      -31.194795   -1.515556   -0.538231
     95          6           0      -31.111195   -2.812658   -0.034186
     96          6           0      -32.330497   -3.478697   -0.473653
     97          6           0      -33.157125   -2.556644   -1.269032
     98          6           0      -32.348565   -1.297196   -1.305037
     99          6           0      -32.712062   -4.795056   -0.011650
    100          6           0      -34.522065   -2.897517   -1.703761
    101          8           0      -35.051863   -3.971770   -1.510822
    102          6           0      -35.454450   -1.930662   -2.346191
    103          7           0      -31.086138    1.481533   -1.058855
    104          6           0      -32.154976    1.166636   -1.859157
    105          6           0      -32.858765    2.429394   -2.309428
    106          6           0      -32.205527    3.508391   -1.529513
    107          6           0      -31.035199    2.848102   -0.991063
    108          6           0      -32.926494    2.638488   -3.877711
    109          6           0      -33.055930    3.984809   -0.302221
    110          6           0      -32.889508    5.374044    0.110244
    111          7           0      -28.535464    1.606456    0.047198
    112          6           0      -28.662370    2.986513   -0.158320
    113          6           0      -27.393822    3.608288    0.058605
    114          6           0      -26.585952    2.598043    0.567014
    115          6           0      -27.346600    1.374794    0.582184
    116          6           0      -27.125595    5.048761   -0.177799
    117          6           0      -25.315982    2.319083    1.109189
    118          8           0      -24.369946    3.051343    1.295845
    119          6           0      -25.279236    0.799119    1.383717
    120          6           0      -24.150207    0.205775    0.649758
    121          8           0      -24.177523   -0.182107   -0.530412
    122          8           0      -23.009471    0.289324    1.414750
    123          6           0      -21.771582   -0.318803    0.954771
    124          1           0      -29.988451   -4.330847    1.106857
    125          1           0      -33.765059    0.075143   -2.238628
    126          1           0      -29.945330    4.652781   -0.776410
    127          1           0      -25.794466   -2.627232    1.245933
    128          1           0      -28.058055   -3.624213    2.879683
    129          1           0      -26.060038   -4.681690    1.566222
    130          1           0      -27.444982   -5.065471    0.418694
    131          1           0      -27.511102   -5.540944    2.080399
    132          1           0      -26.618570   -2.541662    4.173868
    133          1           0      -26.262738   -0.885473    3.572699
    134          1           0      -24.234089   -1.378401    3.938940
    135          1           0      -24.239905   -2.687857    2.695916
    136          1           0      -31.911220   -5.173477    0.623966
    137          1           0      -32.808482   -5.562324   -0.780417
    138          1           0      -33.614263   -4.716281    0.595940
    139          1           0      -34.779400   -1.512173   -3.092721
    140          1           0      -35.741673   -1.181271   -1.608144
    141          1           0      -36.299089   -2.442266   -2.808162
    142          1           0      -33.888113    2.258663   -1.996318
    143          1           0      -31.791815    4.355099   -2.077358
    144          1           0      -32.609616    1.734163   -4.397551
    145          1           0      -32.450878    3.550024   -4.241321
    146          1           0      -33.945826    2.685759   -4.259888
    147          1           0      -32.860952    3.326559    0.544503
    148          1           0      -34.120598    3.870860   -0.505571
    149          1           0      -33.573650    5.993535   -0.470670
    150          1           0      -31.856893    5.712443    0.018669
    151          1           0      -33.316070    5.514488    1.103956
    152          1           0      -27.640014    5.403982   -1.070609
    153          1           0      -26.065878    5.299596   -0.227195
    154          1           0      -27.637391    5.541412    0.648972
    155          1           0      -24.999021    0.560272    2.409733
    156          1           0      -21.227584    0.143673    0.131128
    157          1           0      -21.944974   -1.371409    0.731959
    158          1           0      -21.093415   -0.200996    1.799126
 ---------------------------------------------------------------------

 SCF Done:  E(RCAM-B3LYP) =  -4069.76998727     A.U. after   19 cycles

 Excitation energies and oscillator strengths:

 Excited State   1:      Singlet-A      1.6751 eV  740.15 nm  f=0.3648  <S**2>=0.000
     309 -> 315       -0.18824
     311 -> 313        0.68331
     309 <- 315       -0.11089
 This state for optimization and/or second-order correction.
 Total Energy, E(TD-HF/TD-DFT) =  -4069.70842789
 Copying the excited state density for this state as the 1-particle RhoCI density.

 Excited State   2:      Singlet-A      1.6890 eV  734.05 nm  f=0.3631  <S**2>=0.000
     310 -> 316       -0.16434
     312 -> 314        0.68785
     310 <- 316       -0.10171

 Excited State   3:      Singlet-A      2.1859 eV  567.20 nm  f=0.1026  <S**2>=0.000
     309 -> 313        0.63557
     311 -> 315        0.29758

 Excited State   4:      Singlet-A      2.2121 eV  560.48 nm  f=0.1067  <S**2>=0.000
     310 -> 314        0.64120
     312 -> 316        0.27965

 Excited State   5:      Singlet-A      3.1036 eV  399.49 nm  f=0.0000  <S**2>=0.000
     312 -> 313        0.70710

 The electronic state is 1-A.
 Alpha  occ. eigenvalues --  -46.89219 -46.88955 -19.25557 -19.24883 -19.19519
 Alpha  occ. eigenvalues --  -19.19378 -19.19038 -19.18370 -19.17896 -19.17393
 Alpha  occ. eigenvalues --  -14.42339 -14.42109 -14.41943 -14.41904 -14.40307
 Alpha  occ. eigenvalues --  -14.40281 -14.39182 -14.38586 -10.39104 -10.38657
 Alpha  occ. eigenvalues --  -10.35753 -10.34223 -10.34068 -10.33716 -10.32312
 Alpha  occ. eigenvalues --  -10.31709 -10.31706 -10.31692 -10.31633 -10.31585
 Alpha  occ. eigenvalues --  -10.31582 -10.31075 -10.31064 -10.30979 -10.30678
 Alpha  occ. eigenvalues --  -10.30486 -10.30249 -10.29965 -10.29878 -10.29369
 Alpha  occ. eigenvalues --  -10.29105 -10.28998 -10.28781 -10.28567 -10.28559
 Alpha  occ. eigenvalues --  -10.28387 -10.28386 -10.28385 -10.28329 -10.28231
 Alpha  occ. eigenvalues --  -10.28208 -10.28157 -10.28137 -10.28035 -10.27982
 Alpha  occ. eigenvalues --  -10.27846 -10.27824 -10.27775 -10.27684 -10.27581
 Alpha  occ. eigenvalues --  -10.27568 -10.27431 -10.27373 -10.27307 -10.27257
 Alpha  occ. eigenvalues --  -10.27221 -10.27188 -10.27164 -10.27153 -10.26992
 Alpha  occ. eigenvalues --  -10.26807 -10.26666 -10.26652 -10.26610 -10.26580
 Alpha  occ. eigenvalues --  -10.26479 -10.26453 -10.26275 -10.26236 -10.26217
 Alpha  occ. eigenvalues --  -10.26213 -10.25564 -10.25198 -10.24876 -10.24735
 Alpha  occ. eigenvalues --  -10.24429  -3.17792  -3.17445  -1.92680  -1.92348
 Alpha  occ. eigenvalues --   -1.92262  -1.92083  -1.91909  -1.91735  -1.15945
 Alpha  occ. eigenvalues --   -1.15463  -1.11953  -1.10070  -1.09855  -1.08102
 Alpha  occ. eigenvalues --   -1.07048  -1.06723  -1.06423  -1.04998  -1.04588
 Alpha  occ. eigenvalues --   -1.03933  -1.03814  -1.03000  -1.02825  -1.01585
 Alpha  occ. eigenvalues --   -0.92666  -0.92494  -0.90777  -0.89728  -0.89605
 Alpha  occ. eigenvalues --   -0.89063  -0.88686  -0.88256  -0.87721  -0.87296
 Alpha  occ. eigenvalues --   -0.87254  -0.86874  -0.86625  -0.86309  -0.85276
 Alpha  occ. eigenvalues --   -0.84556  -0.84296  -0.83801  -0.83469  -0.82584
 Alpha  occ. eigenvalues --   -0.82273  -0.81825  -0.81423  -0.80911  -0.80837
 Alpha  occ. eigenvalues --   -0.80342  -0.78682  -0.78421  -0.77989  -0.77838
 Alpha  occ. eigenvalues --   -0.77132  -0.76804  -0.76320  -0.75968  -0.75489
 Alpha  occ. eigenvalues --   -0.75395  -0.73422  -0.72687  -0.72219  -0.72046
 Alpha  occ. eigenvalues --   -0.70484  -0.69350  -0.69310  -0.69121  -0.68148
 Alpha  occ. eigenvalues --   -0.68005  -0.67745  -0.67528  -0.66820  -0.66479
 Alpha  occ. eigenvalues --   -0.65943  -0.65355  -0.65287  -0.64848  -0.64696
 Alpha  occ. eigenvalues --   -0.64457  -0.62416  -0.62046  -0.60751  -0.60513
 Alpha  occ. eigenvalues --   -0.59619  -0.59509  -0.59477  -0.59180  -0.58974
 Alpha  occ. eigenvalues --   -0.58799  -0.57973  -0.57928  -0.57425  -0.56993
 Alpha  occ. eigenvalues --   -0.56688  -0.56417  -0.56206  -0.55910  -0.55667
 Alpha  occ. eigenvalues --   -0.55494  -0.55156  -0.55038  -0.54445  -0.54255
 Alpha  occ. eigenvalues --   -0.54138  -0.53586  -0.53206  -0.52943  -0.52844
 Alpha  occ. eigenvalues --   -0.52658  -0.52561  -0.52387  -0.52303  -0.52107
 Alpha  occ. eigenvalues --   -0.51972  -0.51754  -0.51698  -0.51693  -0.51297
 Alpha  occ. eigenvalues --   -0.51242  -0.51229  -0.51181  -0.50646  -0.50426
 Alpha  occ. eigenvalues --   -0.50406  -0.50208  -0.50019  -0.49913  -0.49686
 Alpha  occ. eigenvalues --   -0.49669  -0.49398  -0.49137  -0.49131  -0.48936
 Alpha  occ. eigenvalues --   -0.48862  -0.48621  -0.48574  -0.48520  -0.48336
 Alpha  occ. eigenvalues --   -0.47767  -0.47675  -0.47632  -0.47403  -0.47145
 Alpha  occ. eigenvalues --   -0.47012  -0.46920  -0.46810  -0.46802  -0.46612
 Alpha  occ. eigenvalues --   -0.46326  -0.46281  -0.46220  -0.46219  -0.45825
 Alpha  occ. eigenvalues --   -0.45807  -0.45750  -0.45373  -0.45318  -0.45100
 Alpha  occ. eigenvalues --   -0.44945  -0.44662  -0.44598  -0.44491  -0.44412
 Alpha  occ. eigenvalues --   -0.44294  -0.44205  -0.44059  -0.43979  -0.43695
 Alpha  occ. eigenvalues --   -0.43440  -0.43373  -0.43242  -0.43159  -0.43074
 Alpha  occ. eigenvalues --   -0.42978  -0.42914  -0.42603  -0.42576  -0.42181
 Alpha  occ. eigenvalues --   -0.42097  -0.41958  -0.41893  -0.41675  -0.41596
 Alpha  occ. eigenvalues --   -0.41449  -0.41345  -0.41181  -0.41157  -0.40761
 Alpha  occ. eigenvalues --   -0.40684  -0.40275  -0.40067  -0.39615  -0.39224
 Alpha  occ. eigenvalues --   -0.38617  -0.38497  -0.38280  -0.37748  -0.37704
 Alpha  occ. eigenvalues --   -0.37344  -0.36984  -0.36809  -0.36701  -0.36483
 Alpha  occ. eigenvalues --   -0.36397  -0.36332  -0.34961  -0.34359  -0.33726
 Alpha  occ. eigenvalues --   -0.33592  -0.33379  -0.33040  -0.31904  -0.31395
 Alpha  occ. eigenvalues --   -0.31375  -0.30690  -0.30592  -0.30047  -0.29893
 Alpha  occ. eigenvalues --   -0.29668  -0.29452  -0.28953  -0.24321  -0.24179
 Alpha  occ. eigenvalues --   -0.21587  -0.21158
 Alpha virt. eigenvalues --   -0.09175  -0.08793  -0.02524  -0.01795   0.00210
 Alpha virt. eigenvalues --    0.00237   0.01669   0.02337   0.02365   0.02662
 Alpha virt. eigenvalues --    0.04074   0.04628   0.04981   0.05447   0.05811

 Mulliken charges:
               1
     1  Mg   0.827960
     2  C    0.029869
     3  C   -0.080494
     4  C   -0.070076
     5  C   -0.085127
     6  N   -0.279626
     7  C   -0.085667
     8  C    0.013194
     9  C   -0.095845
    10  C    0.097087
    11  C    0.091213
    12  C    0.062618
    13  C   -0.075221
    14  H    0.013422
    15  N   -0.375444
    16  C    0.100318
    17  C   -0.121973
    18  C   -0.020114
    19  C    0.147727
    20  C    0.133005
    21  C   -0.028648
    22  O   -0.181291
    23  C    0.044392
    24  N   -0.219557
    25  C   -0.003957
    26  C   -0.028916
    27  C    0.001899
    28  C   -0.020737
    29  C    0.065832
    30  C    0.026744
    31  C   -0.008599
    32  N   -0.362089
    33  C    0.142923
    34  C   -0.189885
    35  C    0.039464
    36  C    0.070768
    37  C    0.143852
    38  C    0.011186
    39  O   -0.189841
    40  C    0.005461
    41  C    0.179235
    42  O   -0.228221
    43  O   -0.342859
    44  C    0.180405
    45  H   -0.022452
    46  H   -0.067116
    47  H   -0.047006
    48  H    0.007631
    49  H    0.015466
    50  H    0.019116
    51  H    0.006649
    52  H    0.019691
    53  H    0.017315
    54  H    0.008056
    55  H    0.035232
    56  H    0.040858
    57  H    0.046018
    58  H   -0.003626
    59  H    0.028841
    60  H    0.045403
    61  H    0.039468
    62  H    0.024608
    63  H    0.020014
    64  H    0.015940
    65  H    0.008868
    66  H    0.036932
    67  H    0.015501
    68  H    0.016341
    69  H    0.011564
    70  H    0.016008
    71  H    0.015043
    72  H    0.022407
    73  H    0.021520
    74  H    0.042225
    75  H    0.041816
    76  H    0.048097
    77  H    0.046359
    78  H    0.028330
    79  H    0.044498
    80  Mg   0.815984
    81  C    0.061235
    82  C   -0.041718
    83  C   -0.115230
    84  C   -0.090460
    85  N   -0.274145
    86  C   -0.072817
    87  C    0.029115
    88  C   -0.105844
    89  C    0.020219
    90  C    0.061878
    91  C    0.063529
    92  C   -0.082820
    93  H    0.022999
    94  N   -0.454282
    95  C    0.183559
    96  C   -0.155241
    97  C   -0.020252
    98  C    0.249193
    99  C    0.147977
   100  C   -0.059483
   101  O   -0.208389
   102  C    0.069711
   103  N   -0.300516
   104  C    0.044369
   105  C   -0.028495
   106  C   -0.022833
   107  C    0.032425
   108  C    0.076702
   109  C    0.046879
   110  C    0.037667
   111  N   -0.321507
   112  C    0.100612
   113  C   -0.177565
   114  C    0.038588
   115  C    0.077970
   116  C    0.134575
   117  C    0.030843
   118  O   -0.149640
   119  C   -0.065439
   120  C    0.186053
   121  O   -0.240186
   122  O   -0.329530
   123  C    0.188551
   124  H   -0.024505
   125  H   -0.026447
   126  H   -0.025934
   127  H    0.025422
   128  H    0.016571
   129  H    0.017425
   130  H    0.029706
   131  H    0.010087
   132  H    0.027902
   133  H    0.028716
   134  H    0.041900
   135  H    0.032855
   136  H   -0.022418
   137  H    0.032762
   138  H    0.041402
   139  H    0.021175
   140  H    0.040053
   141  H    0.031083
   142  H    0.007558
   143  H    0.001018
   144  H    0.012648
   145  H    0.023863
   146  H    0.005942
   147  H    0.014796
   148  H   -0.004810
   149  H    0.004486
   150  H    0.009390
   151  H    0.010871
   152  H    0.014703
   153  H    0.043126
   154  H    0.027826
   155  H    0.023732
   156  H    0.040279
   157  H    0.029978
   158  H    0.032594
 Sum of Mulliken charges =  -0.00000

 Dipole moment (field-independent basis, Debye):
    X=             -0.3444    Y=              6.7046    Z=             -1.3097  Tot=              6.8400
 Quadrupole moment (field-independent basis, Debye-Ang):
   XX=           -334.9603   YY=           -563.0376   ZZ=           -504.7304
   XY=            111.2249   XZ=            -54.3814   YZ=            -27.3052

 Normal termination of Gaussian 16 at Thu Sep 16 03:52:07 2021.
