 Gaussian 16, Revision A.03,
 Gaussian 16:  ES64L-G16RevA.03 25-Dec-2016

 ----------------------------------------------------------
 #p cam-b3lyp/Def2SVP td=(nstates=5) density=(transition=1)
 ----------------------------------------------------------

 --------------------------------
 TDDFT excited states in gaussian
 --------------------------------
 Symbolic Z-matrix:
 Charge =  0 Multiplicity = 1

                         Standard orientation:
 ---------------------------------------------------------------------
 Center     Atomic      Atomic             Coordinates (Angstroms)
 Number     Number       Type             X           Y           Z
 ---------------------------------------------------------------------
      1         12           0      -28.876072    0.056677   -0.297883
      2          6           0      -25.554878    0.789711   -0.286056
      3          6           0      -28.291369   -2.175588   -2.978107
      4          6           0      -31.797126   -1.402407    0.404047
      5          6           0      -29.276541    1.927711    2.765037
      6          7           0      -27.139220   -0.551091   -1.457855
      7          6           0      -25.906707   -0.186074   -1.329816
      8          6           0      -24.995475   -0.645350   -2.523070
      9          6           0      -25.981765   -1.356071   -3.526204
     10          6           0      -27.277851   -1.360988   -2.644503
     11          6           0      -26.033850   -0.788829   -4.945486
     12          6           0      -23.720397   -1.548545   -2.017776
     13          6           0      -23.819945   -2.269120   -0.683001
     14          1           0      -22.895629   -3.443851   -0.362820
     15          7           0      -29.888305   -1.574121   -1.172066
     16          6           0      -29.538890   -2.307080   -2.280699
     17          6           0      -30.500447   -3.295223   -2.513879
     18          6           0      -31.540714   -3.140048   -1.518282
     19          6           0      -31.086445   -2.013667   -0.660870
     20          6           0      -30.433654   -4.170020   -3.752297
     21          6           0      -32.800182   -4.021675   -1.438962
     22          8           0      -32.929189   -4.931170   -2.289005
     23          6           0      -33.849315   -3.897245   -0.468765
     24          7           0      -30.309270    0.129132    1.492118
     25          6           0      -31.472111   -0.440082    1.347041
     26          6           0      -32.492307   -0.028662    2.446452
     27          6           0      -31.709508    1.081959    3.180430
     28          6           0      -30.302566    1.118546    2.457644
     29          6           0      -33.791801    0.471808    1.927264
     30          6           0      -31.615952    0.836603    4.759832
     31          6           0      -32.430891    1.843194    5.671838
     32          7           0      -27.755208    1.243871    0.960681
     33          6           0      -28.014560    1.969922    2.129861
     34          6           0      -26.767219    2.693683    2.528219
     35          6           0      -25.808757    2.208042    1.627438
     36          6           0      -26.431920    1.307505    0.713331
     37          6           0      -26.554335    3.620801    3.623322
     38          6           0      -24.444591    2.288120    1.368790
     39          8           0      -23.511713    2.930480    1.872922
     40          6           0      -24.225544    1.457839    0.072202
     41          6           0      -23.583844    2.383226   -0.988817
     42          8           0      -22.557655    2.191014   -1.618529
     43          8           0      -24.318633    3.531575   -1.190505
     44          6           0      -23.795804    4.514224   -2.147217
     45          1           0      -28.001841   -2.870508   -3.768929
     46          1           0      -32.823751   -1.725702    0.587261
     47          1           0      -29.454886    2.621779    3.588868
     48          1           0      -24.704506    0.264610   -3.048544
     49          1           0      -25.761354   -2.418351   -3.635960
     50          1           0      -27.018016   -0.359641   -5.132397
     51          1           0      -25.876178   -1.557547   -5.702886
     52          1           0      -25.265928   -0.054947   -5.190221
     53          1           0      -22.912845   -0.817870   -2.069079
     54          1           0      -23.470337   -2.397310   -2.654668
     55          1           0      -24.855074   -2.609272   -0.667950
     56          1           0      -23.738701   -1.484419    0.069374
     57          1           0      -31.275170   -4.195348   -4.445107
     58          1           0      -30.162743   -5.181314   -3.448089
     59          1           0      -29.587862   -3.853008   -4.362107
     60          1           0      -34.410533   -2.963365   -0.442544
     61          1           0      -33.434516   -3.891733    0.538709
     62          1           0      -34.535888   -4.743159   -0.455479
     63          1           0      -32.824259   -0.782852    3.159850
     64          1           0      -32.094502    2.082460    2.982887
     65          1           0      -34.624035   -0.226262    2.016377
     66          1           0      -33.758744    0.572412    0.841830
     67          1           0      -34.057368    1.407935    2.418156
     68          1           0      -30.579904    0.994487    5.062520
     69          1           0      -32.005462   -0.125401    5.090138
     70          1           0      -32.981027    1.286127    6.429171
     71          1           0      -33.207231    2.297199    5.055849
     72          1           0      -31.670633    2.446296    6.168546
     73          1           0      -27.517083    4.117630    3.745485
     74          1           0      -25.795405    4.358661    3.360689
     75          1           0      -26.174125    3.027273    4.454219
     76          1           0      -23.386081    0.766430    0.141666
     77          1           0      -24.203647    5.492041   -1.890314
     78          1           0      -24.056951    4.398199   -3.198967
     79          1           0      -22.707153    4.536846   -2.204599
     80         12           0       28.814062   -0.468616    0.100704
     81          6           0       25.967633    1.570025    0.291897
     82          6           0       29.787697    1.322149   -2.674075
     83          6           0       31.469307   -2.420511   -0.076667
     84          6           0       27.580908   -2.280190    2.846652
     85          7           0       27.975823    1.288594   -0.956177
     86          6           0       26.782870    1.980335   -0.745530
     87          6           0       26.702008    3.342129   -1.540916
     88          6           0       27.830398    3.102031   -2.525189
     89          6           0       28.608645    1.814649   -2.027471
     90          6           0       27.253096    2.766847   -3.976269
     91          6           0       27.118677    4.441720   -0.466064
     92          6           0       26.292352    5.802337   -0.463323
     93          1           0       25.863355    6.138158   -1.868760
     94          7           0       30.282216   -0.619063   -1.251270
     95          6           0       30.526018    0.161800   -2.300041
     96          6           0       31.731544   -0.204389   -2.995232
     97          6           0       32.347292   -1.168993   -2.173299
     98          6           0       31.319920   -1.499019   -1.115026
     99          6           0       32.231561    0.396721   -4.257513
    100          6           0       33.752188   -1.734658   -2.204272
    101          8           0       34.234928   -2.384752   -1.270066
    102          6           0       34.599757   -1.604271   -3.472822
    103          7           0       29.400024   -2.169096    1.226387
    104          6           0       30.623948   -2.726385    0.940218
    105          6           0       30.944498   -3.764067    2.013920
    106          6           0       29.730132   -3.649908    3.058713
    107          6           0       28.860318   -2.608003    2.405875
    108          6           0       31.202900   -5.160208    1.344859
    109          6           0       30.092103   -3.351918    4.505291
    110          6           0       29.469641   -4.353215    5.528091
    111          7           0       27.117656   -0.394055    1.303418
    112          6           0       26.730614   -1.228975    2.398289
    113          6           0       25.465104   -0.828882    2.901175
    114          6           0       25.145122    0.273171    2.090422
    115          6           0       26.156841    0.444045    1.122812
    116          6           0       24.652518   -1.362474    4.036702
    117          6           0       24.178849    1.295530    1.845343
    118          8           0       23.109761    1.552468    2.347117
    119          6           0       24.747786    2.228850    0.739450
    120          6           0       23.694221    2.463839   -0.281205
    121          8           0       23.253832    1.664026   -1.102052
    122          8           0       23.340851    3.749071   -0.182699
    123          6           0       22.375188    4.239374   -1.143665
    124          1           0       30.279539    1.884282   -3.470500
    125          1           0       32.363107   -3.037774   -0.197215
    126          1           0       27.190253   -2.774890    3.738417
    127          1           0       25.652625    3.442780   -1.816255
    128          1           0       28.508991    3.954320   -2.535059
    129          1           0       26.163324    2.743909   -3.995279
    130          1           0       27.634041    1.791452   -4.278290
    131          1           0       27.662635    3.553528   -4.610014
    132          1           0       28.154822    4.765357   -0.560338
    133          1           0       27.054460    3.952162    0.506044
    134          1           0       26.945834    6.646680   -0.243591
    135          1           0       25.577853    5.835112    0.359591
    136          1           0       33.135028    0.950930   -3.999524
    137          1           0       31.516049    1.105430   -4.672166
    138          1           0       32.470820   -0.340796   -5.023047
    139          1           0       35.326019   -2.395036   -3.286259
    140          1           0       35.047992   -0.619123   -3.607231
    141          1           0       34.138241   -1.898958   -4.415108
    142          1           0       31.860604   -3.591519    2.578716
    143          1           0       29.176359   -4.588699    3.042119
    144          1           0       32.102107   -5.551168    1.821098
    145          1           0       31.288042   -5.122379    0.258802
    146          1           0       30.490985   -5.906284    1.699883
    147          1           0       29.841493   -2.342982    4.831415
    148          1           0       31.156547   -3.584227    4.560915
    149          1           0       28.971190   -5.173021    5.010569
    150          1           0       28.632535   -3.909785    6.066898
    151          1           0       30.229199   -4.763114    6.194110
    152          1           0       25.207754   -0.977121    4.892320
    153          1           0       24.615813   -2.444246    3.910051
    154          1           0       23.656640   -0.923730    4.079791
    155          1           0       24.869994    3.179862    1.259568
    156          1           0       21.484670    3.610338   -1.130443
    157          1           0       22.671712    4.218408   -2.192890
    158          1           0       22.123022    5.251788   -0.827664
 ---------------------------------------------------------------------

 SCF Done:  E(RCAM-B3LYP) =  -4069.80446429     A.U. after   19 cycles

 Excitation energies and oscillator strengths:

 Excited State   1:      Singlet-A      1.7060 eV  726.77 nm  f=0.4366  <S**2>=0.000
     309 -> 315        0.16083
     311 -> 313        0.68871
     309 <- 315        0.10271
 This state for optimization and/or second-order correction.
 Total Energy, E(TD-HF/TD-DFT) =  -4069.74177102
 Copying the excited state density for this state as the 1-particle RhoCI density.

 Excited State   2:      Singlet-A      1.7258 eV  718.41 nm  f=0.3805  <S**2>=0.000
     310 -> 316        0.16127
     312 -> 314        0.68772

 Excited State   3:      Singlet-A      2.2508 eV  550.83 nm  f=0.1197  <S**2>=0.000
     309 -> 313        0.64223
     311 -> 315       -0.27237

 Excited State   4:      Singlet-A      2.2841 eV  542.81 nm  f=0.1219  <S**2>=0.000
     310 -> 314        0.63701
     312 -> 316       -0.28302

 Excited State   5:      Singlet-A      2.9679 eV  417.74 nm  f=0.0000  <S**2>=0.000
     312 -> 313        0.70711

 The electronic state is 1-A.
 Alpha  occ. eigenvalues --  -46.90317 -46.87747 -19.25236 -19.24897 -19.20113
 Alpha  occ. eigenvalues --  -19.19900 -19.18970 -19.18770 -19.17425 -19.17383
 Alpha  occ. eigenvalues --  -14.43201 -14.42219 -14.41927 -14.41599 -14.40542
 Alpha  occ. eigenvalues --  -14.40201 -14.39825 -14.38447 -10.39721 -10.38290
 Alpha  occ. eigenvalues --  -10.36216 -10.34718 -10.34262 -10.33132 -10.33005
 Alpha  occ. eigenvalues --  -10.31883 -10.31775 -10.31507 -10.31342 -10.31272
 Alpha  occ. eigenvalues --  -10.30992 -10.30755 -10.30742 -10.30660 -10.30649
 Alpha  occ. eigenvalues --  -10.30606 -10.30428 -10.30381 -10.30095 -10.29638
 Alpha  occ. eigenvalues --  -10.29305 -10.29267 -10.29045 -10.29029 -10.28987
 Alpha  occ. eigenvalues --  -10.28892 -10.28807 -10.28473 -10.28422 -10.28418
 Alpha  occ. eigenvalues --  -10.28318 -10.28297 -10.27958 -10.27808 -10.27726
 Alpha  occ. eigenvalues --  -10.27565 -10.27529 -10.27507 -10.27504 -10.27179
 Alpha  occ. eigenvalues --  -10.27124 -10.27096 -10.27075 -10.27071 -10.27054
 Alpha  occ. eigenvalues --  -10.27042 -10.26908 -10.26835 -10.26710 -10.26675
 Alpha  occ. eigenvalues --  -10.26612 -10.26512 -10.26406 -10.26204 -10.26160
 Alpha  occ. eigenvalues --  -10.26140 -10.26011 -10.26010 -10.25867 -10.25777
 Alpha  occ. eigenvalues --  -10.25689 -10.25654 -10.25615 -10.25404 -10.24914
 Alpha  occ. eigenvalues --  -10.23562  -3.18724  -3.16457  -1.93602  -1.93213
 Alpha  occ. eigenvalues --   -1.92991  -1.91367  -1.90892  -1.90788  -1.17077
 Alpha  occ. eigenvalues --   -1.16141  -1.10337  -1.09347  -1.09056  -1.07619
 Alpha  occ. eigenvalues --   -1.07353  -1.07061  -1.05038  -1.04964  -1.04513
 Alpha  occ. eigenvalues --   -1.03892  -1.03645  -1.02900  -1.02323  -1.02253
 Alpha  occ. eigenvalues --   -0.93002  -0.92630  -0.89674  -0.89623  -0.89434
 Alpha  occ. eigenvalues --   -0.88991  -0.88462  -0.88400  -0.88327  -0.87956
 Alpha  occ. eigenvalues --   -0.87803  -0.87011  -0.86615  -0.85299  -0.84651
 Alpha  occ. eigenvalues --   -0.84198  -0.83934  -0.83506  -0.82954  -0.82515
 Alpha  occ. eigenvalues --   -0.82333  -0.81823  -0.81464  -0.81250  -0.80358
 Alpha  occ. eigenvalues --   -0.80273  -0.78886  -0.78485  -0.77404  -0.77398
 Alpha  occ. eigenvalues --   -0.76970  -0.76744  -0.76360  -0.75579  -0.75285
 Alpha  occ. eigenvalues --   -0.74958  -0.73404  -0.73081  -0.71958  -0.71384
 Alpha  occ. eigenvalues --   -0.69569  -0.69165  -0.68927  -0.68850  -0.68412
 Alpha  occ. eigenvalues --   -0.67587  -0.67369  -0.66843  -0.66040  -0.65658
 Alpha  occ. eigenvalues --   -0.65393  -0.65222  -0.64993  -0.64873  -0.64548
 Alpha  occ. eigenvalues --   -0.64484  -0.63338  -0.62452  -0.60905  -0.60768
 Alpha  occ. eigenvalues --   -0.59961  -0.59573  -0.59118  -0.58949  -0.58608
 Alpha  occ. eigenvalues --   -0.58526  -0.58027  -0.57743  -0.57279  -0.57256
 Alpha  occ. eigenvalues --   -0.56621  -0.56334  -0.55641  -0.55620  -0.55605
 Alpha  occ. eigenvalues --   -0.55308  -0.54816  -0.54548  -0.54438  -0.53869
 Alpha  occ. eigenvalues --   -0.53803  -0.53517  -0.53510  -0.53255  -0.53144
 Alpha  occ. eigenvalues --   -0.52880  -0.52599  -0.52574  -0.52520  -0.52232
 Alpha  occ. eigenvalues --   -0.52135  -0.51751  -0.51492  -0.51293  -0.51252
 Alpha  occ. eigenvalues --   -0.51014  -0.50940  -0.50713  -0.50689  -0.50391
 Alpha  occ. eigenvalues --   -0.50279  -0.50268  -0.49961  -0.49904  -0.49616
 Alpha  occ. eigenvalues --   -0.49568  -0.49240  -0.49228  -0.48998  -0.48822
 Alpha  occ. eigenvalues --   -0.48613  -0.48557  -0.48501  -0.48396  -0.48296
 Alpha  occ. eigenvalues --   -0.47876  -0.47657  -0.47654  -0.47518  -0.47410
 Alpha  occ. eigenvalues --   -0.47186  -0.47157  -0.46838  -0.46755  -0.46719
 Alpha  occ. eigenvalues --   -0.46540  -0.46373  -0.46188  -0.46056  -0.45885
 Alpha  occ. eigenvalues --   -0.45725  -0.45252  -0.45251  -0.45042  -0.45012
 Alpha  occ. eigenvalues --   -0.44868  -0.44686  -0.44599  -0.44532  -0.44455
 Alpha  occ. eigenvalues --   -0.44428  -0.44268  -0.43823  -0.43673  -0.43640
 Alpha  occ. eigenvalues --   -0.43590  -0.43059  -0.42829  -0.42693  -0.42667
 Alpha  occ. eigenvalues --   -0.42591  -0.42324  -0.42253  -0.42072  -0.42004
 Alpha  occ. eigenvalues --   -0.41916  -0.41551  -0.41487  -0.41095  -0.40952
 Alpha  occ. eigenvalues --   -0.40852  -0.40794  -0.40715  -0.40357  -0.40043
 Alpha  occ. eigenvalues --   -0.39986  -0.39836  -0.39713  -0.39069  -0.38789
 Alpha  occ. eigenvalues --   -0.38718  -0.38255  -0.38036  -0.37844  -0.37607
 Alpha  occ. eigenvalues --   -0.37395  -0.36889  -0.36858  -0.36523  -0.36445
 Alpha  occ. eigenvalues --   -0.36393  -0.36287  -0.34808  -0.34296  -0.34218
 Alpha  occ. eigenvalues --   -0.34039  -0.33822  -0.32786  -0.32245  -0.31606
 Alpha  occ. eigenvalues --   -0.31370  -0.31076  -0.30916  -0.30878  -0.30173
 Alpha  occ. eigenvalues --   -0.29662  -0.29243  -0.29018  -0.24936  -0.24101
 Alpha  occ. eigenvalues --   -0.21663  -0.21036
 Alpha virt. eigenvalues --   -0.09521  -0.08562  -0.01893  -0.01676  -0.00024
 Alpha virt. eigenvalues --    0.00542   0.00630   0.02216   0.02836   0.03433
 Alpha virt. eigenvalues --    0.05015   0.05264   0.05442   0.05590   0.05905

 Mulliken charges:
               1
     1  Mg  11.998225
     2  C    6.012164
     3  C    6.042161
     4  C    5.995051
     5  C    5.962484
     6  N    7.022719
     7  C    6.022813
     8  C    5.993986
     9  C    6.012798
    10  C    5.950408
    11  C    5.999237
    12  C    5.998483
    13  C    5.991064
    14  H    1.011654
    15  N    7.001728
    16  C    5.942663
    17  C    5.992032
    18  C    5.977129
    19  C    5.967847
    20  C    6.008064
    21  C    5.987136
    22  O    7.973260
    23  C    6.008922
    24  N    6.975639
    25  C    5.987201
    26  C    6.009900
    27  C    5.993297
    28  C    6.041267
    29  C    6.001864
    30  C    5.999747
    31  C    5.999672
    32  N    6.998397
    33  C    6.057070
    34  C    6.020562
    35  C    6.013147
    36  C    6.019838
    37  C    5.997216
    38  C    6.016685
    39  O    8.036425
    40  C    5.993204
    41  C    6.005359
    42  O    8.012600
    43  O    7.995392
    44  C    5.994876
    45  H    0.994683
    46  H    0.984087
    47  H    1.003868
    48  H    1.000777
    49  H    1.000234
    50  H    1.002366
    51  H    1.000008
    52  H    0.988588
    53  H    0.997082
    54  H    1.010152
    55  H    1.011719
    56  H    0.987982
    57  H    0.982249
    58  H    0.980270
    59  H    0.977827
    60  H    0.987842
    61  H    0.989595
    62  H    0.984290
    63  H    0.996214
    64  H    0.998648
    65  H    1.000893
    66  H    1.004032
    67  H    0.986866
    68  H    0.993324
    69  H    1.008290
    70  H    1.003288
    71  H    1.004284
    72  H    0.995653
    73  H    1.017523
    74  H    1.013613
    75  H    1.019596
    76  H    1.013695
    77  H    1.004114
    78  H    1.009919
    79  H    1.005044
    80  Mg  11.999966
    81  C    6.000527
    82  C    5.999912
    83  C    5.999502
    84  C    6.000104
    85  N    7.000273
    86  C    5.999407
    87  C    6.000059
    88  C    5.999963
    89  C    6.000292
    90  C    5.999944
    91  C    6.000004
    92  C    6.000043
    93  H    0.999897
    94  N    6.999827
    95  C    6.000518
    96  C    6.000352
    97  C    6.000164
    98  C    6.000668
    99  C    5.999871
   100  C    6.000191
   101  O    8.000402
   102  C    5.999876
   103  N    6.999896
   104  C    6.000593
   105  C    5.999788
   106  C    6.000167
   107  C    5.999620
   108  C    5.999923
   109  C    6.000098
   110  C    6.000008
   111  N    7.000005
   112  C    5.999455
   113  C    5.999617
   114  C    5.999939
   115  C    5.999482
   116  C    6.000020
   117  C    5.999730
   118  O    7.999510
   119  C    5.999910
   120  C    5.999951
   121  O    7.999921
   122  O    7.999983
   123  C    6.000047
   124  H    1.000205
   125  H    1.000067
   126  H    0.999776
   127  H    1.000035
   128  H    1.000046
   129  H    1.000186
   130  H    0.999946
   131  H    1.000064
   132  H    0.999854
   133  H    1.000105
   134  H    0.999957
   135  H    1.000037
   136  H    1.000301
   137  H    1.000243
   138  H    1.000300
   139  H    1.000221
   140  H    1.000131
   141  H    1.000122
   142  H    1.000059
   143  H    0.999960
   144  H    1.000069
   145  H    0.999928
   146  H    1.000152
   147  H    1.000008
   148  H    0.999837
   149  H    0.999974
   150  H    1.000035
   151  H    0.999929
   152  H    0.999759
   153  H    0.999783
   154  H    0.999777
   155  H    0.999918
   156  H    0.999957
   157  H    0.999913
   158  H    0.999922
 Sum of Mulliken charges = 624.00000

 Dipole moment (field-independent basis, Debye):
    X=              8.0113    Y=              7.1869    Z=              4.3746  Tot=             11.6176
 Quadrupole moment (field-independent basis, Debye-Ang):
   XX=           -441.7639   YY=             -5.1011   ZZ=             -0.6079
   XY=           -209.8180   XZ=           -131.6089   YZ=             -2.6505

 Normal termination of Gaussian 16 at Wed Sep 22 02:19:36 2021.
