 Gaussian 16, Revision A.03,
 Gaussian 16:  ES64L-G16RevA.03 25-Dec-2016

 -----------------------------------
 #p cam-b3lyp/Def2SVP td=(nstates=5)
 -----------------------------------

 --------------------------------
 TDDFT excited states in gaussian
 --------------------------------
 Symbolic Z-matrix:
 Charge =  0 Multiplicity = 1

                         Standard orientation:
 ---------------------------------------------------------------------
 Center     Atomic      Atomic             Coordinates (Angstroms)
 Number     Number       Type             X           Y           Z
 ---------------------------------------------------------------------
      1         12           0       29.855587    0.452613    0.518677
      2          6           0       29.441900   -2.203857   -1.628330
      3          6           0       29.141207    2.594899   -2.156927
      4          6           0       30.334420    3.118527    2.533126
      5          6           0       30.901301   -1.657168    2.962559
      6          7           0       29.605597    0.191389   -1.733704
      7          6           0       29.237401   -1.032247   -2.306773
      8          6           0       28.600689   -0.851455   -3.698938
      9          6           0       28.643238    0.715070   -3.836185
     10          6           0       29.108658    1.251715   -2.499629
     11          6           0       29.520473    1.190599   -4.987392
     12          6           0       27.169318   -1.432442   -3.977675
     13          6           0       27.062091   -2.661022   -5.034451
     14          1           0       26.160118   -2.297644   -6.218047
     15          7           0       29.859085    2.522506    0.228049
     16          6           0       29.410077    3.200214   -0.916962
     17          6           0       29.228514    4.631498   -0.653445
     18          6           0       29.660985    4.873919    0.760290
     19          6           0       29.921990    3.475377    1.287924
     20          6           0       28.737597    5.609337   -1.698143
     21          6           0       29.776759    6.099593    1.537087
     22          8           0       30.258428    6.060965    2.678918
     23          6           0       29.395497    7.465041    0.992564
     24          7           0       30.582912    0.654576    2.376712
     25          6           0       30.579816    1.859442    3.103679
     26          6           0       30.934171    1.715248    4.638830
     27          6           0       31.140001    0.114555    4.701629
     28          6           0       30.835962   -0.322798    3.250860
     29          6           0       32.228055    2.547068    5.107001
     30          6           0       30.195001   -0.550631    5.760575
     31          6           0       30.734191   -1.693313    6.562769
     32          7           0       30.219026   -1.559793    0.599177
     33          6           0       30.603515   -2.309856    1.714302
     34          6           0       30.524126   -3.704225    1.441458
     35          6           0       29.958683   -3.712439    0.112849
     36          6           0       29.883805   -2.387757   -0.335898
     37          6           0       30.791080   -4.876881    2.288587
     38          6           0       29.612698   -4.574698   -0.973474
     39          8           0       29.541528   -5.798599   -1.130329
     40          6           0       29.399098   -3.594984   -2.215051
     41          6           0       30.431426   -3.893704   -3.242663
     42          8           0       31.432058   -3.330317   -3.455818
     43          8           0       29.999217   -4.925772   -4.072283
     44          6           0       30.579550   -4.929703   -5.399060
     45          1           0       28.831006    3.251163   -2.972775
     46          1           0       30.455984    3.885405    3.300880
     47          1           0       31.091287   -2.346238    3.788068
     48          1           0       29.275219   -1.270151   -4.445024
     49          1           0       27.668276    1.123528   -4.103552
     50          1           0       30.373187    1.730663   -4.576788
     51          1           0       28.862398    1.876913   -5.518950
     52          1           0       29.823597    0.425232   -5.701521
     53          1           0       26.543016   -0.615551   -4.337067
     54          1           0       26.722753   -1.836523   -3.069053
     55          1           0       26.546177   -3.420449   -4.446645
     56          1           0       28.053376   -2.952661   -5.380726
     57          1           0       29.561000    5.754419   -2.398566
     58          1           0       28.507503    6.548162   -1.196743
     59          1           0       27.926933    5.217843   -2.313060
     60          1           0       29.885465    8.185427    1.647923
     61          1           0       28.319434    7.634427    0.941658
     62          1           0       29.835196    7.764930    0.041543
     63          1           0       30.053636    1.932945    5.242414
     64          1           0       32.131848   -0.209281    5.017844
     65          1           0       32.785594    1.940458    5.820941
     66          1           0       32.046435    3.446708    5.693758
     67          1           0       32.875066    2.832112    4.277168
     68          1           0       29.230656   -0.861646    5.359152
     69          1           0       29.928500    0.131360    6.567792
     70          1           0       30.160389   -2.556789    6.226606
     71          1           0       30.533675   -1.762135    7.631959
     72          1           0       31.794052   -1.828826    6.344823
     73          1           0       30.627195   -4.592754    3.328430
     74          1           0       31.852432   -5.073713    2.137782
     75          1           0       30.250959   -5.731298    1.880296
     76          1           0       28.414225   -3.756375   -2.652604
     77          1           0       31.581163   -5.328921   -5.243059
     78          1           0       30.631215   -3.882966   -5.698252
     79          1           0       30.025686   -5.579026   -6.077688
     80         12           0      -30.225318   -0.662628   -0.282933
     81          6           0      -28.465294    2.452528   -0.493933
     82          6           0      -27.266906   -2.047206    1.077146
     83          6           0      -32.013136   -3.347451    0.642119
     84          6           0      -33.143097    1.041660   -0.986738
     85          7           0      -28.077686    0.098287    0.235165
     86          6           0      -27.695928    1.399719    0.065718
     87          6           0      -26.371796    1.639024    0.773713
     88          6           0      -25.940856    0.127436    0.985320
     89          6           0      -27.138079   -0.718217    0.771908
     90          6           0      -24.758819   -0.410440    0.110836
     91          6           0      -26.586446    2.559514    2.017804
     92          6           0      -25.587795    3.757395    2.294489
     93          1           0      -24.755927    3.773308    3.589523
     94          7           0      -29.733581   -2.464375    0.513453
     95          6           0      -28.467058   -2.876761    1.005220
     96          6           0      -28.524763   -4.251017    1.468086
     97          6           0      -29.927052   -4.614249    1.340763
     98          6           0      -30.600907   -3.447018    0.803523
     99          6           0      -27.356699   -4.917933    2.065594
    100          6           0      -30.463329   -6.008180    1.710514
    101          8           0      -29.633228   -6.805843    2.236378
    102          6           0      -31.910157   -6.499058    1.491388
    103          7           0      -32.344488   -1.082347    0.091638
    104          6           0      -32.823645   -2.295051    0.291839
    105          6           0      -34.316248   -2.219191    0.306636
    106          6           0      -34.630383   -0.816289   -0.278437
    107          6           0      -33.274814   -0.181081   -0.326643
    108          6           0      -35.175686   -3.358297   -0.391279
    109          6           0      -35.694440    0.060104    0.563376
    110          6           0      -37.047518    0.416079   -0.099882
    111          7           0      -30.716653    1.234301   -0.847359
    112          6           0      -31.916791    1.783858   -1.098838
    113          6           0      -31.800697    3.153431   -1.443329
    114          6           0      -30.445372    3.436868   -1.259435
    115          6           0      -29.811796    2.237001   -0.848142
    116          6           0      -32.811851    4.127969   -1.897304
    117          6           0      -29.529573    4.534176   -1.316817
    118          8           0      -29.762036    5.697966   -1.555775
    119          6           0      -28.112772    3.897589   -0.738600
    120          6           0      -27.058298    4.026244   -1.751411
    121          8           0      -27.189382    3.794095   -2.959899
    122          8           0      -25.916989    4.418866   -1.085241
    123          6           0      -24.722317    4.616413   -1.904409
    124          1           0      -26.385731   -2.533221    1.498760
    125          1           0      -32.654435   -4.146536    1.018879
    126          1           0      -33.990460    1.565628   -1.434240
    127          1           0      -25.690725    2.034439    0.019690
    128          1           0      -25.774454    0.171891    2.062267
    129          1           0      -25.128219   -1.280803   -0.433371
    130          1           0      -23.897060   -0.750317    0.684829
    131          1           0      -24.405141    0.263768   -0.669799
    132          1           0      -26.493212    1.812172    2.805455
    133          1           0      -27.583684    2.984396    2.129990
    134          1           0      -26.208361    4.651312    2.234702
    135          1           0      -24.963335    3.885909    1.410910
    136          1           0      -26.997311   -4.255730    2.853616
    137          1           0      -26.549246   -4.977545    1.336118
    138          1           0      -27.468314   -5.954539    2.384620
    139          1           0      -32.550036   -5.988731    2.211454
    140          1           0      -31.811994   -7.580822    1.406697
    141          1           0      -32.133612   -6.138906    0.486602
    142          1           0      -34.618812   -2.283667    1.351082
    143          1           0      -34.865329   -1.057442   -1.315213
    144          1           0      -36.109591   -3.372311    0.171174
    145          1           0      -34.619291   -4.293771   -0.334970
    146          1           0      -35.355039   -3.025611   -1.413804
    147          1           0      -35.136013    0.960362    0.819353
    148          1           0      -35.828493   -0.429928    1.527652
    149          1           0      -37.291447    1.474566   -0.019716
    150          1           0      -37.830457   -0.180933    0.368507
    151          1           0      -37.112971    0.121133   -1.147342
    152          1           0      -32.353622    4.988513   -2.383706
    153          1           0      -33.230627    4.365028   -0.919109
    154          1           0      -33.635454    3.572621   -2.345867
    155          1           0      -27.871345    4.298112    0.245327
    156          1           0      -24.918598    5.271842   -2.753234
    157          1           0      -24.345262    3.650947   -2.244963
    158          1           0      -23.958352    5.098680   -1.294546
 ---------------------------------------------------------------------

 SCF Done:  E(RCAM-B3LYP) =  -4069.77975695     A.U. after   18 cycles

 Excitation energies and oscillator strengths:

 Excited State   1:      Singlet-A      1.6721 eV  741.51 nm  f=0.4037  <S**2>=0.000
     309 -> 315        0.15727
     311 -> 313        0.68849
 This state for optimization and/or second-order correction.
 Total Energy, E(TD-HF/TD-DFT) =  -4069.71831020
 Copying the excited state density for this state as the 1-particle RhoCI density.

 Excited State   2:      Singlet-A      1.6989 eV  729.78 nm  f=0.3949  <S**2>=0.000
     310 -> 316       -0.18538
     312 -> 314        0.68535
     310 <- 316       -0.11151

 Excited State   3:      Singlet-A      2.1913 eV  565.81 nm  f=0.1265  <S**2>=0.000
     309 -> 313        0.64543
     311 -> 315       -0.25763

 Excited State   4:      Singlet-A      2.2522 eV  550.50 nm  f=0.1329  <S**2>=0.000
     310 -> 314        0.64099
     312 -> 316        0.28912

 Excited State   5:      Singlet-A      3.1173 eV  397.73 nm  f=0.0000  <S**2>=0.000
     312 -> 313        0.70711

 The electronic state is 1-A.
 Alpha  occ. eigenvalues --  -46.88924 -46.87943 -19.26296 -19.22185 -19.20580
 Alpha  occ. eigenvalues --  -19.19759 -19.19601 -19.18873 -19.18149 -19.17967
 Alpha  occ. eigenvalues --  -14.42576 -14.42012 -14.41951 -14.41418 -14.40287
 Alpha  occ. eigenvalues --  -14.39950 -14.39844 -14.38598 -10.40117 -10.38123
 Alpha  occ. eigenvalues --  -10.35467 -10.35349 -10.35262 -10.34220 -10.32474
 Alpha  occ. eigenvalues --  -10.31844 -10.31302 -10.31208 -10.31065 -10.31047
 Alpha  occ. eigenvalues --  -10.30791 -10.30775 -10.30654 -10.30633 -10.30483
 Alpha  occ. eigenvalues --  -10.30416 -10.30346 -10.30328 -10.30295 -10.29774
 Alpha  occ. eigenvalues --  -10.29545 -10.29303 -10.29253 -10.29099 -10.28968
 Alpha  occ. eigenvalues --  -10.28751 -10.28580 -10.28573 -10.28270 -10.28266
 Alpha  occ. eigenvalues --  -10.28119 -10.27876 -10.27797 -10.27767 -10.27728
 Alpha  occ. eigenvalues --  -10.27644 -10.27626 -10.27608 -10.27536 -10.27504
 Alpha  occ. eigenvalues --  -10.27488 -10.27485 -10.27474 -10.27326 -10.27248
 Alpha  occ. eigenvalues --  -10.27215 -10.27177 -10.27014 -10.26801 -10.26692
 Alpha  occ. eigenvalues --  -10.26553 -10.26506 -10.26497 -10.26474 -10.26453
 Alpha  occ. eigenvalues --  -10.26424 -10.26252 -10.26202 -10.26090 -10.25996
 Alpha  occ. eigenvalues --  -10.25895 -10.25839 -10.25339 -10.25065 -10.24580
 Alpha  occ. eigenvalues --  -10.24503  -3.17478  -3.16705  -1.92368  -1.91922
 Alpha  occ. eigenvalues --   -1.91795  -1.91574  -1.91170  -1.91022  -1.16792
 Alpha  occ. eigenvalues --   -1.16566  -1.10840  -1.09578  -1.08190  -1.08132
 Alpha  occ. eigenvalues --   -1.07733  -1.07258  -1.05469  -1.04743  -1.04650
 Alpha  occ. eigenvalues --   -1.03761  -1.03450  -1.02357  -1.02082  -1.00642
 Alpha  occ. eigenvalues --   -0.93200  -0.92606  -0.89344  -0.89204  -0.88636
 Alpha  occ. eigenvalues --   -0.88517  -0.88302  -0.88151  -0.87990  -0.87493
 Alpha  occ. eigenvalues --   -0.87366  -0.87219  -0.86693  -0.86024  -0.84654
 Alpha  occ. eigenvalues --   -0.84242  -0.83877  -0.83480  -0.82745  -0.82423
 Alpha  occ. eigenvalues --   -0.82036  -0.81910  -0.81384  -0.80884  -0.80504
 Alpha  occ. eigenvalues --   -0.80243  -0.78795  -0.78240  -0.77665  -0.77421
 Alpha  occ. eigenvalues --   -0.76897  -0.76711  -0.76318  -0.75363  -0.75279
 Alpha  occ. eigenvalues --   -0.75250  -0.73214  -0.73085  -0.72232  -0.71707
 Alpha  occ. eigenvalues --   -0.69829  -0.69406  -0.69346  -0.68709  -0.68503
 Alpha  occ. eigenvalues --   -0.67963  -0.67569  -0.66768  -0.66172  -0.65689
 Alpha  occ. eigenvalues --   -0.65654  -0.65321  -0.65136  -0.65014  -0.64783
 Alpha  occ. eigenvalues --   -0.63904  -0.62980  -0.60875  -0.60205  -0.60162
 Alpha  occ. eigenvalues --   -0.59921  -0.59565  -0.59419  -0.59018  -0.58936
 Alpha  occ. eigenvalues --   -0.58478  -0.58451  -0.58312  -0.57713  -0.57612
 Alpha  occ. eigenvalues --   -0.56523  -0.56258  -0.56003  -0.55668  -0.55592
 Alpha  occ. eigenvalues --   -0.55304  -0.54879  -0.54523  -0.53945  -0.53713
 Alpha  occ. eigenvalues --   -0.53645  -0.53311  -0.53283  -0.53013  -0.52955
 Alpha  occ. eigenvalues --   -0.52689  -0.52651  -0.52298  -0.52171  -0.52115
 Alpha  occ. eigenvalues --   -0.51782  -0.51621  -0.51433  -0.51381  -0.51247
 Alpha  occ. eigenvalues --   -0.51206  -0.50772  -0.50600  -0.50575  -0.50355
 Alpha  occ. eigenvalues --   -0.50144  -0.50048  -0.50022  -0.49990  -0.49806
 Alpha  occ. eigenvalues --   -0.49641  -0.49585  -0.49427  -0.48985  -0.48804
 Alpha  occ. eigenvalues --   -0.48605  -0.48553  -0.48482  -0.48095  -0.48036
 Alpha  occ. eigenvalues --   -0.47957  -0.47759  -0.47671  -0.47610  -0.47468
 Alpha  occ. eigenvalues --   -0.47296  -0.47049  -0.46968  -0.46849  -0.46664
 Alpha  occ. eigenvalues --   -0.46507  -0.46473  -0.46160  -0.46144  -0.46011
 Alpha  occ. eigenvalues --   -0.45952  -0.45640  -0.45420  -0.45394  -0.45292
 Alpha  occ. eigenvalues --   -0.44999  -0.44992  -0.44653  -0.44558  -0.44176
 Alpha  occ. eigenvalues --   -0.43794  -0.43681  -0.43674  -0.43576  -0.43531
 Alpha  occ. eigenvalues --   -0.43350  -0.43293  -0.43102  -0.43077  -0.42965
 Alpha  occ. eigenvalues --   -0.42926  -0.42825  -0.42527  -0.42340  -0.42000
 Alpha  occ. eigenvalues --   -0.41669  -0.41542  -0.41435  -0.41245  -0.41193
 Alpha  occ. eigenvalues --   -0.41123  -0.41040  -0.40871  -0.40651  -0.40353
 Alpha  occ. eigenvalues --   -0.40245  -0.40150  -0.39907  -0.39080  -0.38944
 Alpha  occ. eigenvalues --   -0.38761  -0.38726  -0.38266  -0.37836  -0.37742
 Alpha  occ. eigenvalues --   -0.37702  -0.37656  -0.37089  -0.36465  -0.36136
 Alpha  occ. eigenvalues --   -0.35869  -0.35208  -0.34935  -0.34473  -0.34129
 Alpha  occ. eigenvalues --   -0.34100  -0.33201  -0.33034  -0.31563  -0.31449
 Alpha  occ. eigenvalues --   -0.31347  -0.31143  -0.30349  -0.30127  -0.30046
 Alpha  occ. eigenvalues --   -0.29794  -0.29386  -0.29290  -0.24395  -0.24187
 Alpha  occ. eigenvalues --   -0.21480  -0.21329
 Alpha virt. eigenvalues --   -0.09301  -0.08945  -0.02190  -0.01748  -0.00253
 Alpha virt. eigenvalues --    0.00266   0.01923   0.02284   0.02399   0.02409
 Alpha virt. eigenvalues --    0.04230   0.04990   0.05103   0.05336   0.05813

 Mulliken charges:
               1
     1  Mg   0.825918
     2  C    0.028321
     3  C   -0.094177
     4  C   -0.058308
     5  C   -0.101664
     6  N   -0.299867
     7  C   -0.077955
     8  C    0.037510
     9  C   -0.089639
    10  C    0.070717
    11  C    0.065647
    12  C    0.032586
    13  C   -0.092731
    14  H    0.019542
    15  N   -0.403856
    16  C    0.188363
    17  C   -0.166137
    18  C    0.011994
    19  C    0.173247
    20  C    0.129754
    21  C   -0.020938
    22  O   -0.222349
    23  C    0.027946
    24  N   -0.333155
    25  C    0.018324
    26  C    0.006444
    27  C   -0.041506
    28  C    0.114556
    29  C    0.047026
    30  C    0.002771
    31  C   -0.000924
    32  N   -0.324946
    33  C    0.108886
    34  C   -0.169632
    35  C    0.001156
    36  C    0.101962
    37  C    0.151114
    38  C    0.020493
    39  O   -0.181735
    40  C   -0.047718
    41  C    0.190010
    42  O   -0.156549
    43  O   -0.359258
    44  C    0.189242
    45  H   -0.036585
    46  H   -0.001670
    47  H   -0.045771
    48  H    0.009261
    49  H    0.006932
    50  H    0.028682
    51  H    0.005716
    52  H    0.024042
    53  H    0.019488
    54  H    0.016447
    55  H    0.052514
    56  H    0.038967
    57  H    0.034339
    58  H    0.012939
    59  H    0.031445
    60  H    0.024680
    61  H    0.050718
    62  H    0.032349
    63  H    0.025043
    64  H    0.015896
    65  H    0.012302
    66  H    0.024140
    67  H    0.035872
    68  H    0.008785
    69  H    0.005450
    70  H    0.005631
    71  H    0.014994
    72  H    0.015311
    73  H    0.020597
    74  H    0.030244
    75  H    0.042924
    76  H    0.023844
    77  H    0.031517
    78  H    0.021526
    79  H    0.040949
    80  Mg   0.845462
    81  C   -0.112937
    82  C   -0.073114
    83  C   -0.090975
    84  C   -0.092583
    85  N   -0.247124
    86  C   -0.075144
    87  C   -0.009323
    88  C   -0.029572
    89  C    0.035770
    90  C    0.076718
    91  C    0.033489
    92  C   -0.045958
    93  H    0.033751
    94  N   -0.393808
    95  C    0.113880
    96  C   -0.127916
    97  C   -0.056953
    98  C    0.207455
    99  C    0.128623
   100  C   -0.019429
   101  O   -0.248920
   102  C    0.082582
   103  N   -0.275367
   104  C   -0.016070
   105  C   -0.039379
   106  C   -0.051977
   107  C    0.065265
   108  C    0.078735
   109  C    0.053581
   110  C    0.008850
   111  N   -0.340869
   112  C    0.091974
   113  C   -0.194203
   114  C   -0.020888
   115  C    0.159309
   116  C    0.167679
   117  C    0.065253
   118  O   -0.152086
   119  C    0.021589
   120  C    0.224358
   121  O   -0.224389
   122  O   -0.341396
   123  C    0.178518
   124  H   -0.025605
   125  H   -0.057468
   126  H   -0.022560
   127  H   -0.004144
   128  H    0.003347
   129  H    0.016665
   130  H    0.023080
   131  H    0.015138
   132  H    0.006911
   133  H    0.030314
   134  H    0.025810
   135  H    0.020581
   136  H    0.025871
   137  H    0.010146
   138  H    0.043823
   139  H    0.062296
   140  H    0.038788
   141  H    0.023406
   142  H    0.011770
   143  H    0.009061
   144  H    0.018298
   145  H    0.020285
   146  H    0.011088
   147  H    0.009905
   148  H    0.000820
   149  H    0.024634
   150  H    0.014044
   151  H    0.012623
   152  H    0.056976
   153  H    0.022581
   154  H    0.007153
   155  H    0.030631
   156  H    0.047766
   157  H    0.034985
   158  H    0.038521
 Sum of Mulliken charges =  -0.00000

 Dipole moment (field-independent basis, Debye):
    X=             -4.0461    Y=              4.4151    Z=              0.5683  Tot=              6.0156
 Quadrupole moment (field-independent basis, Debye-Ang):
   XX=           -559.7700   YY=           -578.7003   ZZ=           -492.5991
   XY=            157.5812   XZ=             -6.8989   YZ=             -2.5684

 Normal termination of Gaussian 16 at Thu Sep 16 08:43:52 2021.
