 Gaussian 16, Revision A.03,
 Gaussian 16:  ES64L-G16RevA.03 25-Dec-2016

 ----------------------------------------------------------
 #p cam-b3lyp/Def2SVP td=(nstates=5) density=(transition=1)
 ----------------------------------------------------------

 --------------------------------
 TDDFT excited states in gaussian
 --------------------------------
 Symbolic Z-matrix:
 Charge =  0 Multiplicity = 1

                         Standard orientation:
 ---------------------------------------------------------------------
 Center     Atomic      Atomic             Coordinates (Angstroms)
 Number     Number       Type             X           Y           Z
 ---------------------------------------------------------------------
      1         12           0      -20.291772   -0.706284   -0.018766
      2          6           0      -20.133402    2.649297   -0.992385
      3          6           0      -20.603550    0.457354    3.234960
      4          6           0      -20.009863   -3.799671    0.941835
      5          6           0      -19.732871   -1.613009   -3.396510
      6          7           0      -19.956047    1.362341    1.067022
      7          6           0      -20.076518    2.535557    0.437361
      8          6           0      -20.150875    3.603581    1.476806
      9          6           0      -19.853393    2.884361    2.815387
     10          6           0      -20.180087    1.467581    2.386656
     11          6           0      -18.473549    3.017817    3.462058
     12          6           0      -21.545319    4.306532    1.492496
     13          6           0      -21.607035    5.868148    1.481080
     14          1           0      -20.446170    6.680307    2.135444
     15          7           0      -20.455826   -1.584378    1.864262
     16          6           0      -20.771823   -0.907436    3.034757
     17          6           0      -20.926418   -1.899909    4.048008
     18          6           0      -20.627322   -3.182806    3.436239
     19          6           0      -20.356429   -2.924963    2.029818
     20          6           0      -21.217008   -1.598715    5.534594
     21          6           0      -20.521004   -4.594091    4.082378
     22          8           0      -20.248004   -5.588553    3.488298
     23          6           0      -20.857916   -4.675287    5.558279
     24          7           0      -19.937538   -2.422948   -1.103341
     25          6           0      -19.798364   -3.597986   -0.449661
     26          6           0      -19.514923   -4.808218   -1.381635
     27          6           0      -19.701528   -4.110746   -2.797133
     28          6           0      -19.826930   -2.631417   -2.452604
     29          6           0      -18.034502   -5.435381   -1.078895
     30          6           0      -20.842620   -4.735431   -3.659967
     31          6           0      -22.193894   -4.043330   -3.658441
     32          7           0      -20.022084    0.260537   -1.894922
     33          6           0      -19.899231   -0.235180   -3.164854
     34          6           0      -19.831109    0.928651   -4.116788
     35          6           0      -19.923159    2.067985   -3.285732
     36          6           0      -19.998165    1.635328   -1.920377
     37          6           0      -19.531882    0.897335   -5.590993
     38          6           0      -19.944358    3.528574   -3.268668
     39          8           0      -19.858625    4.300408   -4.228093
     40          6           0      -20.241206    3.919020   -1.823853
     41          6           0      -19.205381    4.943411   -1.458668
     42          8           0      -18.049351    4.698614   -1.165957
     43          8           0      -19.756850    6.119014   -1.711389
     44          6           0      -18.882855    7.273277   -1.850471
     45          1           0      -20.557303    0.811274    4.266522
     46          1           0      -20.093082   -4.852754    1.217372
     47          1           0      -19.575657   -1.894624   -4.440088
     48          1           0      -19.400907    4.360819    1.250457
     49          1           0      -20.535834    3.318578    3.546140
     50          1           0      -17.761334    3.668356    2.954154
     51          1           0      -18.009370    2.036610    3.565265
     52          1           0      -18.648265    3.416610    4.461082
     53          1           0      -22.208438    3.940152    2.275889
     54          1           0      -21.942324    3.917275    0.555067
     55          1           0      -22.528112    6.086835    2.022825
     56          1           0      -21.705467    6.203360    0.448901
     57          1           0      -20.505063   -2.064898    6.215772
     58          1           0      -22.158269   -2.035257    5.868960
     59          1           0      -21.274805   -0.536896    5.777597
     60          1           0      -21.815427   -4.213254    5.799583
     61          1           0      -20.028020   -4.241065    6.115934
     62          1           0      -20.815404   -5.709484    5.899886
     63          1           0      -20.236982   -5.614184   -1.251830
     64          1           0      -18.839479   -4.237021   -3.451982
     65          1           0      -17.438166   -5.145285   -1.944059
     66          1           0      -18.008914   -6.524782   -1.112717
     67          1           0      -17.532821   -4.995935   -0.216005
     68          1           0      -21.041535   -5.689895   -3.172395
     69          1           0      -20.530609   -4.933733   -4.685155
     70          1           0      -22.360231   -3.795321   -2.609436
     71          1           0      -22.838062   -4.838937   -4.032086
     72          1           0      -22.334318   -3.090030   -4.167305
     73          1           0      -19.263278   -0.054000   -6.050347
     74          1           0      -18.697431    1.566769   -5.800403
     75          1           0      -20.399459    1.356329   -6.064007
     76          1           0      -21.166060    4.478582   -1.682348
     77          1           0      -17.801080    7.143691   -1.843469
     78          1           0      -19.099676    7.842807   -0.946220
     79          1           0      -19.364622    7.983587   -2.522493
     80         12           0       19.722006   -0.674816   -0.278445
     81          6           0       21.639040    2.245735   -0.102329
     82          6           0       17.454528    0.667441    1.677734
     83          6           0       18.294126   -3.773870    0.122583
     84          6           0       22.388233   -2.279049   -1.946733
     85          7           0       19.565086    1.252990    0.558378
     86          6           0       20.395954    2.349344    0.484999
     87          6           0       19.747081    3.591518    1.081808
     88          6           0       18.521499    2.974958    1.829428
     89          6           0       18.441678    1.602932    1.256234
     90          6           0       18.452008    3.045810    3.339616
     91          6           0       19.424275    4.722670    0.053931
     92          6           0       18.796348    5.986918    0.650718
     93          1           0       19.473702    7.301643    0.292689
     94          7           0       18.048650   -1.489865    0.864792
     95          6           0       17.153565   -0.703522    1.498201
     96          6           0       16.055410   -1.509821    1.954159
     97          6           0       16.344838   -2.838247    1.597733
     98          6           0       17.620630   -2.737806    0.838045
     99          6           0       14.875358   -0.966432    2.731831
    100          6           0       15.539624   -4.079865    1.800157
    101          8           0       15.923270   -5.260221    1.582365
    102          6           0       14.094432   -3.985323    2.273924
    103          7           0       20.275647   -2.693401   -0.801273
    104          6           0       19.549061   -3.783257   -0.460785
    105          6           0       20.145981   -5.090943   -1.213756
    106          6           0       21.163724   -4.448933   -2.220737
    107          6           0       21.261904   -3.047999   -1.707984
    108          6           0       20.780613   -6.058397   -0.139695
    109          6           0       20.543761   -4.362379   -3.663189
    110          6           0       19.176532   -3.723002   -3.849300
    111          7           0       21.671473   -0.136381   -0.988524
    112          6           0       22.588739   -0.916967   -1.636895
    113          6           0       23.692221   -0.115081   -1.898778
    114          6           0       23.450036    1.163479   -1.318999
    115          6           0       22.196139    1.100678   -0.770355
    116          6           0       24.982967   -0.479606   -2.543313
    117          6           0       23.962814    2.524090   -1.040103
    118          8           0       25.032592    3.083250   -1.252859
    119          6           0       22.739003    3.312897   -0.315817
    120          6           0       23.231044    4.063423    0.870094
    121          8           0       24.149269    3.666749    1.647559
    122          8           0       22.655677    5.257839    0.836676
    123          6           0       23.342979    6.267464    1.618946
    124          1           0       16.615690    1.096766    2.229755
    125          1           0       17.834152   -4.761066    0.210080
    126          1           0       23.134029   -2.769205   -2.574476
    127          1           0       20.528763    4.020593    1.708968
    128          1           0       17.573246    3.425827    1.534782
    129          1           0       19.076767    3.794574    3.826535
    130          1           0       18.666211    2.059557    3.752221
    131          1           0       17.395657    3.090336    3.605385
    132          1           0       18.787674    4.326875   -0.737805
    133          1           0       20.343570    5.011454   -0.454533
    134          1           0       19.035219    6.086419    1.709409
    135          1           0       17.720569    6.016151    0.475174
    136          1           0       14.969369    0.075120    3.038901
    137          1           0       14.722697   -1.393721    3.722600
    138          1           0       13.927364   -1.054676    2.200259
    139          1           0       14.104879   -3.643684    3.308576
    140          1           0       13.650765   -4.968537    2.428965
    141          1           0       13.455211   -3.417899    1.596550
    142          1           0       19.333839   -5.639740   -1.690593
    143          1           0       22.091180   -5.001483   -2.070498
    144          1           0       20.499289   -5.815372    0.885100
    145          1           0       21.870694   -6.061362   -0.130676
    146          1           0       20.451877   -7.092156   -0.236203
    147          1           0       20.522554   -5.426148   -3.900152
    148          1           0       21.179714   -3.878533   -4.403896
    149          1           0       18.694834   -3.579470   -2.881867
    150          1           0       18.510401   -4.201830   -4.566179
    151          1           0       19.425666   -2.786619   -4.348580
    152          1           0       24.880263   -0.936517   -3.527902
    153          1           0       25.420983   -1.231411   -1.887419
    154          1           0       25.674194    0.360579   -2.601129
    155          1           0       22.423835    4.038056   -1.065649
    156          1           0       23.394445    7.202218    1.059255
    157          1           0       24.376594    6.050191    1.887205
    158          1           0       22.733963    6.418071    2.510900
 ---------------------------------------------------------------------

 SCF Done:  E(RCAM-B3LYP) =  -4069.81821738     A.U. after   19 cycles

 Excitation energies and oscillator strengths:

 Excited State   1:      Singlet-A      1.7145 eV  723.15 nm  f=0.3853  <S**2>=0.000
     309 -> 316        0.16594
     311 -> 313        0.68894
     309 <- 316        0.10308
 This state for optimization and/or second-order correction.
 Total Energy, E(TD-HF/TD-DFT) =  -4069.75521079
 Copying the excited state density for this state as the 1-particle RhoCI density.

 Excited State   2:      Singlet-A      1.7292 eV  716.99 nm  f=0.4043  <S**2>=0.000
     310 -> 315       -0.18714
     312 -> 314        0.68365
     310 <- 315       -0.10974

 Excited State   3:      Singlet-A      2.1454 eV  577.92 nm  f=0.1683  <S**2>=0.000
     309 -> 313        0.66339
     311 -> 316       -0.22680

 Excited State   4:      Singlet-A      2.2139 eV  560.03 nm  f=0.1008  <S**2>=0.000
     310 -> 314        0.64251
     312 -> 315        0.28228

 Excited State   5:      Singlet-A      2.9593 eV  418.96 nm  f=0.0000  <S**2>=0.000
     312 -> 313        0.70710

 The electronic state is 1-A.
 Alpha  occ. eigenvalues --  -46.89381 -46.88838 -19.26663 -19.26308 -19.19693
 Alpha  occ. eigenvalues --  -19.19461 -19.19109 -19.19051 -19.18668 -19.18454
 Alpha  occ. eigenvalues --  -14.42902 -14.41829 -14.41824 -14.41644 -14.39763
 Alpha  occ. eigenvalues --  -14.39361 -14.38784 -14.38025 -10.39240 -10.39202
 Alpha  occ. eigenvalues --  -10.35755 -10.35512 -10.34827 -10.34540 -10.32119
 Alpha  occ. eigenvalues --  -10.32105 -10.32021 -10.31311 -10.31117 -10.31090
 Alpha  occ. eigenvalues --  -10.31015 -10.30836 -10.30782 -10.30686 -10.30628
 Alpha  occ. eigenvalues --  -10.30096 -10.29784 -10.29764 -10.29607 -10.29529
 Alpha  occ. eigenvalues --  -10.29429 -10.29304 -10.29254 -10.29023 -10.28525
 Alpha  occ. eigenvalues --  -10.28421 -10.28328 -10.28313 -10.28305 -10.28253
 Alpha  occ. eigenvalues --  -10.28250 -10.28218 -10.28172 -10.28098 -10.27882
 Alpha  occ. eigenvalues --  -10.27866 -10.27787 -10.27765 -10.27703 -10.27608
 Alpha  occ. eigenvalues --  -10.27193 -10.27170 -10.27071 -10.27060 -10.26738
 Alpha  occ. eigenvalues --  -10.26734 -10.26652 -10.26536 -10.26502 -10.26486
 Alpha  occ. eigenvalues --  -10.26479 -10.26472 -10.26384 -10.26351 -10.26146
 Alpha  occ. eigenvalues --  -10.26122 -10.25993 -10.25951 -10.25842 -10.25668
 Alpha  occ. eigenvalues --  -10.25436 -10.25417 -10.25253 -10.25118 -10.24888
 Alpha  occ. eigenvalues --  -10.24274  -3.17769  -3.17294  -1.92678  -1.92202
 Alpha  occ. eigenvalues --   -1.92194  -1.92083  -1.91785  -1.91555  -1.18384
 Alpha  occ. eigenvalues --   -1.18099  -1.11410  -1.09659  -1.08797  -1.08721
 Alpha  occ. eigenvalues --   -1.08370  -1.05923  -1.05412  -1.05064  -1.04363
 Alpha  occ. eigenvalues --   -1.03822  -1.03338  -1.02648  -1.02460  -1.01909
 Alpha  occ. eigenvalues --   -0.93401  -0.91856  -0.89600  -0.89285  -0.88765
 Alpha  occ. eigenvalues --   -0.88664  -0.88405  -0.88070  -0.87987  -0.87145
 Alpha  occ. eigenvalues --   -0.87140  -0.86283  -0.85682  -0.85580  -0.84804
 Alpha  occ. eigenvalues --   -0.84490  -0.83776  -0.83764  -0.82911  -0.82664
 Alpha  occ. eigenvalues --   -0.81858  -0.81459  -0.81337  -0.80831  -0.80670
 Alpha  occ. eigenvalues --   -0.80070  -0.78881  -0.77956  -0.77587  -0.77389
 Alpha  occ. eigenvalues --   -0.77359  -0.77054  -0.76356  -0.76126  -0.75236
 Alpha  occ. eigenvalues --   -0.75163  -0.72751  -0.72724  -0.71757  -0.71749
 Alpha  occ. eigenvalues --   -0.69911  -0.69573  -0.69182  -0.68941  -0.68351
 Alpha  occ. eigenvalues --   -0.68090  -0.67685  -0.66147  -0.65533  -0.65316
 Alpha  occ. eigenvalues --   -0.65203  -0.65014  -0.64696  -0.64679  -0.64564
 Alpha  occ. eigenvalues --   -0.64387  -0.62857  -0.62742  -0.61017  -0.59899
 Alpha  occ. eigenvalues --   -0.59779  -0.59704  -0.59253  -0.59249  -0.58534
 Alpha  occ. eigenvalues --   -0.58509  -0.58150  -0.57613  -0.57357  -0.57229
 Alpha  occ. eigenvalues --   -0.56913  -0.56209  -0.56052  -0.56036  -0.55803
 Alpha  occ. eigenvalues --   -0.55465  -0.55320  -0.55007  -0.54839  -0.54723
 Alpha  occ. eigenvalues --   -0.54397  -0.53640  -0.53305  -0.53275  -0.53140
 Alpha  occ. eigenvalues --   -0.52985  -0.52927  -0.52567  -0.52536  -0.52070
 Alpha  occ. eigenvalues --   -0.51745  -0.51718  -0.51576  -0.51391  -0.51283
 Alpha  occ. eigenvalues --   -0.51091  -0.50979  -0.50566  -0.50450  -0.50179
 Alpha  occ. eigenvalues --   -0.50113  -0.49727  -0.49526  -0.49450  -0.49245
 Alpha  occ. eigenvalues --   -0.49108  -0.48892  -0.48856  -0.48716  -0.48581
 Alpha  occ. eigenvalues --   -0.48490  -0.48416  -0.48361  -0.48163  -0.48104
 Alpha  occ. eigenvalues --   -0.48009  -0.47349  -0.47241  -0.47201  -0.46942
 Alpha  occ. eigenvalues --   -0.46766  -0.46496  -0.46451  -0.46385  -0.46063
 Alpha  occ. eigenvalues --   -0.45963  -0.45948  -0.45911  -0.45857  -0.45702
 Alpha  occ. eigenvalues --   -0.45638  -0.45444  -0.45403  -0.45182  -0.45051
 Alpha  occ. eigenvalues --   -0.44868  -0.44734  -0.44499  -0.44456  -0.44284
 Alpha  occ. eigenvalues --   -0.43862  -0.43799  -0.43726  -0.43419  -0.43376
 Alpha  occ. eigenvalues --   -0.43301  -0.43208  -0.43109  -0.42992  -0.42877
 Alpha  occ. eigenvalues --   -0.42759  -0.42586  -0.42355  -0.42210  -0.42075
 Alpha  occ. eigenvalues --   -0.41799  -0.41768  -0.41696  -0.41439  -0.41249
 Alpha  occ. eigenvalues --   -0.41237  -0.41047  -0.40867  -0.40768  -0.40500
 Alpha  occ. eigenvalues --   -0.40324  -0.39665  -0.39611  -0.39337  -0.39252
 Alpha  occ. eigenvalues --   -0.38672  -0.38435  -0.37898  -0.37309  -0.37201
 Alpha  occ. eigenvalues --   -0.37151  -0.36921  -0.36764  -0.36578  -0.36440
 Alpha  occ. eigenvalues --   -0.36301  -0.36261  -0.34446  -0.34105  -0.34081
 Alpha  occ. eigenvalues --   -0.33953  -0.33197  -0.32907  -0.31951  -0.31452
 Alpha  occ. eigenvalues --   -0.31153  -0.30823  -0.30793  -0.30423  -0.30106
 Alpha  occ. eigenvalues --   -0.29966  -0.28995  -0.28510  -0.24069  -0.23834
 Alpha  occ. eigenvalues --   -0.21773  -0.21115
 Alpha virt. eigenvalues --   -0.09373  -0.08528  -0.01561  -0.01290  -0.00029
 Alpha virt. eigenvalues --    0.00151   0.01794   0.02501   0.02778   0.02835
 Alpha virt. eigenvalues --    0.04440   0.04655   0.05023   0.05562   0.05679

 Mulliken charges:
               1
     1  Mg  12.000045
     2  C    6.000263
     3  C    5.999545
     4  C    5.999797
     5  C    6.000491
     6  N    6.999973
     7  C    5.999505
     8  C    6.000076
     9  C    5.999825
    10  C    6.000701
    11  C    5.999971
    12  C    6.000049
    13  C    6.000027
    14  H    0.999947
    15  N    6.999822
    16  C    6.000838
    17  C    6.000229
    18  C    6.000315
    19  C    6.000548
    20  C    5.999907
    21  C    6.000287
    22  O    8.000463
    23  C    5.999845
    24  N    7.000113
    25  C    6.000551
    26  C    5.999790
    27  C    6.000201
    28  C    5.999340
    29  C    5.999865
    30  C    6.000045
    31  C    6.000135
    32  N    7.000104
    33  C    5.999197
    34  C    5.999556
    35  C    5.999883
    36  C    5.999459
    37  C    6.000103
    38  C    5.999675
    39  O    7.999482
    40  C    6.000023
    41  C    5.999910
    42  O    7.999954
    43  O    7.999960
    44  C    6.000112
    45  H    1.000195
    46  H    1.000119
    47  H    0.999874
    48  H    0.999997
    49  H    1.000009
    50  H    1.000283
    51  H    0.999996
    52  H    1.000039
    53  H    0.999723
    54  H    1.000087
    55  H    0.999862
    56  H    1.000055
    57  H    1.000364
    58  H    1.000276
    59  H    1.000315
    60  H    1.000053
    61  H    1.000217
    62  H    1.000276
    63  H    0.999985
    64  H    1.000006
    65  H    1.000271
    66  H    1.000085
    67  H    1.000029
    68  H    0.999795
    69  H    0.999973
    70  H    0.999821
    71  H    0.999850
    72  H    1.000094
    73  H    0.999645
    74  H    0.999703
    75  H    0.999599
    76  H    0.999760
    77  H    0.999994
    78  H    0.999857
    79  H    0.999865
    80  Mg  12.006216
    81  C    5.973095
    82  C    6.011089
    83  C    6.028268
    84  C    5.994682
    85  N    6.982046
    86  C    6.038444
    87  C    5.990538
    88  C    6.009492
    89  C    5.962693
    90  C    6.001745
    91  C    5.997022
    92  C    6.002784
    93  H    0.997135
    94  N    7.010411
    95  C    5.956709
    96  C    5.983183
    97  C    5.979013
    98  C    5.963895
    99  C    6.006444
   100  C    5.989734
   101  O    7.965944
   102  C    6.006673
   103  N    7.007914
   104  C    5.968128
   105  C    6.004588
   106  C    5.987309
   107  C    6.029902
   108  C    6.002087
   109  C    5.989336
   110  C    5.997418
   111  N    6.995061
   112  C    6.036103
   113  C    6.031542
   114  C    5.999718
   115  C    6.039094
   116  C    5.997410
   117  C    6.013140
   118  O    8.026705
   119  C    6.005901
   120  C    6.005955
   121  O    8.001375
   122  O    8.002204
   123  C    5.997860
   124  H    0.989757
   125  H    0.998277
   126  H    1.014947
   127  H    0.997849
   128  H    0.997103
   129  H    0.984486
   130  H    1.000286
   131  H    1.000863
   132  H    1.006230
   133  H    0.992620
   134  H    1.003009
   135  H    1.005709
   136  H    0.981951
   137  H    0.980216
   138  H    0.980340
   139  H    0.992465
   140  H    0.984668
   141  H    0.991112
   142  H    1.001978
   143  H    1.003068
   144  H    1.006623
   145  H    0.988974
   146  H    0.999935
   147  H    1.012072
   148  H    0.997629
   149  H    1.016409
   150  H    1.005828
   151  H    0.994702
   152  H    1.021603
   153  H    1.021744
   154  H    1.016344
   155  H    1.004677
   156  H    1.003255
   157  H    1.000618
   158  H    1.006647
 Sum of Mulliken charges = 624.00000

 Dipole moment (field-independent basis, Debye):
    X=              9.4669    Y=              2.4679    Z=             -4.7753  Tot=             10.8865
 Quadrupole moment (field-independent basis, Debye-Ang):
   XX=            375.9010   YY=             -3.6243   ZZ=              0.0985
   XY=             45.0076   XZ=            -99.7007   YZ=              6.5893

 Normal termination of Gaussian 16 at Thu Sep 23 13:43:59 2021.
