 Gaussian 16, Revision A.03,
 Gaussian 16:  ES64L-G16RevA.03 25-Dec-2016

 -----------------------------------
 #p cam-b3lyp/Def2SVP td=(nstates=5)
 -----------------------------------

 --------------------------------
 TDDFT excited states in gaussian
 --------------------------------
 Symbolic Z-matrix:
 Charge =  0 Multiplicity = 1

                         Standard orientation:
 ---------------------------------------------------------------------
 Center     Atomic      Atomic             Coordinates (Angstroms)
 Number     Number       Type             X           Y           Z
 ---------------------------------------------------------------------
      1         12           0      -30.060473    0.553580    0.334064
      2          6           0      -28.607351   -2.465151   -0.523406
      3          6           0      -27.021180    2.168769   -0.530047
      4          6           0      -31.583458    3.611554    0.601417
      5          6           0      -33.138883   -0.966511    0.710523
      6          7           0      -28.032867   -0.133401   -0.308740
      7          6           0      -27.718241   -1.420124   -0.692303
      8          6           0      -26.316554   -1.551506   -1.397750
      9          6           0      -25.663847   -0.136949   -1.027394
     10          6           0      -26.946665    0.738834   -0.537427
     11          6           0      -24.483095   -0.081976    0.015297
     12          6           0      -26.363890   -1.785763   -2.866692
     13          6           0      -25.772691   -3.044702   -3.471457
     14          1           0      -25.252550   -2.920706   -4.912580
     15          7           0      -29.360379    2.625033    0.160721
     16          6           0      -28.044865    3.014113   -0.154590
     17          6           0      -27.933742    4.435964   -0.075633
     18          6           0      -29.331979    4.906404    0.106958
     19          6           0      -30.197789    3.700841    0.291805
     20          6           0      -26.663181    5.219536   -0.421200
     21          6           0      -29.676335    6.406016    0.114909
     22          8           0      -28.904462    7.346963   -0.046201
     23          6           0      -31.113601    6.768983   -0.010891
     24          7           0      -32.194902    1.275135    0.449808
     25          6           0      -32.475616    2.555558    0.727942
     26          6           0      -33.992330    2.701895    0.614327
     27          6           0      -34.576303    1.217590    0.737727
     28          6           0      -33.207478    0.405452    0.656184
     29          6           0      -34.531276    3.553696    1.817797
     30          6           0      -35.638587    0.698484   -0.316131
     31          6           0      -37.060365    0.371779    0.115641
     32          7           0      -30.763421   -1.382735    0.214677
     33          6           0      -32.053570   -1.877207    0.430292
     34          6           0      -32.083399   -3.286229    0.182322
     35          6           0      -30.745406   -3.601369   -0.208869
     36          6           0      -29.991366   -2.367452   -0.111251
     37          6           0      -33.244424   -4.225374    0.275897
     38          6           0      -29.842043   -4.613333   -0.573651
     39          8           0      -30.063772   -5.799674   -0.711611
     40          6           0      -28.452858   -3.927218   -0.871843
     41          6           0      -27.391261   -4.721383   -0.233897
     42          8           0      -26.637684   -5.460960   -0.856613
     43          8           0      -27.403978   -4.521645    1.138488
     44          6           0      -26.386634   -5.327555    1.850202
     45          1           0      -26.131294    2.770027   -0.725444
     46          1           0      -31.967928    4.622335    0.755575
     47          1           0      -34.128016   -1.421622    0.792342
     48          1           0      -25.746651   -2.349608   -0.923264
     49          1           0      -25.361483    0.318388   -1.971128
     50          1           0      -24.135164   -1.105128    0.157090
     51          1           0      -24.745265    0.362031    0.975715
     52          1           0      -23.715509    0.563119   -0.410582
     53          1           0      -25.784041   -0.982135   -3.323126
     54          1           0      -27.398078   -1.787541   -3.209330
     55          1           0      -26.569994   -3.784363   -3.538239
     56          1           0      -24.915163   -3.427832   -2.918791
     57          1           0      -25.773733    4.718831   -0.803008
     58          1           0      -26.480293    5.768050    0.502475
     59          1           0      -27.034582    6.020663   -1.059432
     60          1           0      -31.721157    6.884910    0.885601
     61          1           0      -31.635398    6.142112   -0.734140
     62          1           0      -31.130079    7.778109   -0.424264
     63          1           0      -34.304548    3.162093   -0.323414
     64          1           0      -34.928382    1.036221    1.752628
     65          1           0      -35.170477    4.327252    1.392222
     66          1           0      -33.768376    4.007948    2.451306
     67          1           0      -35.117302    2.970795    2.528733
     68          1           0      -35.171097   -0.190266   -0.739441
     69          1           0      -35.746197    1.514604   -1.031949
     70          1           0      -37.425141   -0.335791   -0.629355
     71          1           0      -37.668002    1.273700    0.038828
     72          1           0      -37.243338   -0.096366    1.082258
     73          1           0      -32.853234   -5.208893    0.014274
     74          1           0      -34.014411   -3.853665   -0.399481
     75          1           0      -33.686535   -4.320634    1.267808
     76          1           0      -28.339701   -4.041319   -1.950461
     77          1           0      -26.805412   -6.292834    2.134545
     78          1           0      -26.035103   -4.703422    2.671747
     79          1           0      -25.499022   -5.490902    1.239664
     80         12           0       30.428145    0.107250   -0.225793
     81          6           0       28.346993   -1.567969    1.995224
     82          6           0       30.074255    2.903868    1.730435
     83          6           0       32.276987    1.858715   -2.555826
     84          6           0       30.290818   -2.573526   -2.449565
     85          7           0       29.408970    0.555894    1.693899
     86          6           0       28.716142   -0.283787    2.482032
     87          6           0       28.313883    0.298866    3.856926
     88          6           0       28.676143    1.832034    3.651911
     89          6           0       29.415689    1.811576    2.229260
     90          6           0       27.357022    2.682086    3.709350
     91          6           0       29.203618   -0.459321    4.970377
     92          6           0       28.428348   -1.125260    6.145146
     93          1           0       26.982951   -0.549369    6.366326
     94          7           0       31.044877    2.101418   -0.469894
     95          6           0       30.857835    3.088656    0.519587
     96          6           0       31.641527    4.253293    0.166922
     97          6           0       32.237538    3.999949   -1.074975
     98          6           0       31.933032    2.558209   -1.403963
     99          6           0       31.476133    5.581336    0.919334
    100          6           0       33.088242    4.965557   -1.942039
    101          8           0       33.599608    4.680103   -3.040959
    102          6           0       33.396461    6.364224   -1.380465
    103          7           0       31.088743   -0.320228   -2.249615
    104          6           0       31.909751    0.605313   -2.963017
    105          6           0       32.154608    0.106225   -4.402383
    106          6           0       31.752571   -1.434440   -4.248451
    107          6           0       31.033762   -1.462917   -2.874074
    108          6           0       31.355259    0.955804   -5.376543
    109          6           0       33.033702   -2.370538   -4.226720
    110          6           0       34.269120   -2.191462   -3.280009
    111          7           0       29.474328   -1.657188   -0.303752
    112          6           0       29.481012   -2.665608   -1.272346
    113          6           0       28.669695   -3.749421   -0.821510
    114          6           0       28.244395   -3.399395    0.447295
    115          6           0       28.663717   -2.069823    0.699780
    116          6           0       28.295814   -5.001091   -1.588908
    117          6           0       27.501173   -3.849823    1.556513
    118          8           0       26.864885   -4.851863    1.637378
    119          6           0       27.444147   -2.622083    2.556939
    120          6           0       26.006550   -2.182462    2.592099
    121          8           0       25.589808   -1.180733    2.048998
    122          8           0       25.322331   -3.104714    3.279351
    123          6           0       23.904056   -3.060921    3.020115
    124          1           0       30.035164    3.775554    2.386644
    125          1           0       32.643884    2.487450   -3.368970
    126          1           0       30.228283   -3.417559   -3.140361
    127          1           0       27.270015    0.153407    4.134260
    128          1           0       29.390434    2.234256    4.370685
    129          1           0       27.274445    3.459754    2.949694
    130          1           0       27.472978    3.095109    4.710981
    131          1           0       26.529756    1.973632    3.744828
    132          1           0       29.977135    0.238284    5.290813
    133          1           0       29.751945   -1.243241    4.447397
    134          1           0       29.088983   -0.897923    6.981092
    135          1           0       28.326678   -2.207832    6.074964
    136          1           0       31.200512    6.333735    0.179964
    137          1           0       32.442355    5.891521    1.319470
    138          1           0       30.732307    5.470654    1.707759
    139          1           0       32.470423    6.937552   -1.440151
    140          1           0       34.071743    6.825183   -2.101112
    141          1           0       33.958840    6.268324   -0.452007
    142          1           0       33.237128    0.148036   -4.526289
    143          1           0       31.196065   -1.760283   -5.126474
    144          1           0       31.190880    1.973564   -5.022263
    145          1           0       30.381885    0.505116   -5.568903
    146          1           0       31.898177    1.084246   -6.312717
    147          1           0       33.404007   -2.444486   -5.249269
    148          1           0       32.622056   -3.321570   -3.888710
    149          1           0       34.976911   -1.520583   -3.767098
    150          1           0       34.697101   -3.189063   -3.174661
    151          1           0       34.048926   -1.905695   -2.250944
    152          1           0       29.169806   -5.586598   -1.874821
    153          1           0       27.808753   -4.618141   -2.485461
    154          1           0       27.744302   -5.754618   -1.024902
    155          1           0       27.724722   -2.799028    3.595396
    156          1           0       23.410361   -4.029358    3.097222
    157          1           0       23.494354   -2.522088    2.165887
    158          1           0       23.346600   -2.482513    3.757175
 ---------------------------------------------------------------------

 SCF Done:  E(RCAM-B3LYP) =  -4069.79950518     A.U. after   18 cycles

 Excitation energies and oscillator strengths:

 Excited State   1:      Singlet-A      1.7043 eV  727.49 nm  f=0.3823  <S**2>=0.000
     310 -> 316        0.17575
     312 -> 314        0.68644
     310 <- 316        0.10653
 This state for optimization and/or second-order correction.
 Total Energy, E(TD-HF/TD-DFT) =  -4069.73687449
 Copying the excited state density for this state as the 1-particle RhoCI density.

 Excited State   2:      Singlet-A      1.7132 eV  723.72 nm  f=0.3876  <S**2>=0.000
     309 -> 315        0.17422
     311 -> 313        0.68633
     309 <- 315        0.10491

 Excited State   3:      Singlet-A      2.1719 eV  570.86 nm  f=0.1596  <S**2>=0.000
     309 -> 313        0.65197
     311 -> 315       -0.25356

 Excited State   4:      Singlet-A      2.2267 eV  556.81 nm  f=0.1272  <S**2>=0.000
     310 -> 314        0.64629
     312 -> 316       -0.27557

 Excited State   5:      Singlet-A      2.8968 eV  428.00 nm  f=0.0000  <S**2>=0.000
     312 -> 313        0.70711

 The electronic state is 1-A.
 Alpha  occ. eigenvalues --  -46.90508 -46.88069 -19.26144 -19.25149 -19.20057
 Alpha  occ. eigenvalues --  -19.19854 -19.19351 -19.19135 -19.18603 -19.18327
 Alpha  occ. eigenvalues --  -14.43513 -14.42234 -14.42018 -14.41424 -14.40074
 Alpha  occ. eigenvalues --  -14.39898 -14.39546 -14.39049 -10.39315 -10.39152
 Alpha  occ. eigenvalues --  -10.35300 -10.35112 -10.34819 -10.34215 -10.33134
 Alpha  occ. eigenvalues --  -10.32099 -10.31709 -10.31696 -10.31590 -10.31539
 Alpha  occ. eigenvalues --  -10.31345 -10.30851 -10.30656 -10.30444 -10.30339
 Alpha  occ. eigenvalues --  -10.30152 -10.30146 -10.29891 -10.29858 -10.29818
 Alpha  occ. eigenvalues --  -10.29652 -10.29627 -10.29449 -10.29118 -10.28874
 Alpha  occ. eigenvalues --  -10.28734 -10.28697 -10.28542 -10.28510 -10.28462
 Alpha  occ. eigenvalues --  -10.28389 -10.28316 -10.28291 -10.28288 -10.28222
 Alpha  occ. eigenvalues --  -10.28132 -10.28128 -10.27921 -10.27844 -10.27655
 Alpha  occ. eigenvalues --  -10.27651 -10.27584 -10.27487 -10.27359 -10.27056
 Alpha  occ. eigenvalues --  -10.27053 -10.27010 -10.27000 -10.26856 -10.26722
 Alpha  occ. eigenvalues --  -10.26704 -10.26676 -10.26519 -10.26272 -10.26244
 Alpha  occ. eigenvalues --  -10.26201 -10.26076 -10.25922 -10.25806 -10.25778
 Alpha  occ. eigenvalues --  -10.25598 -10.25439 -10.25249 -10.25193 -10.24935
 Alpha  occ. eigenvalues --  -10.24672  -3.18719  -3.16671  -1.93647  -1.93150
 Alpha  occ. eigenvalues --   -1.93021  -1.91571  -1.91105  -1.90993  -1.18150
 Alpha  occ. eigenvalues --   -1.15563  -1.12006  -1.10083  -1.09794  -1.09073
 Alpha  occ. eigenvalues --   -1.08323  -1.07506  -1.04844  -1.04144  -1.04081
 Alpha  occ. eigenvalues --   -1.03309  -1.02699  -1.02596  -1.01762  -1.01153
 Alpha  occ. eigenvalues --   -0.92789  -0.92612  -0.89528  -0.89406  -0.88524
 Alpha  occ. eigenvalues --   -0.88218  -0.88122  -0.87744  -0.87720  -0.87199
 Alpha  occ. eigenvalues --   -0.87068  -0.86488  -0.86007  -0.85843  -0.84542
 Alpha  occ. eigenvalues --   -0.83922  -0.83868  -0.83389  -0.82922  -0.82275
 Alpha  occ. eigenvalues --   -0.82254  -0.81188  -0.80914  -0.80898  -0.80778
 Alpha  occ. eigenvalues --   -0.79926  -0.77861  -0.77704  -0.77212  -0.77099
 Alpha  occ. eigenvalues --   -0.77014  -0.76724  -0.76246  -0.75849  -0.75552
 Alpha  occ. eigenvalues --   -0.74948  -0.73529  -0.72949  -0.72309  -0.71172
 Alpha  occ. eigenvalues --   -0.69419  -0.69020  -0.68880  -0.68635  -0.68018
 Alpha  occ. eigenvalues --   -0.67962  -0.67158  -0.66359  -0.65843  -0.65659
 Alpha  occ. eigenvalues --   -0.65499  -0.65275  -0.64835  -0.64539  -0.64468
 Alpha  occ. eigenvalues --   -0.63928  -0.63033  -0.62375  -0.60277  -0.59989
 Alpha  occ. eigenvalues --   -0.59776  -0.59485  -0.59392  -0.59093  -0.58949
 Alpha  occ. eigenvalues --   -0.58409  -0.57989  -0.57818  -0.57244  -0.57012
 Alpha  occ. eigenvalues --   -0.56578  -0.56255  -0.56000  -0.55671  -0.55473
 Alpha  occ. eigenvalues --   -0.54893  -0.54835  -0.54375  -0.53958  -0.53871
 Alpha  occ. eigenvalues --   -0.53547  -0.53358  -0.53260  -0.53114  -0.52852
 Alpha  occ. eigenvalues --   -0.52808  -0.52578  -0.52508  -0.52198  -0.52119
 Alpha  occ. eigenvalues --   -0.51983  -0.51870  -0.51846  -0.51725  -0.51352
 Alpha  occ. eigenvalues --   -0.50959  -0.50945  -0.50605  -0.50402  -0.50235
 Alpha  occ. eigenvalues --   -0.49895  -0.49802  -0.49737  -0.49520  -0.49499
 Alpha  occ. eigenvalues --   -0.49169  -0.49155  -0.48896  -0.48833  -0.48671
 Alpha  occ. eigenvalues --   -0.48584  -0.48335  -0.48320  -0.47973  -0.47937
 Alpha  occ. eigenvalues --   -0.47821  -0.47727  -0.47468  -0.47197  -0.47121
 Alpha  occ. eigenvalues --   -0.47036  -0.46730  -0.46644  -0.46608  -0.46257
 Alpha  occ. eigenvalues --   -0.46160  -0.46152  -0.46015  -0.45860  -0.45715
 Alpha  occ. eigenvalues --   -0.45711  -0.45564  -0.45334  -0.45211  -0.45172
 Alpha  occ. eigenvalues --   -0.44924  -0.44696  -0.44622  -0.44547  -0.44539
 Alpha  occ. eigenvalues --   -0.44313  -0.44143  -0.43749  -0.43744  -0.43657
 Alpha  occ. eigenvalues --   -0.43592  -0.43401  -0.43042  -0.43003  -0.43003
 Alpha  occ. eigenvalues --   -0.42780  -0.42643  -0.42450  -0.42370  -0.42252
 Alpha  occ. eigenvalues --   -0.41914  -0.41739  -0.41618  -0.41524  -0.41306
 Alpha  occ. eigenvalues --   -0.41298  -0.40795  -0.40665  -0.40508  -0.40266
 Alpha  occ. eigenvalues --   -0.39990  -0.39735  -0.39550  -0.39488  -0.39138
 Alpha  occ. eigenvalues --   -0.38372  -0.37839  -0.37669  -0.37449  -0.37433
 Alpha  occ. eigenvalues --   -0.37237  -0.37083  -0.37052  -0.36807  -0.36453
 Alpha  occ. eigenvalues --   -0.36105  -0.35918  -0.34792  -0.34513  -0.34340
 Alpha  occ. eigenvalues --   -0.34083  -0.33356  -0.32654  -0.31785  -0.31634
 Alpha  occ. eigenvalues --   -0.31245  -0.30950  -0.30550  -0.30433  -0.30258
 Alpha  occ. eigenvalues --   -0.30213  -0.29604  -0.29574  -0.24637  -0.23756
 Alpha  occ. eigenvalues --   -0.22176  -0.20965
 Alpha virt. eigenvalues --   -0.09749  -0.08538  -0.02360  -0.01329  -0.00001
 Alpha virt. eigenvalues --    0.00571   0.02193   0.02317   0.02492   0.02572
 Alpha virt. eigenvalues --    0.04487   0.04543   0.05247   0.05820   0.06085

 Mulliken charges:
               1
     1  Mg   0.796946
     2  C    0.074179
     3  C   -0.043135
     4  C   -0.054813
     5  C   -0.052382
     6  N   -0.300195
     7  C   -0.060080
     8  C   -0.022681
     9  C   -0.080344
    10  C    0.067009
    11  C    0.078397
    12  C    0.079032
    13  C   -0.093763
    14  H    0.008091
    15  N   -0.374610
    16  C    0.119188
    17  C   -0.139296
    18  C   -0.092375
    19  C    0.150505
    20  C    0.136725
    21  C    0.043156
    22  O   -0.209325
    23  C    0.005521
    24  N   -0.267844
    25  C    0.091564
    26  C   -0.078098
    27  C   -0.006924
    28  C   -0.004288
    29  C    0.049034
    30  C    0.036108
    31  C    0.003121
    32  N   -0.332669
    33  C    0.107742
    34  C   -0.158943
    35  C    0.031412
    36  C    0.039557
    37  C    0.122500
    38  C   -0.007867
    39  O   -0.164705
    40  C    0.009206
    41  C    0.181782
    42  O   -0.214866
    43  O   -0.355673
    44  C    0.174529
    45  H   -0.038478
    46  H   -0.042461
    47  H   -0.028615
    48  H    0.009893
    49  H    0.015627
    50  H    0.021443
    51  H    0.026844
    52  H    0.021368
    53  H    0.016747
    54  H    0.018220
    55  H    0.047016
    56  H    0.036472
    57  H    0.034175
    58  H    0.033171
    59  H    0.040589
    60  H    0.045897
    61  H    0.034661
    62  H    0.021636
    63  H    0.028685
    64  H    0.005434
    65  H    0.013840
    66  H    0.019601
    67  H    0.009808
    68  H    0.018865
    69  H    0.003659
    70  H    0.014581
    71  H    0.015972
    72  H    0.017380
    73  H    0.038999
    74  H    0.023828
    75  H    0.024087
    76  H    0.036631
    77  H    0.051292
    78  H    0.034188
    79  H    0.038517
    80  Mg   0.826316
    81  C   -0.012253
    82  C   -0.055206
    83  C   -0.055290
    84  C   -0.101739
    85  N   -0.262887
    86  C   -0.021598
    87  C   -0.037407
    88  C   -0.073736
    89  C    0.047851
    90  C    0.074579
    91  C    0.036466
    92  C   -0.072627
    93  H    0.021614
    94  N   -0.381525
    95  C    0.116838
    96  C   -0.159378
    97  C   -0.046557
    98  C    0.112332
    99  C    0.135772
   100  C    0.005257
   101  O   -0.221305
   102  C    0.048237
   103  N   -0.269126
   104  C    0.003995
   105  C   -0.013046
   106  C   -0.018930
   107  C    0.072193
   108  C    0.091477
   109  C   -0.014719
   110  C    0.000580
   111  N   -0.397786
   112  C    0.133575
   113  C   -0.171096
   114  C    0.038070
   115  C    0.108997
   116  C    0.123565
   117  C    0.021067
   118  O   -0.126738
   119  C   -0.026003
   120  C    0.176003
   121  O   -0.208518
   122  O   -0.277525
   123  C    0.182026
   124  H   -0.037518
   125  H    0.007427
   126  H   -0.023663
   127  H    0.021958
   128  H    0.013742
   129  H    0.030042
   130  H    0.010712
   131  H    0.027825
   132  H    0.008555
   133  H    0.018912
   134  H    0.034142
   135  H    0.048647
   136  H    0.023677
   137  H    0.016881
   138  H    0.018130
   139  H    0.040359
   140  H    0.017709
   141  H    0.042661
   142  H    0.008197
   143  H    0.001964
   144  H    0.024898
   145  H    0.013011
   146  H    0.014150
   147  H    0.012839
   148  H   -0.002235
   149  H    0.027132
   150  H    0.014290
   151  H    0.022608
   152  H    0.015015
   153  H    0.034288
   154  H    0.032745
   155  H    0.026015
   156  H    0.038659
   157  H    0.037262
   158  H    0.007154
 Sum of Mulliken charges =  -0.00000

 Dipole moment (field-independent basis, Debye):
    X=             -1.0340    Y=              3.3397    Z=              4.5638  Tot=              5.7490
 Quadrupole moment (field-independent basis, Debye-Ang):
   XX=           -348.0064   YY=           -575.6241   ZZ=           -494.8127
   XY=           -102.3718   XZ=              7.9147   YZ=              8.5553

 Normal termination of Gaussian 16 at Thu Sep 16 03:53:46 2021.
