 Gaussian 16, Revision A.03,
 Gaussian 16:  ES64L-G16RevA.03 25-Dec-2016

 -----------------------------------
 #p cam-b3lyp/Def2SVP td=(nstates=5)
 -----------------------------------

 --------------------------------
 TDDFT excited states in gaussian
 --------------------------------
 Symbolic Z-matrix:
 Charge =  0 Multiplicity = 1

                         Standard orientation:
 ---------------------------------------------------------------------
 Center     Atomic      Atomic             Coordinates (Angstroms)
 Number     Number       Type             X           Y           Z
 ---------------------------------------------------------------------
      1         12           0       -0.737233    0.068281    0.141032
      2          6           0        2.729366    0.339220    0.089071
      3          6           0       -0.423275   -3.343982    0.168561
      4          6           0       -4.128270   -0.132379   -0.132522
      5          6           0       -0.813837    3.610219   -0.145556
      6          7           0        0.947407   -1.334652    0.095006
      7          6           0        2.262954   -0.967260    0.200556
      8          6           0        3.067790   -2.264840    0.307857
      9          6           0        2.082564   -3.385747    0.028265
     10          6           0        0.762015   -2.632558    0.141530
     11          6           0        2.206241   -4.195304   -1.234592
     12          6           0        3.912468   -2.443663    1.657963
     13          6           0        4.558516   -3.849464    1.877043
     14          1           0        6.001329   -4.091279    1.361407
     15          7           0       -2.067403   -1.524110    0.183044
     16          6           0       -1.752288   -2.843167    0.164705
     17          6           0       -2.997389   -3.563515    0.102337
     18          6           0       -4.064980   -2.622892    0.009132
     19          6           0       -3.460267   -1.367370   -0.009154
     20          6           0       -3.008502   -5.060933    0.122204
     21          6           0       -5.570194   -2.954866   -0.207170
     22          8           0       -6.358619   -2.121785   -0.616961
     23          6           0       -6.128939   -4.289012   -0.059752
     24          7           0       -2.148280    1.460805   -0.085148
     25          6           0       -3.512506    1.175533   -0.132446
     26          6           0       -4.377080    2.444709   -0.226878
     27          6           0       -3.321225    3.566883    0.056151
     28          6           0       -2.004220    2.812137   -0.019497
     29          6           0       -5.277276    2.546595   -1.387986
     30          6           0       -3.471727    4.486620    1.390901
     31          6           0       -3.619502    6.006886    1.277736
     32          7           0        0.690707    1.724209   -0.061270
     33          6           0        0.476203    3.068745   -0.179778
     34          6           0        1.706220    3.781933   -0.260980
     35          6           0        2.677486    2.724495   -0.079522
     36          6           0        1.985737    1.481138   -0.052824
     37          6           0        1.811958    5.254921   -0.375822
     38          6           0        4.086281    2.470162    0.115988
     39          8           0        5.065450    3.180418    0.233776
     40          6           0        4.161106    0.835528    0.226321
     41          6           0        5.178277    0.273330   -0.698394
     42          8           0        5.081565    0.306775   -1.905563
     43          8           0        6.211380   -0.289455   -0.047384
     44          6           0        7.177613   -1.117173   -0.866793
     45          1           0       -0.329905   -4.430414    0.231438
     46          1           0       -5.212136   -0.225200   -0.225938
     47          1           0       -1.048278    4.675266   -0.204984
     48          1           0        3.759699   -2.122309   -0.522116
     49          1           0        2.170110   -4.143670    0.806318
     50          1           0        1.356446   -3.789296   -1.782463
     51          1           0        2.173731   -5.269230   -1.050378
     52          1           0        3.080670   -3.916962   -1.823202
     53          1           0        3.151045   -2.257903    2.415774
     54          1           0        4.699179   -1.691527    1.703683
     55          1           0        3.984245   -4.636497    1.389887
     56          1           0        4.538302   -4.061679    2.945986
     57          1           0       -2.062632   -5.582896    0.270388
     58          1           0       -3.327940   -5.362547   -0.874789
     59          1           0       -3.752505   -5.474112    0.803551
     60          1           0       -5.641552   -5.140462   -0.533599
     61          1           0       -7.189563   -4.381608   -0.293060
     62          1           0       -6.116745   -4.417111    1.022424
     63          1           0       -4.963665    2.281983    0.677713
     64          1           0       -3.402196    4.112873   -0.883626
     65          1           0       -6.348419    2.556363   -1.184546
     66          1           0       -5.067261    1.697341   -2.038714
     67          1           0       -5.148300    3.457465   -1.972470
     68          1           0       -2.588551    4.312567    2.005266
     69          1           0       -4.286999    4.248964    2.075293
     70          1           0       -2.720416    6.574898    1.518124
     71          1           0       -4.505326    6.418230    1.760859
     72          1           0       -3.734987    6.241640    0.219509
     73          1           0        1.102932    5.593602   -1.130884
     74          1           0        2.828785    5.589100   -0.580199
     75          1           0        1.353511    5.681355    0.516993
     76          1           0        4.515421    0.632398    1.236396
     77          1           0        8.059139   -1.132798   -0.226277
     78          1           0        7.350480   -0.611517   -1.816594
     79          1           0        6.746015   -2.115373   -0.941870
 ---------------------------------------------------------------------

 SCF Done:  E(RCAM-B3LYP) =  -2034.90863205     A.U. after   18 cycles

 Excitation energies and oscillator strengths:

 Excited State   1:      Singlet-A      1.6981 eV  730.13 nm  f=0.3984  <S**2>=0.000
     155 ->158        -0.17931
     156 ->157         0.68577
     155 <-158        -0.10838
 This state for optimization and/or second-order correction.
 Total Energy, E(TD-HF/TD-DFT) =  -2034.84622761
 Copying the excited state density for this state as the 1-particle RhoCI density.

 Excited State   2:      Singlet-A      2.2225 eV  557.87 nm  f=0.0947  <S**2>=0.000
     155 ->157         0.63232
     156 ->158         0.30131

 Excited State   3:      Singlet-A      3.2299 eV  383.86 nm  f=0.0004  <S**2>=0.000
     153 ->157        -0.18891
     154 ->157         0.65758

 Excited State   4:      Singlet-A      3.3474 eV  370.39 nm  f=0.0427  <S**2>=0.000
     153 ->157         0.58942
     154 ->157         0.11755
     156 ->158        -0.31524

 Excited State   5:      Singlet-A      3.4492 eV  359.46 nm  f=0.0231  <S**2>=0.000
     152 ->157         0.58880
     152 ->159         0.26306
     152 ->160        -0.14759
     156 ->158         0.16813

 The electronic state is 1-A.
 Alpha  occ. eigenvalues --  -46.87880 -19.24421 -19.19083 -19.18662 -19.18259
 Alpha  occ. eigenvalues --  -14.42716 -14.42044 -14.39051 -14.38441 -10.37968
 Alpha  occ. eigenvalues --  -10.35587 -10.34649 -10.32109 -10.31600 -10.31129
 Alpha  occ. eigenvalues --  -10.31116 -10.30445 -10.29808 -10.29699 -10.29611
 Alpha  occ. eigenvalues --  -10.28996 -10.28298 -10.28140 -10.28113 -10.28075
 Alpha  occ. eigenvalues --  -10.27536 -10.27533 -10.27525 -10.27263 -10.27217
 Alpha  occ. eigenvalues --  -10.27142 -10.27059 -10.27035 -10.26955 -10.26944
 Alpha  occ. eigenvalues --  -10.26866 -10.26859 -10.26254 -10.26158 -10.25751
 Alpha  occ. eigenvalues --  -10.25593 -10.25493 -10.25243  -3.16540  -1.91455
 Alpha  occ. eigenvalues --   -1.90996  -1.90842  -1.15848  -1.10985  -1.09492
 Alpha  occ. eigenvalues --   -1.06734  -1.05243  -1.04112  -1.03318  -1.02355
 Alpha  occ. eigenvalues --   -0.92436  -0.89217  -0.88712  -0.88335  -0.87574
 Alpha  occ. eigenvalues --   -0.86976  -0.86706  -0.84644  -0.83708  -0.82644
 Alpha  occ. eigenvalues --   -0.82474  -0.81414  -0.80745  -0.78796  -0.77798
 Alpha  occ. eigenvalues --   -0.77285  -0.75895  -0.75151  -0.72782  -0.71819
 Alpha  occ. eigenvalues --   -0.69391  -0.68948  -0.68229  -0.66920  -0.65550
 Alpha  occ. eigenvalues --   -0.65427  -0.64681  -0.64207  -0.61427  -0.60533
 Alpha  occ. eigenvalues --   -0.59756  -0.58957  -0.58832  -0.57961  -0.57302
 Alpha  occ. eigenvalues --   -0.56365  -0.55756  -0.55412  -0.54786  -0.54577
 Alpha  occ. eigenvalues --   -0.53807  -0.53160  -0.52969  -0.52595  -0.52348
 Alpha  occ. eigenvalues --   -0.52079  -0.51316  -0.50994  -0.50845  -0.50496
 Alpha  occ. eigenvalues --   -0.50305  -0.49934  -0.49440  -0.49348  -0.49141
 Alpha  occ. eigenvalues --   -0.48994  -0.48626  -0.48232  -0.47723  -0.47451
 Alpha  occ. eigenvalues --   -0.47106  -0.46840  -0.46593  -0.46540  -0.46254
 Alpha  occ. eigenvalues --   -0.46068  -0.45154  -0.45115  -0.44801  -0.44409
 Alpha  occ. eigenvalues --   -0.44242  -0.44013  -0.43685  -0.43373  -0.42811
 Alpha  occ. eigenvalues --   -0.42705  -0.41960  -0.41827  -0.41511  -0.41285
 Alpha  occ. eigenvalues --   -0.40966  -0.40381  -0.40200  -0.39507  -0.39279
 Alpha  occ. eigenvalues --   -0.38790  -0.37775  -0.37263  -0.36887  -0.36291
 Alpha  occ. eigenvalues --   -0.36054  -0.34070  -0.33985  -0.32986  -0.31310
 Alpha  occ. eigenvalues --   -0.30970  -0.30210  -0.29721  -0.29050  -0.24207
 Alpha  occ. eigenvalues --   -0.21129
 Alpha virt. eigenvalues --   -0.08798  -0.01876   0.00614   0.02729   0.03374
 Alpha virt. eigenvalues --    0.04698   0.05241   0.06260   0.07111   0.07845
 Alpha virt. eigenvalues --    0.08591   0.08603   0.09186   0.09958   0.10494

 Mulliken charges:
               1
     1  Mg   0.828800
     2  C    0.048432
     3  C   -0.079082
     4  C   -0.067482
     5  C   -0.103359
     6  N   -0.255710
     7  C   -0.052021
     8  C   -0.000614
     9  C   -0.103466
    10  C    0.035598
    11  C    0.099458
    12  C    0.042540
    13  C   -0.062436
    14  H    0.013879
    15  N   -0.403937
    16  C    0.147243
    17  C   -0.142797
    18  C   -0.017888
    19  C    0.106313
    20  C    0.100439
    21  C    0.025244
    22  O   -0.202183
    23  C    0.059507
    24  N   -0.343339
    25  C    0.041662
    26  C   -0.041098
    27  C   -0.002476
    28  C    0.022952
    29  C    0.094417
    30  C    0.043906
    31  C   -0.014164
    32  N   -0.286883
    33  C    0.153005
    34  C   -0.160749
    35  C   -0.026710
    36  C    0.074289
    37  C    0.149295
    38  C    0.065580
    39  O   -0.154839
    40  C   -0.074524
    41  C    0.174483
    42  O   -0.224084
    43  O   -0.340817
    44  C    0.172983
    45  H   -0.041513
    46  H    0.001673
    47  H   -0.024248
    48  H    0.009395
    49  H   -0.002360
    50  H    0.017511
    51  H    0.021533
    52  H    0.015322
    53  H    0.009124
    54  H    0.039095
    55  H    0.023330
    56  H    0.035810
    57  H    0.015662
    58  H    0.027306
    59  H    0.025099
    60  H    0.036033
    61  H    0.023047
    62  H    0.027281
    63  H    0.010702
    64  H    0.008018
    65  H    0.017739
    66  H    0.025450
    67  H    0.006147
    68  H    0.012075
    69  H    0.010596
    70  H    0.018374
    71  H    0.023290
    72  H   -0.001760
    73  H    0.012729
    74  H    0.047934
    75  H    0.021408
    76  H    0.037234
    77  H    0.044536
    78  H    0.065042
    79  H    0.042020
 Sum of Mulliken charges =  -0.00000

 Dipole moment (field-independent basis, Debye):
    X=             -2.9409    Y=             -3.7983    Z=              2.3513  Tot=              5.3483
 Quadrupole moment (field-independent basis, Debye-Ang):
   XX=           -270.9811   YY=           -224.0391   ZZ=           -261.2431
   XY=            -27.4915   XZ=             -2.1945   YZ=             -1.2063

 Normal termination of Gaussian 16 at Thu Sep 16 01:54:50 2021.
