 Gaussian 16, Revision A.03,
 Gaussian 16:  ES64L-G16RevA.03 25-Dec-2016

 -----------------------------------
 #p cam-b3lyp/Def2SVP td=(nstates=5)
 -----------------------------------

 --------------------------------
 TDDFT excited states in gaussian
 --------------------------------
 Symbolic Z-matrix:
 Charge =  0 Multiplicity = 1

                         Standard orientation:
 ---------------------------------------------------------------------
 Center     Atomic      Atomic             Coordinates (Angstroms)
 Number     Number       Type             X           Y           Z
 ---------------------------------------------------------------------
      1         12           0       13.261455    0.243031    0.315724
      2          6           0       10.054383   -0.918989   -0.773213
      3          6           0       14.108852    0.828521   -2.960406
      4          6           0       16.452316    0.911836    1.198290
      5          6           0       12.589157   -1.301452    3.414747
      6          7           0       12.181684   -0.013525   -1.611722
      7          6           0       10.862402   -0.431529   -1.846962
      8          6           0       10.558050   -0.299254   -3.317188
      9          6           0       12.007865   -0.251555   -3.960488
     10          6           0       12.868795    0.169117   -2.733266
     11          6           0       12.352995   -1.692710   -4.479925
     12          6           0        9.580270    0.877238   -3.668112
     13          6           0        8.590510    0.442869   -4.627793
     14          1           0        7.330203    1.431179   -4.799823
     15          7           0       14.938925    0.959497   -0.792606
     16          6           0       15.066110    1.165770   -2.108878
     17          6           0       16.343575    1.752669   -2.374289
     18          6           0       17.061691    1.776889   -1.197175
     19          6           0       16.116151    1.233186   -0.116305
     20          6           0       16.833041    2.057652   -3.825671
     21          6           0       18.474135    2.337293   -0.931931
     22          8           0       18.947029    2.233686    0.171517
     23          6           0       19.222808    3.087785   -2.008011
     24          7           0       14.427278   -0.403633    1.991358
     25          6           0       15.694171    0.146788    2.151430
     26          6           0       16.182098   -0.043288    3.550795
     27          6           0       14.931722   -0.738379    4.281131
     28          6           0       13.882437   -0.769479    3.194933
     29          6           0       17.474554   -0.783685    3.625875
     30          6           0       14.387383   -0.052565    5.651676
     31          6           0       14.426734   -0.852139    6.893640
     32          7           0       11.660424   -0.845415    1.222041
     33          6           0       11.575256   -1.393055    2.482228
     34          6           0       10.177501   -1.988937    2.637279
     35          6           0        9.506367   -1.725586    1.426304
     36          6           0       10.469983   -1.074248    0.579092
     37          6           0        9.684062   -2.736865    3.883335
     38          6           0        8.291501   -2.018396    0.727853
     39          8           0        7.253217   -2.600103    1.115654
     40          6           0        8.642094   -1.666044   -0.775880
     41          6           0        7.407603   -0.881791   -1.313731
     42          8           0        7.432532    0.359312   -1.404764
     43          8           0        6.446398   -1.751964   -1.709522
     44          6           0        5.197921   -0.977735   -2.028858
     45          1           0       14.309209    1.224909   -3.958365
     46          1           0       17.473923    1.137762    1.513046
     47          1           0       12.252343   -1.716225    4.366962
     48          1           0       10.132741   -1.256793   -3.616888
     49          1           0       12.055836    0.444387   -4.797270
     50          1           0       12.588042   -2.398703   -3.683801
     51          1           0       13.165219   -1.619244   -5.201860
     52          1           0       11.496328   -2.079618   -5.032251
     53          1           0       10.168007    1.602279   -4.231629
     54          1           0        9.167312    1.346128   -2.774652
     55          1           0        8.078269   -0.456206   -4.284773
     56          1           0        9.097443    0.317845   -5.584923
     57          1           0       17.094605    3.114552   -3.774979
     58          1           0       16.075777    1.938707   -4.600447
     59          1           0       17.659597    1.395871   -4.084078
     60          1           0       20.230086    3.334547   -1.672267
     61          1           0       18.546041    3.940956   -2.053740
     62          1           0       19.231791    2.470923   -2.906576
     63          1           0       16.299134    0.982676    3.900293
     64          1           0       15.247026   -1.749405    4.537822
     65          1           0       18.196949   -0.032757    3.943285
     66          1           0       17.835606   -1.110916    2.650974
     67          1           0       17.481409   -1.652918    4.283913
     68          1           0       13.330846    0.090734    5.425357
     69          1           0       14.857396    0.926062    5.739417
     70          1           0       13.423393   -1.030620    7.279486
     71          1           0       14.888691   -0.086754    7.516308
     72          1           0       15.091597   -1.714652    6.830461
     73          1           0        9.872274   -3.791450    3.685155
     74          1           0        8.620661   -2.585115    4.068158
     75          1           0       10.208141   -2.351188    4.757836
     76          1           0        8.744973   -2.646536   -1.238791
     77          1           0        4.657545   -0.600049   -1.160998
     78          1           0        4.476740   -1.510182   -2.648086
     79          1           0        5.521847   -0.157345   -2.669590
     80         12           0      -12.843671   -0.523927   -0.576788
     81          6           0      -12.486609    2.831222    0.581302
     82          6           0       -9.528658   -0.670896   -0.543962
     83          6           0      -13.052677   -3.895652   -0.673155
     84          6           0      -16.245248   -0.242318    0.447988
     85          7           0      -11.260063    0.898446   -0.175934
     86          6           0      -11.311985    2.257477    0.202686
     87          6           0       -9.900198    2.906037    0.356243
     88          6           0       -8.979483    1.730432   -0.077621
     89          6           0       -9.973735    0.588671   -0.377297
     90          6           0       -8.115925    2.228803   -1.248351
     91          6           0       -9.505134    3.483955    1.783400
     92          6           0       -9.309519    4.992429    1.882210
     93          1           0       -7.955325    5.499232    2.419033
     94          7           0      -11.535226   -2.053419   -0.698530
     95          6           0      -10.150363   -1.891711   -0.662919
     96          6           0       -9.503927   -3.117975   -0.903848
     97          6           0      -10.474733   -4.082374   -1.102027
     98          6           0      -11.732369   -3.417606   -0.826702
     99          6           0       -7.961820   -3.418788   -0.994958
    100          6           0      -10.152844   -5.510703   -1.474259
    101          8           0       -9.057146   -5.904628   -1.743374
    102          6           0      -11.421095   -6.485200   -1.634204
    103          7           0      -14.394855   -1.897513   -0.104336
    104          6           0      -14.223942   -3.244710   -0.271402
    105          6           0      -15.540903   -3.945797    0.259065
    106          6           0      -16.587534   -2.843216    0.490796
    107          6           0      -15.696670   -1.559138    0.285610
    108          6           0      -15.997342   -5.128033   -0.547761
    109          6           0      -17.070028   -2.896340    1.935036
    110          6           0      -18.416000   -2.292542    2.236311
    111          7           0      -14.199020    1.046125    0.101564
    112          6           0      -15.530473    1.000712    0.439771
    113          6           0      -15.994597    2.296376    0.780283
    114          6           0      -14.859118    3.140519    0.798331
    115          6           0      -13.778517    2.267488    0.487691
    116          6           0      -17.353205    2.681672    1.209801
    117          6           0      -14.283065    4.469765    1.042618
    118          8           0      -14.868302    5.526505    1.315236
    119          6           0      -12.717964    4.350396    0.891424
    120          6           0      -12.301863    5.065940   -0.285234
    121          8           0      -12.502413    4.600068   -1.431845
    122          8           0      -11.765178    6.232472    0.123437
    123          6           0      -11.073513    7.088293   -0.879154
    124          1           0       -8.439480   -0.744696   -0.581322
    125          1           0      -13.091271   -4.982092   -0.777289
    126          1           0      -17.302716   -0.068994    0.656609
    127          1           0       -9.793070    3.724973   -0.355004
    128          1           0       -8.326855    1.372098    0.717900
    129          1           0       -7.597969    1.357941   -1.649083
    130          1           0       -7.367296    2.981579   -1.001767
    131          1           0       -8.713978    2.666249   -2.048562
    132          1           0       -8.503061    3.090214    1.953589
    133          1           0      -10.197070    3.115797    2.540964
    134          1           0      -10.117004    5.382693    2.502642
    135          1           0       -9.393548    5.429379    0.886540
    136          1           0       -7.781129   -4.233669   -0.293646
    137          1           0       -7.360138   -2.556052   -0.709433
    138          1           0       -7.575046   -3.623251   -1.993274
    139          1           0      -11.021195   -7.425078   -2.013568
    140          1           0      -12.057565   -5.942370   -2.333423
    141          1           0      -11.808591   -6.515885   -0.615913
    142          1           0      -15.232570   -4.350241    1.223794
    143          1           0      -17.463149   -2.851158   -0.158233
    144          1           0      -17.081147   -5.201733   -0.462361
    145          1           0      -15.494806   -5.994056   -0.116533
    146          1           0      -15.655676   -5.127311   -1.582171
    147          1           0      -16.361970   -2.458523    2.639246
    148          1           0      -17.097494   -3.914945    2.322011
    149          1           0      -18.985119   -2.053995    1.337997
    150          1           0      -18.248808   -1.374152    2.799447
    151          1           0      -18.960071   -2.902894    2.957049
    152          1           0      -18.112257    2.024978    0.783538
    153          1           0      -17.490805    3.703484    0.855320
    154          1           0      -17.356717    2.565469    2.293826
    155          1           0      -12.151656    4.605099    1.787272
    156          1           0      -11.312787    8.075488   -0.481133
    157          1           0      -11.406013    6.928309   -1.904378
    158          1           0       -9.990821    7.056591   -0.752625
 ---------------------------------------------------------------------

 SCF Done:  E(RCAM-B3LYP) =  -4069.77944766     A.U. after   17 cycles

 Excitation energies and oscillator strengths:

 Excited State   1:      Singlet-A      1.7176 eV  721.85 nm  f=0.4780  <S**2>=0.000
     309 -> 315       -0.16816
     311 -> 313       -0.30193
     312 -> 314        0.61317
 This state for optimization and/or second-order correction.
 Total Energy, E(TD-HF/TD-DFT) =  -4069.71632774
 Copying the excited state density for this state as the 1-particle RhoCI density.

 Excited State   2:      Singlet-A      1.7240 eV  719.16 nm  f=0.2708  <S**2>=0.000
     310 -> 316        0.15397
     311 -> 313        0.61762
     312 -> 314        0.29936

 Excited State   3:      Singlet-A      2.2585 eV  548.96 nm  f=0.1177  <S**2>=0.000
     310 -> 313        0.63722
     311 -> 316       -0.28974

 Excited State   4:      Singlet-A      2.2689 eV  546.44 nm  f=0.0057  <S**2>=0.000
     309 -> 314        0.54880
     312 -> 315        0.43683

 Excited State   5:      Singlet-A      2.7680 eV  447.92 nm  f=0.0000  <S**2>=0.000
     312 -> 313        0.70707

 The electronic state is 1-A.
 Alpha  occ. eigenvalues --  -46.89453 -46.88444 -19.26445 -19.26196 -19.19794
 Alpha  occ. eigenvalues --  -19.19591 -19.19577 -19.19506 -19.18773 -19.18670
 Alpha  occ. eigenvalues --  -14.42466 -14.42291 -14.42116 -14.41935 -14.39438
 Alpha  occ. eigenvalues --  -14.39387 -14.39176 -14.38402 -10.39754 -10.39445
 Alpha  occ. eigenvalues --  -10.35695 -10.35405 -10.35326 -10.34932 -10.32781
 Alpha  occ. eigenvalues --  -10.31580 -10.31574 -10.31428 -10.31396 -10.31329
 Alpha  occ. eigenvalues --  -10.31228 -10.30951 -10.30924 -10.30530 -10.30501
 Alpha  occ. eigenvalues --  -10.30409 -10.29549 -10.29195 -10.29026 -10.28995
 Alpha  occ. eigenvalues --  -10.28931 -10.28789 -10.28684 -10.28640 -10.28619
 Alpha  occ. eigenvalues --  -10.28265 -10.28176 -10.28143 -10.28139 -10.28135
 Alpha  occ. eigenvalues --  -10.28062 -10.28061 -10.27956 -10.27889 -10.27827
 Alpha  occ. eigenvalues --  -10.27718 -10.27559 -10.27394 -10.27371 -10.27247
 Alpha  occ. eigenvalues --  -10.27117 -10.27035 -10.27029 -10.27021 -10.26952
 Alpha  occ. eigenvalues --  -10.26855 -10.26768 -10.26442 -10.26408 -10.26365
 Alpha  occ. eigenvalues --  -10.26313 -10.26290 -10.26268 -10.26172 -10.25973
 Alpha  occ. eigenvalues --  -10.25930 -10.25898 -10.25787 -10.25696 -10.25378
 Alpha  occ. eigenvalues --  -10.25377 -10.25131 -10.25112 -10.25044 -10.24953
 Alpha  occ. eigenvalues --  -10.24769  -3.17791  -3.17042  -1.92687  -1.92233
 Alpha  occ. eigenvalues --   -1.92092  -1.91920  -1.91478  -1.91369  -1.16581
 Alpha  occ. eigenvalues --   -1.16080  -1.11908  -1.11756  -1.08602  -1.07874
 Alpha  occ. eigenvalues --   -1.07334  -1.07163  -1.04104  -1.04050  -1.03113
 Alpha  occ. eigenvalues --   -1.03054  -1.02768  -1.02722  -1.01680  -1.01455
 Alpha  occ. eigenvalues --   -0.92146  -0.91242  -0.89606  -0.89272  -0.88960
 Alpha  occ. eigenvalues --   -0.88709  -0.88643  -0.88208  -0.87524  -0.87268
 Alpha  occ. eigenvalues --   -0.87266  -0.86576  -0.86441  -0.85492  -0.84749
 Alpha  occ. eigenvalues --   -0.84430  -0.84175  -0.83805  -0.83227  -0.82629
 Alpha  occ. eigenvalues --   -0.82535  -0.81844  -0.81068  -0.80696  -0.80487
 Alpha  occ. eigenvalues --   -0.80244  -0.78234  -0.77667  -0.77561  -0.77308
 Alpha  occ. eigenvalues --   -0.76612  -0.76558  -0.76190  -0.75496  -0.75060
 Alpha  occ. eigenvalues --   -0.74942  -0.72686  -0.72189  -0.71657  -0.71458
 Alpha  occ. eigenvalues --   -0.69186  -0.68818  -0.68558  -0.67884  -0.67685
 Alpha  occ. eigenvalues --   -0.67434  -0.67174  -0.66394  -0.65628  -0.65541
 Alpha  occ. eigenvalues --   -0.65130  -0.64979  -0.64929  -0.64495  -0.64455
 Alpha  occ. eigenvalues --   -0.64316  -0.62174  -0.62066  -0.60078  -0.59938
 Alpha  occ. eigenvalues --   -0.59566  -0.59361  -0.59134  -0.58453  -0.58452
 Alpha  occ. eigenvalues --   -0.58256  -0.58147  -0.57441  -0.57117  -0.57080
 Alpha  occ. eigenvalues --   -0.56344  -0.56000  -0.55978  -0.55582  -0.55077
 Alpha  occ. eigenvalues --   -0.54906  -0.54629  -0.54352  -0.54217  -0.54024
 Alpha  occ. eigenvalues --   -0.53996  -0.53745  -0.53570  -0.53102  -0.52988
 Alpha  occ. eigenvalues --   -0.52809  -0.52760  -0.52611  -0.52475  -0.52406
 Alpha  occ. eigenvalues --   -0.52336  -0.51931  -0.51614  -0.51407  -0.51269
 Alpha  occ. eigenvalues --   -0.51172  -0.50569  -0.50520  -0.50440  -0.50278
 Alpha  occ. eigenvalues --   -0.50233  -0.50138  -0.50091  -0.49896  -0.49800
 Alpha  occ. eigenvalues --   -0.49530  -0.49139  -0.49104  -0.48950  -0.48856
 Alpha  occ. eigenvalues --   -0.48666  -0.48362  -0.48218  -0.48194  -0.48020
 Alpha  occ. eigenvalues --   -0.47990  -0.47862  -0.47458  -0.47453  -0.47409
 Alpha  occ. eigenvalues --   -0.46890  -0.46633  -0.46563  -0.46348  -0.46251
 Alpha  occ. eigenvalues --   -0.46223  -0.46112  -0.46019  -0.45867  -0.45545
 Alpha  occ. eigenvalues --   -0.45401  -0.45240  -0.45086  -0.44848  -0.44667
 Alpha  occ. eigenvalues --   -0.44655  -0.44569  -0.44368  -0.44250  -0.44104
 Alpha  occ. eigenvalues --   -0.44055  -0.43766  -0.43641  -0.43475  -0.43399
 Alpha  occ. eigenvalues --   -0.43219  -0.43173  -0.43044  -0.43019  -0.42863
 Alpha  occ. eigenvalues --   -0.42729  -0.42489  -0.42389  -0.42241  -0.42024
 Alpha  occ. eigenvalues --   -0.41939  -0.41868  -0.41589  -0.41573  -0.41484
 Alpha  occ. eigenvalues --   -0.41148  -0.40798  -0.40515  -0.40245  -0.40152
 Alpha  occ. eigenvalues --   -0.40048  -0.39859  -0.39088  -0.38861  -0.38571
 Alpha  occ. eigenvalues --   -0.38313  -0.38161  -0.37885  -0.37536  -0.37293
 Alpha  occ. eigenvalues --   -0.37150  -0.37110  -0.36977  -0.36635  -0.36166
 Alpha  occ. eigenvalues --   -0.35929  -0.34814  -0.34276  -0.34100  -0.34025
 Alpha  occ. eigenvalues --   -0.33844  -0.33120  -0.32865  -0.31752  -0.31721
 Alpha  occ. eigenvalues --   -0.31417  -0.30821  -0.30692  -0.30652  -0.30484
 Alpha  occ. eigenvalues --   -0.30099  -0.29354  -0.28863  -0.24274  -0.24204
 Alpha  occ. eigenvalues --   -0.21185  -0.20224
 Alpha virt. eigenvalues --   -0.08685  -0.07595  -0.02531  -0.01632  -0.00016
 Alpha virt. eigenvalues --    0.00635   0.01791   0.02246   0.02379   0.02807
 Alpha virt. eigenvalues --    0.04624   0.04825   0.04830   0.05427   0.05710

 Mulliken charges:
               1
     1  Mg   0.811209
     2  C    0.053043
     3  C   -0.123008
     4  C   -0.063810
     5  C   -0.065434
     6  N   -0.267895
     7  C   -0.054863
     8  C   -0.044137
     9  C   -0.099873
    10  C    0.112768
    11  C    0.068878
    12  C    0.138592
    13  C   -0.083021
    14  H   -0.006897
    15  N   -0.362798
    16  C    0.148169
    17  C   -0.139279
    18  C   -0.064720
    19  C    0.139352
    20  C    0.103292
    21  C   -0.015269
    22  O   -0.185017
    23  C    0.069080
    24  N   -0.322257
    25  C    0.034110
    26  C   -0.048994
    27  C   -0.011822
    28  C    0.064141
    29  C    0.078914
    30  C    0.007258
    31  C    0.029989
    32  N   -0.332854
    33  C    0.080388
    34  C   -0.182309
    35  C    0.030859
    36  C    0.076646
    37  C    0.117244
    38  C    0.052257
    39  O   -0.200704
    40  C   -0.080657
    41  C    0.223667
    42  O   -0.248701
    43  O   -0.309857
    44  C    0.170831
    45  H   -0.035022
    46  H    0.002046
    47  H   -0.033045
    48  H   -0.004740
    49  H   -0.000971
    50  H    0.028276
    51  H    0.011903
    52  H    0.014482
    53  H   -0.009259
    54  H    0.049484
    55  H    0.031296
    56  H    0.021325
    57  H    0.030223
    58  H    0.013488
    59  H    0.050716
    60  H    0.035223
    61  H    0.045084
    62  H    0.034485
    63  H    0.016500
    64  H    0.007083
    65  H    0.017654
    66  H    0.024290
    67  H    0.016182
    68  H    0.003738
    69  H    0.003971
    70  H    0.022764
    71  H    0.008377
    72  H    0.020844
    73  H    0.040245
    74  H    0.033865
    75  H    0.013498
    76  H    0.060550
    77  H    0.051326
    78  H    0.033685
    79  H    0.043923
    80  Mg   0.849582
    81  C   -0.035821
    82  C   -0.127531
    83  C   -0.088550
    84  C   -0.059248
    85  N   -0.306892
    86  C   -0.024958
    87  C   -0.013021
    88  C   -0.067198
    89  C    0.093597
    90  C    0.060684
    91  C    0.056341
    92  C   -0.082629
    93  H    0.016486
    94  N   -0.421968
    95  C    0.201587
    96  C   -0.158705
    97  C   -0.012293
    98  C    0.124795
    99  C    0.150583
   100  C   -0.039952
   101  O   -0.163310
   102  C    0.032896
   103  N   -0.321051
   104  C    0.081255
   105  C   -0.032047
   106  C   -0.024583
   107  C    0.083656
   108  C    0.078939
   109  C   -0.005185
   110  C    0.032848
   111  N   -0.303143
   112  C    0.079952
   113  C   -0.204935
   114  C    0.040264
   115  C    0.083659
   116  C    0.124743
   117  C    0.054309
   118  O   -0.186787
   119  C   -0.001689
   120  C    0.227710
   121  O   -0.252828
   122  O   -0.319970
   123  C    0.163798
   124  H   -0.038821
   125  H   -0.061752
   126  H   -0.037297
   127  H    0.007637
   128  H    0.019565
   129  H    0.005412
   130  H    0.020033
   131  H    0.021006
   132  H    0.017263
   133  H    0.023289
   134  H    0.046961
   135  H    0.015653
   136  H    0.039550
   137  H   -0.011480
   138  H    0.038951
   139  H    0.030967
   140  H    0.046504
   141  H    0.048769
   142  H    0.020588
   143  H    0.012593
   144  H    0.018263
   145  H    0.010046
   146  H    0.016794
   147  H    0.005676
   148  H   -0.002463
   149  H    0.015864
   150  H    0.008837
   151  H    0.008668
   152  H    0.009070
   153  H    0.043088
   154  H    0.037421
   155  H    0.028220
   156  H    0.043794
   157  H    0.067867
   158  H    0.040076
 Sum of Mulliken charges =  -0.00000

 Dipole moment (field-independent basis, Debye):
    X=              4.5863    Y=             -0.1509    Z=             -2.0296  Tot=              5.0176
 Quadrupole moment (field-independent basis, Debye-Ang):
   XX=           -448.0518   YY=           -526.8654   ZZ=           -484.8892
   XY=             75.5940   XZ=            -35.0619   YZ=            -15.3553

 Normal termination of Gaussian 16 at Wed Sep 15 13:57:02 2021.
