 Gaussian 16, Revision A.03,
 Gaussian 16:  ES64L-G16RevA.03 25-Dec-2016

 -----------------------------------
 #p cam-b3lyp/Def2SVP td=(nstates=5)
 -----------------------------------

 --------------------------------
 TDDFT excited states in gaussian
 --------------------------------
 Symbolic Z-matrix:
 Charge =  0 Multiplicity = 1

                         Standard orientation:
 ---------------------------------------------------------------------
 Center     Atomic      Atomic             Coordinates (Angstroms)
 Number     Number       Type             X           Y           Z
 ---------------------------------------------------------------------
      1         12           0      -20.273740   -0.544959    0.335593
      2          6           0      -17.644773    1.311688   -1.242698
      3          6           0      -21.190958   -1.661099   -2.613054
      4          6           0      -23.061888   -1.498081    1.852900
      5          6           0      -19.261672    1.150343    3.438883
      6          7           0      -19.463381   -0.238431   -1.685705
      7          6           0      -18.407519    0.578187   -2.137186
      8          6           0      -18.188725    0.530320   -3.696665
      9          6           0      -19.382429   -0.547567   -4.063897
     10          6           0      -20.066972   -0.871513   -2.739713
     11          6           0      -20.426858    0.041290   -5.106428
     12          6           0      -16.746293    0.139636   -4.172807
     13          6           0      -16.626144   -0.306758   -5.625030
     14          1           0      -15.814010    0.643071   -6.524388
     15          7           0      -21.861571   -1.546084   -0.285675
     16          6           0      -22.124579   -1.987804   -1.561067
     17          6           0      -23.361126   -2.736304   -1.641953
     18          6           0      -23.888518   -2.681004   -0.291241
     19          6           0      -22.861376   -1.928032    0.513129
     20          6           0      -23.885178   -3.434266   -2.807541
     21          6           0      -25.159142   -3.280385    0.285939
     22          8           0      -25.437558   -3.270441    1.452174
     23          6           0      -26.118116   -3.827756   -0.737634
     24          7           0      -21.086828   -0.165558    2.351796
     25          6           0      -22.268762   -0.727472    2.710105
     26          6           0      -22.581058   -0.458260    4.206470
     27          6           0      -21.280282    0.269176    4.694684
     28          6           0      -20.450338    0.391857    3.431302
     29          6           0      -23.881654    0.341185    4.558511
     30          6           0      -20.462574   -0.457154    5.820303
     31          6           0      -21.085579   -0.303405    7.225448
     32          7           0      -18.828080    0.917728    1.022172
     33          6           0      -18.499688    1.422166    2.259389
     34          6           0      -17.340134    2.213125    2.138564
     35          6           0      -16.990064    2.265434    0.841546
     36          6           0      -17.941355    1.467003    0.137021
     37          6           0      -16.650229    2.794735    3.365632
     38          6           0      -16.108849    2.809660   -0.196508
     39          8           0      -15.178959    3.570045   -0.114452
     40          6           0      -16.547470    2.200310   -1.612564
     41          6           0      -17.120394    3.321906   -2.418879
     42          8           0      -18.238302    3.781724   -2.481213
     43          8           0      -16.068495    3.766110   -3.195292
     44          6           0      -16.346140    4.882042   -4.130628
     45          1           0      -21.602758   -2.040175   -3.550573
     46          1           0      -24.058200   -1.707817    2.249476
     47          1           0      -19.030460    1.482490    4.453628
     48          1           0      -18.511400    1.488393   -4.104526
     49          1           0      -18.917290   -1.411300   -4.539563
     50          1           0      -20.646759   -0.712984   -5.861792
     51          1           0      -20.202279    0.982607   -5.607304
     52          1           0      -21.397382    0.178402   -4.630569
     53          1           0      -16.507651   -0.622663   -3.430009
     54          1           0      -15.937223    0.853623   -4.017214
     55          1           0      -17.624429   -0.398322   -6.052057
     56          1           0      -16.030966   -1.218837   -5.659817
     57          1           0      -23.816119   -4.459315   -2.443461
     58          1           0      -23.290100   -3.219595   -3.695311
     59          1           0      -24.923851   -3.257503   -3.086115
     60          1           0      -25.936043   -4.894532   -0.867091
     61          1           0      -26.299161   -3.151322   -1.573458
     62          1           0      -27.090631   -3.588146   -0.308553
     63          1           0      -22.478988   -1.428865    4.692780
     64          1           0      -21.523933    1.303752    4.937337
     65          1           0      -23.743570    1.266298    5.118903
     66          1           0      -24.415761   -0.286317    5.271655
     67          1           0      -24.512086    0.605634    3.709564
     68          1           0      -19.461756   -0.029697    5.870195
     69          1           0      -20.387345   -1.492864    5.486113
     70          1           0      -21.741828    0.566524    7.257673
     71          1           0      -20.245235   -0.237543    7.916422
     72          1           0      -21.732511   -1.130170    7.520291
     73          1           0      -15.586990    2.951053    3.183121
     74          1           0      -16.822504    2.129868    4.212082
     75          1           0      -17.142106    3.716975    3.675669
     76          1           0      -15.713713    1.711768   -2.117383
     77          1           0      -15.466706    5.524293   -4.085279
     78          1           0      -17.236717    5.461221   -3.887104
     79          1           0      -16.421024    4.315707   -5.059456
     80         12           0       20.208067    0.537176   -0.142017
     81          6           0       19.233747   -2.797799    0.137618
     82          6           0       16.980405    1.499044    0.593913
     83          6           0       21.363670    3.601308   -0.351723
     84          6           0       23.667420   -0.568105    0.164203
     85          7           0       18.263570   -0.625320    0.263149
     86          6           0       18.103128   -1.979066    0.359354
     87          6           0       16.679174   -2.329591    0.608806
     88          6           0       15.964295   -0.932553    0.798483
     89          6           0       17.126524    0.102837    0.535784
     90          6           0       14.658461   -0.756700   -0.016820
     91          6           0       16.487297   -3.245223    1.842189
     92          6           0       15.654953   -4.474045    1.480173
     93          1           0       14.404739   -4.780217    2.358939
     94          7           0       19.280208    2.316658    0.060373
     95          6           0       17.929265    2.541226    0.321231
     96          6           0       17.757753    3.987014    0.260255
     97          6           0       19.038543    4.639777   -0.055344
     98          6           0       19.991642    3.495292   -0.207100
     99          6           0       16.528938    4.645271    0.645679
    100          6           0       19.208561    6.101896   -0.016037
    101          8           0       18.311509    6.887896    0.206295
    102          6           0       20.523234    6.788548   -0.146464
    103          7           0       22.160689    1.339437   -0.054810
    104          6           0       22.361234    2.636055   -0.455586
    105          6           0       23.840212    2.960423   -0.450020
    106          6           0       24.470364    1.776853    0.183457
    107          6           0       23.399395    0.802933    0.174254
    108          6           0       24.435178    3.409573   -1.847195
    109          6           0       24.851358    2.010067    1.685742
    110          6           0       25.994980    1.261509    2.195238
    111          7           0       21.295805   -1.302583    0.074019
    112          6           0       22.663204   -1.604874    0.115757
    113          6           0       22.834042   -3.013905   -0.052524
    114          6           0       21.546434   -3.535208   -0.007393
    115          6           0       20.618666   -2.439793    0.112894
    116          6           0       24.154841   -3.680209   -0.172205
    117          6           0       20.800980   -4.730528    0.002790
    118          8           0       21.171800   -5.881240   -0.063433
    119          6           0       19.311972   -4.319903    0.038122
    120          6           0       18.624514   -4.906170   -1.123407
    121          8           0       18.559169   -4.401273   -2.256902
    122          8           0       18.197605   -6.176745   -0.812179
    123          6           0       17.399334   -6.935476   -1.761316
    124          1           0       15.927940    1.728437    0.770121
    125          1           0       21.888930    4.559283   -0.379095
    126          1           0       24.719454   -0.853984    0.227426
    127          1           0       16.306483   -2.638739   -0.368140
    128          1           0       15.614127   -0.757113    1.815222
    129          1           0       14.394180   -1.787761   -0.254802
    130          1           0       14.703471   -0.083548   -0.873005
    131          1           0       13.875659   -0.348983    0.622315
    132          1           0       15.903009   -2.793971    2.643900
    133          1           0       17.488560   -3.505558    2.184928
    134          1           0       16.375515   -5.251766    1.732803
    135          1           0       15.463414   -4.429823    0.409060
    136          1           0       15.799228    3.875010    0.896238
    137          1           0       16.030290    5.221684   -0.134128
    138          1           0       16.705890    5.243872    1.539940
    139          1           0       20.905400    6.261832   -1.020909
    140          1           0       21.119791    6.569342    0.739462
    141          1           0       20.396129    7.853690   -0.341106
    142          1           0       23.892566    3.844938    0.183729
    143          1           0       25.274846    1.277091   -0.356221
    144          1           0       23.633299    3.591636   -2.562941
    145          1           0       25.237751    2.778132   -2.229921
    146          1           0       24.856529    4.414316   -1.830241
    147          1           0       23.979346    1.814376    2.309881
    148          1           0       25.092058    3.058261    1.862393
    149          1           0       26.902746    1.828540    1.986148
    150          1           0       26.043524    0.251172    1.787739
    151          1           0       26.002505    1.301349    3.284962
    152          1           0       24.845710   -3.081715   -0.765857
    153          1           0       24.104215   -4.696912   -0.562217
    154          1           0       24.553962   -3.636760    0.841208
    155          1           0       18.762114   -4.788873    0.854210
    156          1           0       17.877699   -7.337864   -2.654321
    157          1           0       16.524179   -6.352501   -2.047555
    158          1           0       17.113981   -7.828805   -1.207003
 ---------------------------------------------------------------------

 SCF Done:  E(RCAM-B3LYP) =  -4069.79025283     A.U. after   19 cycles

 Excitation energies and oscillator strengths:

 Excited State   1:      Singlet-A      1.6751 eV  740.15 nm  f=0.3635  <S**2>=0.000
     309 -> 315       -0.18818
     311 -> 313        0.68311
     309 <- 315       -0.11086
 This state for optimization and/or second-order correction.
 Total Energy, E(TD-HF/TD-DFT) =  -4069.72869304
 Copying the excited state density for this state as the 1-particle RhoCI density.

 Excited State   2:      Singlet-A      1.6973 eV  730.48 nm  f=0.4030  <S**2>=0.000
     310 -> 316        0.17767
     312 -> 314        0.68608
     310 <- 316        0.10760

 Excited State   3:      Singlet-A      2.1859 eV  567.19 nm  f=0.1030  <S**2>=0.000
     309 -> 313        0.63557
     311 -> 315        0.29758

 Excited State   4:      Singlet-A      2.2114 eV  560.66 nm  f=0.1385  <S**2>=0.000
     310 -> 314        0.65075
     312 -> 316       -0.26506

 Excited State   5:      Singlet-A      2.9796 eV  416.11 nm  f=0.0000  <S**2>=0.000
     312 -> 313        0.70710

 The electronic state is 1-A.
 Alpha  occ. eigenvalues --  -46.88943 -46.88572 -19.24873 -19.23841 -19.19922
 Alpha  occ. eigenvalues --  -19.19367 -19.19110 -19.18950 -19.18358 -19.17378
 Alpha  occ. eigenvalues --  -14.42326 -14.42191 -14.41930 -14.41322 -14.40267
 Alpha  occ. eigenvalues --  -14.39628 -14.39169 -14.38850 -10.39093 -10.38975
 Alpha  occ. eigenvalues --  -10.35268 -10.34771 -10.34211 -10.33702 -10.31683
 Alpha  occ. eigenvalues --  -10.31620 -10.31572 -10.31569 -10.31203 -10.31063
 Alpha  occ. eigenvalues --  -10.31051 -10.30913 -10.30866 -10.30473 -10.30369
 Alpha  occ. eigenvalues --  -10.30190 -10.30107 -10.30105 -10.29865 -10.29381
 Alpha  occ. eigenvalues --  -10.29092 -10.29090 -10.28986 -10.28908 -10.28859
 Alpha  occ. eigenvalues --  -10.28764 -10.28555 -10.28546 -10.28489 -10.28371
 Alpha  occ. eigenvalues --  -10.28316 -10.28219 -10.28123 -10.27969 -10.27812
 Alpha  occ. eigenvalues --  -10.27750 -10.27669 -10.27360 -10.27295 -10.27208
 Alpha  occ. eigenvalues --  -10.27184 -10.27175 -10.27140 -10.26996 -10.26943
 Alpha  occ. eigenvalues --  -10.26823 -10.26795 -10.26781 -10.26769 -10.26753
 Alpha  occ. eigenvalues --  -10.26740 -10.26707 -10.26464 -10.26441 -10.26224
 Alpha  occ. eigenvalues --  -10.26154 -10.25882 -10.25712 -10.25600 -10.25566
 Alpha  occ. eigenvalues --  -10.25552 -10.25550 -10.25184 -10.24861 -10.24722
 Alpha  occ. eigenvalues --  -10.24708  -3.17432  -3.17115  -1.92335  -1.92011
 Alpha  occ. eigenvalues --   -1.91896  -1.91722  -1.91551  -1.91439  -1.15705
 Alpha  occ. eigenvalues --   -1.15452  -1.11368  -1.10792  -1.10058  -1.09840
 Alpha  occ. eigenvalues --   -1.07466  -1.06712  -1.04985  -1.03809  -1.03801
 Alpha  occ. eigenvalues --   -1.03298  -1.02987  -1.02504  -1.01594  -1.01572
 Alpha  occ. eigenvalues --   -0.93016  -0.92653  -0.90765  -0.89592  -0.89050
 Alpha  occ. eigenvalues --   -0.88932  -0.88251  -0.88123  -0.87708  -0.87242
 Alpha  occ. eigenvalues --   -0.87148  -0.86846  -0.86295  -0.86023  -0.85263
 Alpha  occ. eigenvalues --   -0.84544  -0.83896  -0.83456  -0.83192  -0.82571
 Alpha  occ. eigenvalues --   -0.82178  -0.82051  -0.81410  -0.80824  -0.80711
 Alpha  occ. eigenvalues --   -0.80077  -0.78670  -0.78115  -0.77976  -0.77118
 Alpha  occ. eigenvalues --   -0.76976  -0.76643  -0.76308  -0.75544  -0.75382
 Alpha  occ. eigenvalues --   -0.74820  -0.73409  -0.72772  -0.72033  -0.71323
 Alpha  occ. eigenvalues --   -0.69644  -0.69337  -0.69108  -0.68751  -0.67992
 Alpha  occ. eigenvalues --   -0.67723  -0.67515  -0.66958  -0.66467  -0.65930
 Alpha  occ. eigenvalues --   -0.65274  -0.65045  -0.64683  -0.64610  -0.64415
 Alpha  occ. eigenvalues --   -0.63890  -0.62034  -0.61460  -0.60739  -0.60082
 Alpha  occ. eigenvalues --   -0.59496  -0.59475  -0.59464  -0.58961  -0.58821
 Alpha  occ. eigenvalues --   -0.58332  -0.57916  -0.57844  -0.57412  -0.56874
 Alpha  occ. eigenvalues --   -0.56404  -0.56130  -0.55899  -0.55769  -0.55482
 Alpha  occ. eigenvalues --   -0.55143  -0.55002  -0.54466  -0.54434  -0.54281
 Alpha  occ. eigenvalues --   -0.54243  -0.54131  -0.53660  -0.53193  -0.52831
 Alpha  occ. eigenvalues --   -0.52659  -0.52549  -0.52378  -0.52289  -0.52094
 Alpha  occ. eigenvalues --   -0.51950  -0.51741  -0.51681  -0.51622  -0.51339
 Alpha  occ. eigenvalues --   -0.51285  -0.51230  -0.50996  -0.50543  -0.50412
 Alpha  occ. eigenvalues --   -0.50191  -0.50007  -0.49802  -0.49675  -0.49655
 Alpha  occ. eigenvalues --   -0.49485  -0.49386  -0.49155  -0.49118  -0.48849
 Alpha  occ. eigenvalues --   -0.48829  -0.48561  -0.48509  -0.48407  -0.47970
 Alpha  occ. eigenvalues --   -0.47813  -0.47749  -0.47620  -0.47131  -0.47055
 Alpha  occ. eigenvalues --   -0.46999  -0.46788  -0.46756  -0.46599  -0.46339
 Alpha  occ. eigenvalues --   -0.46314  -0.46206  -0.45893  -0.45745  -0.45738
 Alpha  occ. eigenvalues --   -0.45448  -0.45305  -0.45301  -0.45177  -0.45042
 Alpha  occ. eigenvalues --   -0.44933  -0.44845  -0.44719  -0.44586  -0.44478
 Alpha  occ. eigenvalues --   -0.44047  -0.43981  -0.43814  -0.43683  -0.43477
 Alpha  occ. eigenvalues --   -0.43428  -0.43230  -0.43186  -0.43061  -0.42965
 Alpha  occ. eigenvalues --   -0.42760  -0.42563  -0.42550  -0.42084  -0.42072
 Alpha  occ. eigenvalues --   -0.41817  -0.41662  -0.41619  -0.41585  -0.41331
 Alpha  occ. eigenvalues --   -0.41167  -0.41117  -0.40948  -0.40777  -0.40671
 Alpha  occ. eigenvalues --   -0.40475  -0.40263  -0.39341  -0.39211  -0.38789
 Alpha  occ. eigenvalues --   -0.38484  -0.38103  -0.37754  -0.37736  -0.37331
 Alpha  occ. eigenvalues --   -0.37011  -0.36971  -0.36543  -0.36384  -0.36343
 Alpha  occ. eigenvalues --   -0.36321  -0.35734  -0.34638  -0.34346  -0.33938
 Alpha  occ. eigenvalues --   -0.33714  -0.33028  -0.32593  -0.31382  -0.31314
 Alpha  occ. eigenvalues --   -0.30832  -0.30678  -0.30570  -0.30111  -0.29880
 Alpha  occ. eigenvalues --   -0.29742  -0.29654  -0.29438  -0.24308  -0.23590
 Alpha  occ. eigenvalues --   -0.21574  -0.20962
 Alpha virt. eigenvalues --   -0.09162  -0.08534  -0.02511  -0.01131   0.00250
 Alpha virt. eigenvalues --    0.00880   0.02350   0.02465   0.02674   0.02675
 Alpha virt. eigenvalues --    0.04086   0.04945   0.04994   0.05459   0.05851

 Mulliken charges:
               1
     1  Mg   0.840139
     2  C   -0.023623
     3  C   -0.059950
     4  C   -0.059507
     5  C   -0.088226
     6  N   -0.312912
     7  C   -0.052862
     8  C    0.013301
     9  C   -0.070184
    10  C    0.084885
    11  C    0.032865
    12  C    0.022266
    13  C   -0.067097
    14  H    0.013130
    15  N   -0.403470
    16  C    0.093552
    17  C   -0.114440
    18  C   -0.089663
    19  C    0.139394
    20  C    0.129794
    21  C   -0.007909
    22  O   -0.175147
    23  C    0.037068
    24  N   -0.268490
    25  C    0.008214
    26  C    0.022471
    27  C   -0.064387
    28  C   -0.003266
    29  C    0.067814
    30  C    0.012976
    31  C    0.024884
    32  N   -0.316146
    33  C    0.150937
    34  C   -0.226513
    35  C    0.063322
    36  C    0.099528
    37  C    0.138229
    38  C    0.034449
    39  O   -0.135682
    40  C   -0.039672
    41  C    0.217490
    42  O   -0.203419
    43  O   -0.356830
    44  C    0.167129
    45  H   -0.052225
    46  H   -0.001824
    47  H   -0.022100
    48  H    0.024668
    49  H    0.022127
    50  H    0.009517
    51  H    0.028703
    52  H    0.021740
    53  H    0.009429
    54  H    0.037190
    55  H    0.040132
    56  H    0.040326
    57  H    0.035115
    58  H    0.015717
    59  H    0.025413
    60  H    0.055345
    61  H    0.027330
    62  H    0.014947
    63  H    0.011962
    64  H    0.007788
    65  H    0.012411
    66  H    0.017595
    67  H    0.029884
    68  H    0.004767
    69  H    0.008073
    70  H    0.011351
    71  H    0.020280
    72  H    0.015882
    73  H    0.034514
    74  H    0.007362
    75  H    0.021775
    76  H    0.051799
    77  H    0.045626
    78  H    0.055985
    79  H    0.036950
    80  Mg   0.816007
    81  C    0.061263
    82  C   -0.041716
    83  C   -0.115229
    84  C   -0.090480
    85  N   -0.274133
    86  C   -0.072860
    87  C    0.029124
    88  C   -0.105843
    89  C    0.020216
    90  C    0.061869
    91  C    0.063529
    92  C   -0.082820
    93  H    0.023005
    94  N   -0.454295
    95  C    0.183568
    96  C   -0.155233
    97  C   -0.020244
    98  C    0.249197
    99  C    0.147972
   100  C   -0.059486
   101  O   -0.208353
   102  C    0.069716
   103  N   -0.300517
   104  C    0.044369
   105  C   -0.028504
   106  C   -0.022845
   107  C    0.032430
   108  C    0.076705
   109  C    0.046898
   110  C    0.037670
   111  N   -0.321500
   112  C    0.100605
   113  C   -0.177580
   114  C    0.038590
   115  C    0.077951
   116  C    0.134571
   117  C    0.030831
   118  O   -0.149667
   119  C   -0.065441
   120  C    0.186043
   121  O   -0.240191
   122  O   -0.329525
   123  C    0.188557
   124  H   -0.024469
   125  H   -0.026443
   126  H   -0.025948
   127  H    0.025411
   128  H    0.016588
   129  H    0.017416
   130  H    0.029714
   131  H    0.010129
   132  H    0.027917
   133  H    0.028709
   134  H    0.041884
   135  H    0.032845
   136  H   -0.022390
   137  H    0.032795
   138  H    0.041426
   139  H    0.021162
   140  H    0.040047
   141  H    0.031096
   142  H    0.007563
   143  H    0.001008
   144  H    0.012649
   145  H    0.023853
   146  H    0.005940
   147  H    0.014801
   148  H   -0.004814
   149  H    0.004475
   150  H    0.009383
   151  H    0.010867
   152  H    0.014693
   153  H    0.043110
   154  H    0.027816
   155  H    0.023724
   156  H    0.040260
   157  H    0.029982
   158  H    0.032577
 Sum of Mulliken charges =  -0.00000

 Dipole moment (field-independent basis, Debye):
    X=              0.2109    Y=             -1.9261    Z=             -0.8472  Tot=              2.1147
 Quadrupole moment (field-independent basis, Debye-Ang):
   XX=           -389.3062   YY=           -554.9791   ZZ=           -479.5556
   XY=             96.2563   XZ=             63.0570   YZ=              5.2672

 Normal termination of Gaussian 16 at Wed Sep 15 07:38:43 2021.
