 Gaussian 16, Revision A.03,
 Gaussian 16:  ES64L-G16RevA.03 25-Dec-2016

 ----------------------------------------------------------
 #p cam-b3lyp/Def2SVP td=(nstates=5) density=(transition=1)
 ----------------------------------------------------------

 --------------------------------
 TDDFT excited states in gaussian
 --------------------------------
 Symbolic Z-matrix:
 Charge =  0 Multiplicity = 1

                         Standard orientation:
 ---------------------------------------------------------------------
 Center     Atomic      Atomic             Coordinates (Angstroms)
 Number     Number       Type             X           Y           Z
 ---------------------------------------------------------------------
      1         12           0       12.378935   -0.001314    0.256241
      2          6           0        9.044216   -0.368107   -0.282844
      3          6           0       12.883571    1.736097   -2.681414
      4          6           0       15.737721    0.067079    0.917485
      5          6           0       12.057971   -2.181232    3.126053
      6          7           0       11.138453    0.416572   -1.377719
      7          6           0        9.706331    0.403313   -1.284263
      8          6           0        9.099452    1.210740   -2.361065
      9          6           0       10.363064    1.491579   -3.291990
     10          6           0       11.574268    1.205722   -2.432420
     11          6           0       10.381920    0.587813   -4.624297
     12          6           0        8.249479    2.422527   -1.869441
     13          6           0        6.933159    2.598627   -2.555561
     14          1           0        6.919776    2.331195   -4.112219
     15          7           0       14.069686    0.857471   -0.711446
     16          6           0       14.008178    1.503198   -1.910453
     17          6           0       15.323250    1.944887   -2.226259
     18          6           0       16.208773    1.556674   -1.146278
     19          6           0       15.336786    0.830082   -0.163646
     20          6           0       15.661891    2.623577   -3.571516
     21          6           0       17.664333    1.786054   -0.883452
     22          8           0       18.363780    1.322664    0.024350
     23          6           0       18.372379    2.788728   -1.871248
     24          7           0       13.772838   -1.029940    1.776544
     25          6           0       15.047190   -0.741358    1.867414
     26          6           0       15.667930   -1.247106    3.168004
     27          6           0       14.473518   -1.963546    3.860457
     28          6           0       13.348530   -1.732899    2.853375
     29          6           0       16.931491   -2.224123    2.945007
     30          6           0       14.195445   -1.258059    5.260523
     31          6           0       13.669746    0.196983    5.331296
     32          7           0       10.898126   -1.201298    1.149799
     33          6           0       10.920533   -1.956964    2.306813
     34          6           0        9.522156   -2.351550    2.572583
     35          6           0        8.712827   -1.778984    1.637866
     36          6           0        9.628544   -1.074535    0.774810
     37          6           0        9.117810   -3.349736    3.602105
     38          6           0        7.345492   -1.601988    1.149427
     39          8           0        6.283530   -2.042350    1.556554
     40          6           0        7.540571   -0.676468   -0.130695
     41          6           0        7.086894   -1.453429   -1.302091
     42          8           0        7.481722   -2.570398   -1.679533
     43          8           0        6.115461   -0.658229   -1.875525
     44          6           0        5.632009   -1.134246   -3.178187
     45          1           0       13.076320    2.333841   -3.574559
     46          1           0       16.797639    0.228767    1.127714
     47          1           0       11.928887   -2.775902    4.032093
     48          1           0        8.406844    0.526078   -2.852227
     49          1           0       10.353501    2.548258   -3.557538
     50          1           0        9.429108    0.103020   -4.836962
     51          1           0       11.040389   -0.252969   -4.406564
     52          1           0       10.788469    1.260586   -5.378268
     53          1           0        8.810513    3.346102   -2.012379
     54          1           0        8.086952    2.186969   -0.817777
     55          1           0        6.560488    3.621035   -2.507064
     56          1           0        6.038107    2.076827   -2.216595
     57          1           0       15.362754    3.667446   -3.665435
     58          1           0       15.183559    1.959572   -4.291320
     59          1           0       16.733964    2.726176   -3.738176
     60          1           0       18.505665    2.298783   -2.835795
     61          1           0       19.237939    3.208765   -1.359252
     62          1           0       17.814934    3.712062   -2.030088
     63          1           0       15.964553   -0.385905    3.766236
     64          1           0       14.651223   -3.021464    4.053888
     65          1           0       17.811232   -1.637089    3.211155
     66          1           0       17.003710   -2.511122    1.895452
     67          1           0       17.022507   -3.133442    3.537736
     68          1           0       15.025574   -1.290149    5.965995
     69          1           0       13.374103   -1.868588    5.637104
     70          1           0       12.683547    0.068240    5.777535
     71          1           0       13.647353    0.684242    4.357331
     72          1           0       14.270349    0.853807    5.960505
     73          1           0        8.135267   -2.990235    3.906277
     74          1           0        9.813757   -3.401607    4.439610
     75          1           0        8.860558   -4.268386    3.076465
     76          1           0        6.804510    0.093606    0.098657
     77          1           0        4.813025   -0.443769   -3.381776
     78          1           0        5.207466   -2.121258   -2.994669
     79          1           0        6.392332   -1.260688   -3.949191
     80         12           0      -12.087378   -0.423265   -0.589359
     81          6           0      -11.673768    2.945503    0.321975
     82          6           0       -8.998811   -0.318812   -2.096673
     83          6           0      -12.225571   -3.725818   -0.729331
     84          6           0      -15.139767   -0.466136    1.226936
     85          7           0      -10.439520    1.047422   -0.626062
     86          6           0      -10.478786    2.396451   -0.188244
     87          6           0       -9.390941    3.213209   -0.753509
     88          6           0       -8.587803    2.149679   -1.619924
     89          6           0       -9.402768    0.873794   -1.478396
     90          6           0       -8.304109    2.647201   -3.057981
     91          6           0       -8.439161    3.775302    0.257971
     92          6           0       -8.101798    2.881968    1.461009
     93          1           0       -6.661448    2.880936    2.106440
     94          7           0      -10.809190   -1.874803   -1.348760
     95          6           0       -9.675859   -1.597218   -2.021195
     96          6           0       -9.158813   -2.826387   -2.568706
     97          6           0      -10.108255   -3.830317   -2.256084
     98          6           0      -11.138574   -3.175339   -1.434198
     99          6           0       -7.850045   -2.988514   -3.294039
    100          6           0      -10.036126   -5.292787   -2.694245
    101          8           0       -9.106340   -5.702307   -3.361521
    102          6           0      -10.961151   -6.407724   -2.305176
    103          7           0      -13.333745   -1.907296    0.353651
    104          6           0      -13.213935   -3.245306    0.087697
    105          6           0      -14.477980   -4.037907    0.557233
    106          6           0      -15.212479   -2.984304    1.440446
    107          6           0      -14.545333   -1.708644    0.974815
    108          6           0      -15.403595   -4.545874   -0.574545
    109          6           0      -14.907623   -3.047688    3.011259
    110          6           0      -16.076557   -2.970216    3.925172
    111          7           0      -13.236608    0.891182    0.431493
    112          6           0      -14.479120    0.763669    0.916386
    113          6           0      -15.100676    2.127066    1.115618
    114          6           0      -14.001718    2.997859    0.828467
    115          6           0      -12.857284    2.194300    0.561566
    116          6           0      -16.503458    2.520319    1.555869
    117          6           0      -13.601301    4.373655    0.896009
    118          8           0      -14.226525    5.368287    1.228194
    119          6           0      -12.061499    4.387232    0.533361
    120          6           0      -11.318907    4.818856    1.780909
    121          8           0      -11.197225    4.218335    2.797057
    122          8           0      -10.689092    6.014109    1.506271
    123          6           0       -9.704122    6.407492    2.518896
    124          1           0       -8.119398   -0.226288   -2.737101
    125          1           0      -12.378232   -4.789845   -0.917542
    126          1           0      -16.145566   -0.534918    1.646538
    127          1           0       -9.848274    4.030144   -1.311677
    128          1           0       -7.647756    1.798035   -1.194890
    129          1           0       -7.241691    2.416625   -3.138715
    130          1           0       -8.531544    3.713126   -3.075499
    131          1           0       -8.833024    2.074398   -3.819982
    132          1           0       -8.666384    4.798544    0.558225
    133          1           0       -7.440964    3.989256   -0.124667
    134          1           0       -8.362394    1.873175    1.139017
    135          1           0       -8.862691    3.179814    2.182632
    136          1           0       -7.302617   -3.856378   -2.924802
    137          1           0       -7.276511   -2.063698   -3.232998
    138          1           0       -8.143649   -3.163518   -4.329338
    139          1           0      -10.947402   -6.681866   -1.250793
    140          1           0      -10.481192   -7.254955   -2.795242
    141          1           0      -11.934929   -6.347863   -2.792429
    142          1           0      -14.133721   -4.906052    1.119147
    143          1           0      -16.287368   -2.943147    1.262433
    144          1           0      -16.343385   -3.996173   -0.525559
    145          1           0      -15.426694   -5.634520   -0.620912
    146          1           0      -14.957648   -4.276470   -1.531296
    147          1           0      -14.176489   -2.292488    3.298812
    148          1           0      -14.422177   -4.015203    3.140297
    149          1           0      -16.139587   -3.816083    4.609429
    150          1           0      -17.029570   -2.867385    3.405725
    151          1           0      -16.017522   -2.104436    4.584195
    152          1           0      -16.384946    3.117400    2.460070
    153          1           0      -17.106912    1.612436    1.590662
    154          1           0      -16.859619    3.217628    0.797683
    155          1           0      -11.841382    5.037086   -0.313302
    156          1           0       -9.241503    5.555704    3.017245
    157          1           0      -10.291598    6.990264    3.228437
    158          1           0       -9.050924    7.129295    2.029305
 ---------------------------------------------------------------------

 SCF Done:  E(RCAM-B3LYP) =  -4069.79586768     A.U. after   19 cycles

 Excitation energies and oscillator strengths:

 Excited State   1:      Singlet-A      1.6650 eV  744.64 nm  f=0.3941  <S**2>=0.000
     310 -> 316       -0.17206
     311 -> 313        0.68632
     310 <- 316       -0.10753
 This state for optimization and/or second-order correction.
 Total Energy, E(TD-HF/TD-DFT) =  -4069.73467939
 Copying the excited state density for this state as the 1-particle RhoCI density.

 Excited State   2:      Singlet-A      1.6992 eV  729.67 nm  f=0.3685  <S**2>=0.000
     309 -> 315        0.18591
     312 -> 314        0.68257
     309 <- 315        0.10881

 Excited State   3:      Singlet-A      2.2659 eV  547.16 nm  f=0.0951  <S**2>=0.000
     309 -> 314       -0.32486
     310 -> 313        0.53270
     311 -> 316        0.26226
     312 -> 315        0.18544

 Excited State   4:      Singlet-A      2.2669 eV  546.94 nm  f=0.0518  <S**2>=0.000
     309 -> 314        0.51541
     310 -> 313        0.33488
     311 -> 316        0.16557
     312 -> 315       -0.29607

 Excited State   5:      Singlet-A      2.9379 eV  422.02 nm  f=0.0000  <S**2>=0.000
     312 -> 313        0.70706

 The electronic state is 1-A.
 Alpha  occ. eigenvalues --  -46.89267 -46.88542 -19.25667 -19.24580 -19.20399
 Alpha  occ. eigenvalues --  -19.20269 -19.19565 -19.19515 -19.19092 -19.18199
 Alpha  occ. eigenvalues --  -14.42338 -14.42309 -14.42208 -14.41846 -14.39557
 Alpha  occ. eigenvalues --  -14.39517 -14.39498 -14.39493 -10.39533 -10.39216
 Alpha  occ. eigenvalues --  -10.35722 -10.35420 -10.34961 -10.34554 -10.31998
 Alpha  occ. eigenvalues --  -10.31849 -10.31791 -10.31416 -10.31171 -10.30908
 Alpha  occ. eigenvalues --  -10.30884 -10.30783 -10.30616 -10.30542 -10.30430
 Alpha  occ. eigenvalues --  -10.30350 -10.30192 -10.29912 -10.29910 -10.29605
 Alpha  occ. eigenvalues --  -10.29279 -10.29251 -10.29122 -10.28833 -10.28676
 Alpha  occ. eigenvalues --  -10.28476 -10.28476 -10.28354 -10.28349 -10.28298
 Alpha  occ. eigenvalues --  -10.28244 -10.28146 -10.28093 -10.28007 -10.27910
 Alpha  occ. eigenvalues --  -10.27855 -10.27791 -10.27770 -10.27703 -10.27598
 Alpha  occ. eigenvalues --  -10.27586 -10.27507 -10.27432 -10.27398 -10.27395
 Alpha  occ. eigenvalues --  -10.27365 -10.27002 -10.26708 -10.26607 -10.26589
 Alpha  occ. eigenvalues --  -10.26525 -10.26504 -10.26470 -10.26467 -10.26347
 Alpha  occ. eigenvalues --  -10.26243 -10.25969 -10.25865 -10.25855 -10.25577
 Alpha  occ. eigenvalues --  -10.25505 -10.25463 -10.25436 -10.25329 -10.25092
 Alpha  occ. eigenvalues --  -10.24745  -3.17670  -3.17187  -1.92574  -1.92115
 Alpha  occ. eigenvalues --   -1.92049  -1.91972  -1.91647  -1.91505  -1.17239
 Alpha  occ. eigenvalues --   -1.15978  -1.10358  -1.10209  -1.09920  -1.09622
 Alpha  occ. eigenvalues --   -1.08934  -1.07485  -1.05142  -1.04545  -1.03955
 Alpha  occ. eigenvalues --   -1.03793  -1.03300  -1.02909  -1.02590  -1.01731
 Alpha  occ. eigenvalues --   -0.93149  -0.92393  -0.89835  -0.89391  -0.89118
 Alpha  occ. eigenvalues --   -0.88815  -0.88348  -0.88022  -0.87491  -0.87292
 Alpha  occ. eigenvalues --   -0.86925  -0.86295  -0.86265  -0.85767  -0.84708
 Alpha  occ. eigenvalues --   -0.84667  -0.84132  -0.83391  -0.82681  -0.82436
 Alpha  occ. eigenvalues --   -0.81650  -0.81556  -0.81225  -0.80837  -0.80477
 Alpha  occ. eigenvalues --   -0.79983  -0.78101  -0.77910  -0.77470  -0.77377
 Alpha  occ. eigenvalues --   -0.77219  -0.76812  -0.76015  -0.75821  -0.75098
 Alpha  occ. eigenvalues --   -0.74993  -0.72667  -0.72483  -0.72195  -0.71658
 Alpha  occ. eigenvalues --   -0.69884  -0.69594  -0.69282  -0.68775  -0.68645
 Alpha  occ. eigenvalues --   -0.68373  -0.67452  -0.67044  -0.65827  -0.65252
 Alpha  occ. eigenvalues --   -0.65044  -0.65021  -0.64721  -0.64506  -0.64408
 Alpha  occ. eigenvalues --   -0.64343  -0.62553  -0.62073  -0.60317  -0.59969
 Alpha  occ. eigenvalues --   -0.59436  -0.59378  -0.59036  -0.58933  -0.58904
 Alpha  occ. eigenvalues --   -0.58795  -0.58104  -0.57990  -0.57499  -0.57343
 Alpha  occ. eigenvalues --   -0.56523  -0.56071  -0.55940  -0.55555  -0.55386
 Alpha  occ. eigenvalues --   -0.55082  -0.55070  -0.54896  -0.54570  -0.54437
 Alpha  occ. eigenvalues --   -0.54040  -0.53564  -0.53214  -0.53169  -0.53010
 Alpha  occ. eigenvalues --   -0.52815  -0.52411  -0.52325  -0.52302  -0.52250
 Alpha  occ. eigenvalues --   -0.52147  -0.52086  -0.51961  -0.51582  -0.51517
 Alpha  occ. eigenvalues --   -0.51392  -0.51122  -0.51071  -0.50908  -0.50894
 Alpha  occ. eigenvalues --   -0.50090  -0.49872  -0.49670  -0.49572  -0.49375
 Alpha  occ. eigenvalues --   -0.49350  -0.49218  -0.48934  -0.48908  -0.48730
 Alpha  occ. eigenvalues --   -0.48599  -0.48552  -0.48536  -0.48496  -0.48331
 Alpha  occ. eigenvalues --   -0.48138  -0.47713  -0.47517  -0.47403  -0.47256
 Alpha  occ. eigenvalues --   -0.47164  -0.47066  -0.46866  -0.46861  -0.46760
 Alpha  occ. eigenvalues --   -0.46744  -0.46344  -0.46155  -0.45964  -0.45890
 Alpha  occ. eigenvalues --   -0.45845  -0.45632  -0.45467  -0.45201  -0.45197
 Alpha  occ. eigenvalues --   -0.44788  -0.44636  -0.44548  -0.44335  -0.44015
 Alpha  occ. eigenvalues --   -0.43929  -0.43871  -0.43568  -0.43481  -0.43235
 Alpha  occ. eigenvalues --   -0.43192  -0.43004  -0.42924  -0.42785  -0.42769
 Alpha  occ. eigenvalues --   -0.42485  -0.42340  -0.42324  -0.42158  -0.42155
 Alpha  occ. eigenvalues --   -0.42118  -0.42091  -0.41954  -0.41857  -0.41704
 Alpha  occ. eigenvalues --   -0.41559  -0.41081  -0.40763  -0.40734  -0.40556
 Alpha  occ. eigenvalues --   -0.40366  -0.39809  -0.39784  -0.39536  -0.39116
 Alpha  occ. eigenvalues --   -0.38419  -0.37886  -0.37840  -0.37511  -0.37298
 Alpha  occ. eigenvalues --   -0.37159  -0.37001  -0.36739  -0.36418  -0.36410
 Alpha  occ. eigenvalues --   -0.36282  -0.35731  -0.35075  -0.34680  -0.34224
 Alpha  occ. eigenvalues --   -0.34193  -0.33493  -0.32987  -0.31342  -0.31234
 Alpha  occ. eigenvalues --   -0.31124  -0.31069  -0.30999  -0.30487  -0.30391
 Alpha  occ. eigenvalues --   -0.29896  -0.29861  -0.29618  -0.24425  -0.24272
 Alpha  occ. eigenvalues --   -0.21009  -0.20970
 Alpha virt. eigenvalues --   -0.08741  -0.08500  -0.02371  -0.01751  -0.00256
 Alpha virt. eigenvalues --    0.00255   0.01414   0.01934   0.02158   0.02565
 Alpha virt. eigenvalues --    0.04716   0.04913   0.05099   0.05423   0.05467

 Mulliken charges:
               1
     1  Mg  11.999677
     2  C    5.998202
     3  C    6.001767
     4  C    6.000364
     5  C    5.998432
     6  N    6.999897
     7  C    6.002677
     8  C    5.999155
     9  C    6.000704
    10  C    5.997494
    11  C    6.000112
    12  C    5.999849
    13  C    5.999569
    14  H    1.000968
    15  N    7.000909
    16  C    5.996959
    17  C    5.998710
    18  C    5.998628
    19  C    5.997847
    20  C    6.000052
    21  C    5.999234
    22  O    7.997849
    23  C    6.000382
    24  N    6.999761
    25  C    5.998035
    26  C    6.000788
    27  C    5.999228
    28  C    6.002268
    29  C    6.000153
    30  C    5.999864
    31  C    5.999696
    32  N    6.999527
    33  C    6.003538
    34  C    6.001507
    35  C    6.000446
    36  C    6.002516
    37  C    5.999830
    38  C    6.001172
    39  O    8.002379
    40  C    6.000157
    41  C    6.000357
    42  O    8.000407
    43  O    8.000059
    44  C    5.999572
    45  H    0.999466
    46  H    0.999341
    47  H    1.000492
    48  H    1.000480
    49  H    0.999763
    50  H    0.999379
    51  H    0.999967
    52  H    0.999925
    53  H    1.000590
    54  H    0.999522
    55  H    1.000016
    56  H    1.000175
    57  H    0.998457
    58  H    0.999047
    59  H    0.998922
    60  H    0.999379
    61  H    0.998817
    62  H    0.999369
    63  H    0.999719
    64  H    1.000122
    65  H    0.999921
    66  H    1.000224
    67  H    0.999195
    68  H    1.000481
    69  H    0.999691
    70  H    0.999572
    71  H    1.000681
    72  H    1.000243
    73  H    1.001164
    74  H    1.001088
    75  H    1.001679
    76  H    1.000584
    77  H    1.000756
    78  H    1.000795
    79  H    1.000279
    80  Mg  11.997954
    81  C    5.964981
    82  C    6.016006
    83  C    6.028540
    84  C    5.986592
    85  N    6.994020
    86  C    6.045176
    87  C    5.984193
    88  C    6.009462
    89  C    5.968110
    90  C    6.002230
    91  C    5.995898
    92  C    5.993045
    93  H    1.009673
    94  N    7.012851
    95  C    5.950705
    96  C    5.977719
    97  C    5.994340
    98  C    5.948317
    99  C    6.004815
   100  C    5.989346
   101  O    7.980644
   102  C    6.004520
   103  N    7.003449
   104  C    5.963339
   105  C    6.007061
   106  C    5.994397
   107  C    6.024810
   108  C    5.999915
   109  C    5.991507
   110  C    5.999830
   111  N    6.994931
   112  C    6.042250
   113  C    6.039835
   114  C    5.995172
   115  C    6.045013
   116  C    5.997263
   117  C    6.013909
   118  O    8.026129
   119  C    6.002570
   120  C    6.002793
   121  O    8.003510
   122  O    8.002081
   123  C    5.998232
   124  H    0.987324
   125  H    0.992333
   126  H    1.011889
   127  H    1.002569
   128  H    1.002051
   129  H    0.999725
   130  H    0.986495
   131  H    1.002149
   132  H    0.996960
   133  H    1.009874
   134  H    1.010493
   135  H    0.993015
   136  H    0.981812
   137  H    0.980268
   138  H    0.980350
   139  H    0.988876
   140  H    0.988338
   141  H    0.988233
   142  H    0.999817
   143  H    0.999874
   144  H    0.986402
   145  H    0.999530
   146  H    1.004784
   147  H    0.999123
   148  H    1.015322
   149  H    1.005721
   150  H    1.000538
   151  H    0.996699
   152  H    1.020474
   153  H    1.019651
   154  H    1.020957
   155  H    1.010138
   156  H    1.004070
   157  H    1.001523
   158  H    1.005493
 Sum of Mulliken charges = 624.00000

 Dipole moment (field-independent basis, Debye):
    X=             -6.7775    Y=              7.1847    Z=              5.2235  Tot=             11.1732
 Quadrupole moment (field-independent basis, Debye-Ang):
   XX=            132.7594   YY=             -4.7633   ZZ=             -5.9272
   XY=            -91.6200   XZ=            -51.0475   YZ=             -6.6245

 Normal termination of Gaussian 16 at Tue Sep 21 16:45:43 2021.
