 Gaussian 16, Revision A.03,
 Gaussian 16:  ES64L-G16RevA.03 25-Dec-2016

 -----------------------------------
 #p cam-b3lyp/Def2SVP td=(nstates=5)
 -----------------------------------

 --------------------------------
 TDDFT excited states in gaussian
 --------------------------------
 Symbolic Z-matrix:
 Charge =  0 Multiplicity = 1

                         Standard orientation:
 ---------------------------------------------------------------------
 Center     Atomic      Atomic             Coordinates (Angstroms)
 Number     Number       Type             X           Y           Z
 ---------------------------------------------------------------------
      1         12           0       19.673800   -0.751236    0.304203
      2          6           0       19.302063    2.412813   -1.234158
      3          6           0       20.800797    0.837139    3.153522
      4          6           0       20.296605   -3.798729    1.648272
      5          6           0       18.727601   -2.325941   -2.681498
      6          7           0       20.073601    1.379134    0.755533
      7          6           0       19.647450    2.516862    0.074349
      8          6           0       19.909902    3.829537    0.920171
      9          6           0       20.633447    3.262258    2.170448
     10          6           0       20.561006    1.725825    2.023721
     11          6           0       22.113114    3.724967    2.445438
     12          6           0       18.669303    4.786087    1.151747
     13          6           0       18.827852    6.177821    0.618548
     14          1           0       18.185955    7.331119    1.487088
     15          7           0       20.436000   -1.326136    2.109068
     16          6           0       20.786943   -0.553132    3.197208
     17          6           0       21.271303   -1.413303    4.265479
     18          6           0       21.143512   -2.777536    3.879041
     19          6           0       20.576952   -2.691918    2.482835
     20          6           0       21.684300   -0.905889    5.661771
     21          6           0       21.444720   -4.053088    4.659260
     22          8           0       21.209265   -5.169833    4.245963
     23          6           0       21.999662   -4.080042    6.142263
     24          7           0       19.618306   -2.795456   -0.464963
     25          6           0       19.914781   -3.851026    0.281868
     26          6           0       19.716457   -5.199333   -0.498419
     27          6           0       19.021869   -4.718825   -1.833668
     28          6           0       19.092966   -3.171367   -1.661610
     29          6           0       21.042668   -6.004533   -0.617861
     30          6           0       17.635461   -5.308396   -2.001630
     31          6           0       17.321787   -5.768166   -3.424285
     32          7           0       19.242138   -0.189486   -1.654730
     33          6           0       18.781018   -0.914507   -2.736797
     34          6           0       18.634162   -0.002262   -3.828929
     35          6           0       18.775213    1.309303   -3.311601
     36          6           0       19.161615    1.168857   -1.949492
     37          6           0       18.295104   -0.362510   -5.225583
     38          6           0       18.636604    2.741550   -3.628072
     39          8           0       18.447548    3.348938   -4.677945
     40          6           0       18.969926    3.532826   -2.144011
     41          6           0       20.052491    4.449805   -2.320348
     42          8           0       21.185157    4.262785   -1.931937
     43          8           0       19.608198    5.630802   -2.870640
     44          6           0       20.708766    6.593544   -3.124762
     45          1           0       21.043857    1.298477    4.113169
     46          1           0       20.524404   -4.802212    2.012338
     47          1           0       18.359760   -2.893154   -3.539822
     48          1           0       20.720128    4.327889    0.389022
     49          1           0       20.082586    3.508846    3.078157
     50          1           0       22.195607    3.875904    3.522233
     51          1           0       22.296847    4.641546    1.885417
     52          1           0       22.873016    3.001839    2.148575
     53          1           0       18.486029    4.778188    2.226290
     54          1           0       17.828719    4.342256    0.618057
     55          1           0       18.361508    6.249546   -0.364920
     56          1           0       19.907808    6.292078    0.529410
     57          1           0       20.927290   -1.300331    6.338670
     58          1           0       21.543323    0.174483    5.701604
     59          1           0       22.662002   -1.233436    6.017377
     60          1           0       21.306402   -3.518040    6.769007
     61          1           0       23.067526   -3.866731    6.198311
     62          1           0       22.070621   -5.140173    6.383699
     63          1           0       18.999130   -5.871869   -0.028487
     64          1           0       19.708396   -4.986596   -2.637079
     65          1           0       21.184714   -6.276261   -1.664233
     66          1           0       21.090480   -6.862111    0.053716
     67          1           0       21.880120   -5.373934   -0.323858
     68          1           0       16.854287   -4.620468   -1.679837
     69          1           0       17.427156   -6.156271   -1.347238
     70          1           0       18.085042   -5.436085   -4.128109
     71          1           0       16.380939   -5.289498   -3.697367
     72          1           0       17.118283   -6.837582   -3.481603
     73          1           0       18.162281   -1.420255   -5.452603
     74          1           0       18.961933    0.224476   -5.858309
     75          1           0       17.246423   -0.073126   -5.297683
     76          1           0       18.078764    4.073484   -1.823961
     77          1           0       21.432598    6.154612   -3.811781
     78          1           0       21.101831    6.865198   -2.145100
     79          1           0       20.370669    7.504464   -3.617201
     80         12           0      -20.495659   -0.357239   -0.330649
     81          6           0      -17.817617    1.880087    0.249753
     82          6           0      -22.448914    1.812246    1.169788
     83          6           0      -22.607694   -2.876744    0.020672
     84          6           0      -18.000289   -2.716965   -1.243446
     85          7           0      -20.095154    1.734487    0.441203
     86          6           0      -19.036024    2.455585    0.508690
     87          6           0      -19.384892    3.912603    0.875949
     88          6           0      -20.800099    3.764926    1.635495
     89          6           0      -21.140925    2.303783    1.123560
     90          6           0      -20.772087    3.878155    3.211116
     91          6           0      -19.578894    4.808807   -0.455993
     92          6           0      -19.196268    6.324301   -0.454551
     93          1           0      -19.309647    7.068166    0.926993
     94          7           0      -22.368724   -0.467880    0.295703
     95          6           0      -23.033831    0.615068    0.850686
     96          6           0      -24.434758    0.182863    1.192523
     97          6           0      -24.476763   -1.221639    0.805900
     98          6           0      -23.155301   -1.656822    0.345686
     99          6           0      -25.415585    1.138217    1.845741
    100          6           0      -25.676294   -2.142345    0.852506
    101          8           0      -25.653386   -3.344192    0.552771
    102          6           0      -26.983378   -1.582668    1.244650
    103          7           0      -20.348466   -2.557771   -0.688617
    104          6           0      -21.380634   -3.331371   -0.404784
    105          6           0      -21.162900   -4.782118   -1.026378
    106          6           0      -19.589360   -4.687724   -1.416436
    107          6           0      -19.298758   -3.216227   -1.133737
    108          6           0      -21.555458   -5.950173   -0.062462
    109          6           0      -19.166717   -5.090082   -2.867480
    110          6           0      -18.349548   -6.347412   -3.018443
    111          7           0      -18.342690   -0.406184   -0.696534
    112          6           0      -17.525515   -1.458041   -1.060142
    113          6           0      -16.180832   -1.058761   -1.020486
    114          6           0      -16.251359    0.235129   -0.470335
    115          6           0      -17.555790    0.607784   -0.247411
    116          6           0      -15.006902   -1.826617   -1.369036
    117          6           0      -15.413165    1.326009   -0.154768
    118          8           0      -14.186748    1.590990   -0.280734
    119          6           0      -16.383868    2.349749    0.588682
    120          6           0      -16.085571    3.741629    0.166742
    121          8           0      -16.192384    4.229592   -0.956471
    122          8           0      -15.749487    4.475496    1.347875
    123          6           0      -15.401815    5.892225    1.179400
    124          1           0      -23.082551    2.618070    1.547226
    125          1           0      -23.337292   -3.685876    0.085145
    126          1           0      -17.249424   -3.425590   -1.600989
    127          1           0      -18.708945    4.208513    1.677796
    128          1           0      -21.431471    4.603076    1.342580
    129          1           0      -19.757771    3.821885    3.605619
    130          1           0      -21.296722    3.047534    3.682942
    131          1           0      -21.216500    4.845512    3.444988
    132          1           0      -20.597214    4.724415   -0.835793
    133          1           0      -19.020723    4.333511   -1.262859
    134          1           0      -19.785371    6.926318   -1.147131
    135          1           0      -18.116475    6.371004   -0.601224
    136          1           0      -26.403823    1.090065    1.386980
    137          1           0      -25.080448    2.175304    1.828974
    138          1           0      -25.415081    0.972609    2.922804
    139          1           0      -26.938233   -1.136774    2.238651
    140          1           0      -27.740437   -2.366764    1.228984
    141          1           0      -27.390912   -0.823660    0.576870
    142          1           0      -21.693930   -4.919688   -1.968212
    143          1           0      -18.952428   -5.167746   -0.672011
    144          1           0      -21.819892   -5.558783    0.920041
    145          1           0      -20.674914   -6.586912   -0.150300
    146          1           0      -22.348357   -6.510066   -0.556684
    147          1           0      -18.562581   -4.274426   -3.265369
    148          1           0      -20.054355   -5.161112   -3.496412
    149          1           0      -18.385212   -6.787820   -2.022896
    150          1           0      -17.319594   -6.050671   -3.219902
    151          1           0      -18.776435   -7.060151   -3.722956
    152          1           0      -15.182393   -2.230879   -2.365613
    153          1           0      -14.874849   -2.767307   -0.834386
    154          1           0      -14.133772   -1.174058   -1.385022
    155          1           0      -16.228517    2.243256    1.662762
    156          1           0      -15.079156    6.325675    2.126393
    157          1           0      -16.315600    6.448690    0.970140
    158          1           0      -14.571156    5.975638    0.479375
 ---------------------------------------------------------------------

 SCF Done:  E(RCAM-B3LYP) =  -4069.77928707     A.U. after   19 cycles

 Excitation energies and oscillator strengths:

 Excited State   1:      Singlet-A      1.7835 eV  695.17 nm  f=0.3746  <S**2>=0.000
     310 -> 316        0.17644
     312 -> 314        0.68504
     310 <- 316        0.10143
 This state for optimization and/or second-order correction.
 Total Energy, E(TD-HF/TD-DFT) =  -4069.71374456
 Copying the excited state density for this state as the 1-particle RhoCI density.

 Excited State   2:      Singlet-A      1.7997 eV  688.91 nm  f=0.3646  <S**2>=0.000
     309 -> 315        0.21202
     311 -> 313        0.67474
     309 <- 315        0.10949

 Excited State   3:      Singlet-A      2.2245 eV  557.36 nm  f=0.0799  <S**2>=0.000
     309 -> 313        0.62927
     311 -> 315       -0.30804

 Excited State   4:      Singlet-A      2.2586 eV  548.95 nm  f=0.1145  <S**2>=0.000
     310 -> 314        0.63967
     312 -> 316       -0.28422

 Excited State   5:      Singlet-A      3.2051 eV  386.83 nm  f=0.0000  <S**2>=0.000
     312 -> 313        0.70709

 The electronic state is 1-A.
 Alpha  occ. eigenvalues --  -46.89409 -46.88191 -19.24290 -19.23959 -19.20235
 Alpha  occ. eigenvalues --  -19.19845 -19.19343 -19.19182 -19.19014 -19.18469
 Alpha  occ. eigenvalues --  -14.42229 -14.42169 -14.41739 -14.41721 -14.40299
 Alpha  occ. eigenvalues --  -14.39989 -14.38679 -14.38583 -10.39309 -10.38281
 Alpha  occ. eigenvalues --  -10.36363 -10.35952 -10.35141 -10.34505 -10.32476
 Alpha  occ. eigenvalues --  -10.31936 -10.31540 -10.31229 -10.31227 -10.31104
 Alpha  occ. eigenvalues --  -10.31086 -10.30982 -10.30768 -10.30724 -10.30636
 Alpha  occ. eigenvalues --  -10.30325 -10.30265 -10.30146 -10.30128 -10.29768
 Alpha  occ. eigenvalues --  -10.29346 -10.28824 -10.28678 -10.28664 -10.28661
 Alpha  occ. eigenvalues --  -10.28613 -10.28588 -10.28454 -10.28409 -10.28402
 Alpha  occ. eigenvalues --  -10.28324 -10.28028 -10.27984 -10.27956 -10.27854
 Alpha  occ. eigenvalues --  -10.27766 -10.27741 -10.27622 -10.27612 -10.27568
 Alpha  occ. eigenvalues --  -10.27557 -10.27505 -10.27485 -10.27323 -10.27083
 Alpha  occ. eigenvalues --  -10.26991 -10.26865 -10.26734 -10.26683 -10.26455
 Alpha  occ. eigenvalues --  -10.26399 -10.26393 -10.26293 -10.26245 -10.26209
 Alpha  occ. eigenvalues --  -10.26043 -10.25937 -10.25925 -10.25843 -10.25829
 Alpha  occ. eigenvalues --  -10.25783 -10.25422 -10.25246 -10.25101 -10.24835
 Alpha  occ. eigenvalues --  -10.24658  -3.17862  -3.16721  -1.92766  -1.92328
 Alpha  occ. eigenvalues --   -1.92148  -1.91629  -1.91170  -1.91028  -1.15834
 Alpha  occ. eigenvalues --   -1.13982  -1.11475  -1.09438  -1.09222  -1.07392
 Alpha  occ. eigenvalues --   -1.07304  -1.06742  -1.05799  -1.05228  -1.04046
 Alpha  occ. eigenvalues --   -1.03505  -1.02429  -1.01923  -1.01486  -1.00901
 Alpha  occ. eigenvalues --   -0.92974  -0.91810  -0.89515  -0.89097  -0.88627
 Alpha  occ. eigenvalues --   -0.88396  -0.88004  -0.87915  -0.87569  -0.87392
 Alpha  occ. eigenvalues --   -0.87182  -0.86926  -0.86854  -0.85569  -0.84340
 Alpha  occ. eigenvalues --   -0.84290  -0.83990  -0.83601  -0.82740  -0.82467
 Alpha  occ. eigenvalues --   -0.82075  -0.81527  -0.81001  -0.80685  -0.80681
 Alpha  occ. eigenvalues --   -0.80063  -0.78985  -0.78397  -0.77730  -0.76986
 Alpha  occ. eigenvalues --   -0.76902  -0.76415  -0.75906  -0.75726  -0.75253
 Alpha  occ. eigenvalues --   -0.74681  -0.73240  -0.72272  -0.72206  -0.71263
 Alpha  occ. eigenvalues --   -0.69018  -0.68947  -0.68809  -0.68612  -0.67942
 Alpha  occ. eigenvalues --   -0.67387  -0.67243  -0.67198  -0.65941  -0.65677
 Alpha  occ. eigenvalues --   -0.65612  -0.65592  -0.64763  -0.64617  -0.64549
 Alpha  occ. eigenvalues --   -0.64314  -0.61273  -0.61108  -0.60553  -0.60162
 Alpha  occ. eigenvalues --   -0.60000  -0.59304  -0.59130  -0.58760  -0.58364
 Alpha  occ. eigenvalues --   -0.57987  -0.57771  -0.57758  -0.57355  -0.57012
 Alpha  occ. eigenvalues --   -0.56968  -0.55909  -0.55783  -0.55729  -0.55496
 Alpha  occ. eigenvalues --   -0.54701  -0.54464  -0.54205  -0.53811  -0.53658
 Alpha  occ. eigenvalues --   -0.53548  -0.53237  -0.53208  -0.53173  -0.53002
 Alpha  occ. eigenvalues --   -0.52982  -0.52623  -0.52516  -0.52489  -0.52257
 Alpha  occ. eigenvalues --   -0.52091  -0.51658  -0.51570  -0.51372  -0.51127
 Alpha  occ. eigenvalues --   -0.50984  -0.50934  -0.50877  -0.50566  -0.50551
 Alpha  occ. eigenvalues --   -0.50364  -0.50107  -0.49883  -0.49576  -0.49540
 Alpha  occ. eigenvalues --   -0.49479  -0.49430  -0.49217  -0.48804  -0.48682
 Alpha  occ. eigenvalues --   -0.48611  -0.48509  -0.48398  -0.48061  -0.48030
 Alpha  occ. eigenvalues --   -0.47968  -0.47827  -0.47699  -0.47631  -0.47458
 Alpha  occ. eigenvalues --   -0.47329  -0.47048  -0.46809  -0.46744  -0.46385
 Alpha  occ. eigenvalues --   -0.46317  -0.46179  -0.46120  -0.45960  -0.45603
 Alpha  occ. eigenvalues --   -0.45490  -0.45357  -0.45106  -0.44929  -0.44809
 Alpha  occ. eigenvalues --   -0.44643  -0.44433  -0.44243  -0.43957  -0.43946
 Alpha  occ. eigenvalues --   -0.43928  -0.43894  -0.43575  -0.43530  -0.43353
 Alpha  occ. eigenvalues --   -0.43251  -0.43158  -0.43004  -0.42928  -0.42623
 Alpha  occ. eigenvalues --   -0.42371  -0.42257  -0.41958  -0.41952  -0.41704
 Alpha  occ. eigenvalues --   -0.41597  -0.41470  -0.41189  -0.41138  -0.41075
 Alpha  occ. eigenvalues --   -0.40772  -0.40663  -0.40525  -0.40306  -0.40248
 Alpha  occ. eigenvalues --   -0.40070  -0.39987  -0.39639  -0.39393  -0.39045
 Alpha  occ. eigenvalues --   -0.38648  -0.38505  -0.37847  -0.37624  -0.37415
 Alpha  occ. eigenvalues --   -0.37136  -0.36828  -0.36464  -0.36210  -0.36123
 Alpha  occ. eigenvalues --   -0.35874  -0.35653  -0.34493  -0.34249  -0.33918
 Alpha  occ. eigenvalues --   -0.33807  -0.33566  -0.33045  -0.31811  -0.31619
 Alpha  occ. eigenvalues --   -0.31447  -0.31311  -0.30609  -0.30519  -0.30263
 Alpha  occ. eigenvalues --   -0.30191  -0.29310  -0.28620  -0.24176  -0.24026
 Alpha  occ. eigenvalues --   -0.21688  -0.21276
 Alpha virt. eigenvalues --   -0.08629  -0.08480  -0.02665  -0.01738  -0.00252
 Alpha virt. eigenvalues --    0.00082   0.02139   0.02242   0.02309   0.03003
 Alpha virt. eigenvalues --    0.04565   0.04579   0.05437   0.05494   0.05592

 Mulliken charges:
               1
     1  Mg   0.816349
     2  C    0.025823
     3  C   -0.086836
     4  C   -0.055822
     5  C   -0.058727
     6  N   -0.312798
     7  C   -0.055430
     8  C   -0.012779
     9  C   -0.109553
    10  C    0.087978
    11  C    0.070622
    12  C    0.093567
    13  C   -0.080255
    14  H    0.012952
    15  N   -0.426191
    16  C    0.167048
    17  C   -0.153133
    18  C   -0.007883
    19  C    0.162603
    20  C    0.112419
    21  C   -0.007695
    22  O   -0.188122
    23  C    0.041591
    24  N   -0.245175
    25  C    0.014676
    26  C   -0.075020
    27  C   -0.009821
    28  C   -0.002046
    29  C    0.065597
    30  C    0.045605
    31  C    0.000074
    32  N   -0.378409
    33  C    0.150654
    34  C   -0.188270
    35  C    0.001883
    36  C    0.131831
    37  C    0.134302
    38  C    0.077254
    39  O   -0.163525
    40  C   -0.091581
    41  C    0.202883
    42  O   -0.222110
    43  O   -0.341824
    44  C    0.191525
    45  H   -0.034398
    46  H   -0.007086
    47  H   -0.044501
    48  H    0.030902
    49  H    0.006516
    50  H    0.015290
    51  H    0.021316
    52  H    0.028697
    53  H    0.014502
    54  H    0.009667
    55  H    0.043809
    56  H    0.030041
    57  H    0.030523
    58  H    0.009716
    59  H    0.043622
    60  H    0.041108
    61  H    0.032974
    62  H    0.021221
    63  H    0.014106
    64  H    0.009801
    65  H    0.013078
    66  H    0.028836
    67  H    0.019957
    68  H    0.006164
    69  H    0.004044
    70  H    0.022146
    71  H    0.008895
    72  H    0.018129
    73  H   -0.003097
    74  H    0.047701
    75  H    0.022376
    76  H    0.051840
    77  H    0.042315
    78  H    0.032253
    79  H    0.033304
    80  Mg   0.815606
    81  C    0.016293
    82  C   -0.078602
    83  C   -0.039489
    84  C   -0.091678
    85  N   -0.224051
    86  C   -0.122445
    87  C    0.024859
    88  C   -0.108482
    89  C    0.025525
    90  C    0.065581
    91  C    0.060405
    92  C   -0.072459
    93  H   -0.016591
    94  N   -0.489157
    95  C    0.213696
    96  C   -0.139445
    97  C   -0.019700
    98  C    0.151502
    99  C    0.115732
   100  C    0.006968
   101  O   -0.211179
   102  C    0.033111
   103  N   -0.209869
   104  C    0.015572
   105  C   -0.071810
   106  C   -0.031118
   107  C   -0.009393
   108  C    0.089611
   109  C    0.026584
   110  C    0.020976
   111  N   -0.334478
   112  C    0.141027
   113  C   -0.143475
   114  C    0.021192
   115  C    0.107339
   116  C    0.141237
   117  C    0.060004
   118  O   -0.216313
   119  C   -0.028714
   120  C    0.225819
   121  O   -0.218445
   122  O   -0.379526
   123  C    0.184896
   124  H   -0.030780
   125  H   -0.007167
   126  H   -0.039822
   127  H    0.000432
   128  H    0.019273
   129  H    0.015675
   130  H    0.018131
   131  H    0.022283
   132  H    0.004580
   133  H    0.033053
   134  H    0.042200
   135  H    0.060416
   136  H    0.034372
   137  H    0.008034
   138  H    0.037087
   139  H    0.032532
   140  H    0.024254
   141  H    0.038694
   142  H    0.021665
   143  H    0.009443
   144  H    0.040260
   145  H    0.007204
   146  H    0.016228
   147  H    0.010573
   148  H   -0.000247
   149  H    0.002887
   150  H    0.018927
   151  H    0.023647
   152  H    0.007340
   153  H    0.021769
   154  H    0.047026
   155  H    0.051769
   156  H    0.025037
   157  H    0.027293
   158  H    0.048816
 Sum of Mulliken charges =  -0.00000

 Dipole moment (field-independent basis, Debye):
    X=             -4.2513    Y=             -0.7008    Z=              5.9079  Tot=              7.3122
 Quadrupole moment (field-independent basis, Debye-Ang):
   XX=           -352.6943   YY=           -488.4842   ZZ=           -501.5559
   XY=            -50.0325   XZ=             71.3721   YZ=             42.4854

 Normal termination of Gaussian 16 at Thu Sep 16 08:26:25 2021.
