 Gaussian 16, Revision A.03,
 Gaussian 16:  ES64L-G16RevA.03 25-Dec-2016

 -----------------------------------
 #p cam-b3lyp/Def2SVP td=(nstates=5)
 -----------------------------------

 --------------------------------
 TDDFT excited states in gaussian
 --------------------------------
 Symbolic Z-matrix:
 Charge =  0 Multiplicity = 1

                         Standard orientation:
 ---------------------------------------------------------------------
 Center     Atomic      Atomic             Coordinates (Angstroms)
 Number     Number       Type             X           Y           Z
 ---------------------------------------------------------------------
      1         12           0      -22.882177    0.605838    0.230663
      2          6           0      -21.687905   -2.398051   -1.210483
      3          6           0      -21.328591    2.297114   -2.242234
      4          6           0      -23.898245    3.357595    1.684536
      5          6           0      -23.790713   -1.330566    3.110376
      6          7           0      -21.530897    0.035100   -1.516391
      7          6           0      -21.433322   -1.258225   -2.001739
      8          6           0      -20.876258   -1.160938   -3.380879
      9          6           0      -20.262788    0.237579   -3.455858
     10          6           0      -21.087311    0.956298   -2.358723
     11          6           0      -18.736462    0.203937   -3.069976
     12          6           0      -21.906644   -1.427556   -4.605545
     13          6           0      -21.470011   -2.282564   -5.834434
     14          1           0      -20.110529   -1.914816   -6.496273
     15          7           0      -22.610645    2.578788   -0.249742
     16          6           0      -21.974722    3.039408   -1.286327
     17          6           0      -22.002463    4.511189   -1.228180
     18          6           0      -22.931722    4.876635   -0.207557
     19          6           0      -23.174553    3.581962    0.489942
     20          6           0      -21.226856    5.544806   -2.123433
     21          6           0      -23.552404    6.221672    0.168599
     22          8           0      -24.267424    6.407955    1.171696
     23          6           0      -23.128155    7.406238   -0.561657
     24          7           0      -23.590490    0.952310    2.263858
     25          6           0      -24.062095    2.226667    2.567804
     26          6           0      -24.865376    2.163408    3.923896
     27          6           0      -24.911052    0.647557    4.239626
     28          6           0      -24.078592    0.025937    3.116017
     29          6           0      -24.295092    3.087734    4.999987
     30          6           0      -26.318468    0.034963    4.451120
     31          6           0      -26.483577   -1.022783    5.567215
     32          7           0      -22.772269   -1.420819    0.877897
     33          6           0      -23.124604   -2.047725    2.068924
     34          6           0      -22.974803   -3.470670    1.899375
     35          6           0      -22.363577   -3.643219    0.656566
     36          6           0      -22.257578   -2.369270    0.033313
     37          6           0      -23.379091   -4.476786    2.790753
     38          6           0      -21.866946   -4.625876   -0.317979
     39          8           0      -21.818880   -5.845736   -0.314694
     40          6           0      -21.427869   -3.835152   -1.593655
     41          6           0      -19.974439   -4.182892   -1.861721
     42          8           0      -18.924903   -3.762573   -1.429966
     43          8           0      -20.088751   -5.094456   -2.871248
     44          6           0      -18.867702   -5.424157   -3.644438
     45          1           0      -20.906595    2.852547   -3.082849
     46          1           0      -24.393511    4.269421    2.024553
     47          1           0      -24.260495   -1.955230    3.872369
     48          1           0      -20.083677   -1.867847   -3.627489
     49          1           0      -20.509717    0.756515   -4.381729
     50          1           0      -18.132246    0.944643   -3.592699
     51          1           0      -18.238650   -0.720408   -3.364039
     52          1           0      -18.712512    0.441507   -2.007001
     53          1           0      -22.335515   -0.479075   -4.927211
     54          1           0      -22.801180   -1.923079   -4.226408
     55          1           0      -22.228538   -2.022378   -6.573594
     56          1           0      -21.510170   -3.291397   -5.423579
     57          1           0      -21.844874    6.127659   -2.806020
     58          1           0      -20.494956    4.977136   -2.698726
     59          1           0      -20.745238    6.359046   -1.581928
     60          1           0      -23.264378    7.271934   -1.635064
     61          1           0      -22.083432    7.636677   -0.352577
     62          1           0      -23.843545    8.193402   -0.325574
     63          1           0      -25.894381    2.420945    3.672602
     64          1           0      -24.272004    0.414500    5.091112
     65          1           0      -23.541005    2.545679    5.571579
     66          1           0      -25.014401    3.402059    5.755553
     67          1           0      -23.687048    3.854772    4.521503
     68          1           0      -26.776011   -0.351526    3.540548
     69          1           0      -27.050278    0.811134    4.678981
     70          1           0      -26.424711   -1.974880    5.039618
     71          1           0      -27.507857   -0.894924    5.918836
     72          1           0      -25.700607   -0.905194    6.315868
     73          1           0      -22.911292   -5.460282    2.752116
     74          1           0      -24.462424   -4.558891    2.697274
     75          1           0      -23.122356   -4.101579    3.780753
     76          1           0      -22.061295   -4.107393   -2.437703
     77          1           0      -19.196438   -5.434626   -4.683235
     78          1           0      -18.412836   -6.392482   -3.437311
     79          1           0      -18.125712   -4.635578   -3.521940
     80         12           0       22.703598    0.550759   -0.291653
     81          6           0       21.334097   -2.595546    0.513531
     82          6           0       19.604410    1.517666   -1.131157
     83          6           0       23.991870    3.545831   -0.516400
     84          6           0       25.677863   -0.577747    1.336441
     85          7           0       20.698997   -0.438914   -0.254578
     86          6           0       20.355315   -1.719498    0.020612
     87          6           0       18.887496   -2.018228   -0.208004
     88          6           0       18.462271   -0.717339   -1.000344
     89          6           0       19.632471    0.223102   -0.799268
     90          6           0       18.145484   -0.944794   -2.536004
     91          6           0       17.896496   -2.327215    0.997540
     92          6           0       18.278969   -2.002734    2.466056
     93          1           0       17.128751   -1.566709    3.448731
     94          7           0       21.870562    2.280675   -0.907179
     95          6           0       20.581727    2.523287   -1.104819
     96          6           0       20.398492    3.978194   -1.359448
     97          6           0       21.772691    4.554583   -1.336876
     98          6           0       22.607351    3.438507   -0.891179
     99          6           0       19.092225    4.604684   -1.766967
    100          6           0       22.126259    5.997928   -1.583419
    101          8           0       21.232788    6.776415   -1.907422
    102          6           0       23.554500    6.631838   -1.400611
    103          7           0       24.603433    1.442736    0.443273
    104          6           0       24.844904    2.635966    0.022538
    105          6           0       26.355214    2.977295    0.398826
    106          6           0       26.740558    1.727422    1.192868
    107          6           0       25.578689    0.771254    1.003846
    108          6           0       27.346571    3.325939   -0.723862
    109          6           0       26.830597    1.974469    2.787098
    110          6           0       28.228541    1.857574    3.421719
    111          7           0       23.403060   -1.149294    0.773646
    112          6           0       24.632433   -1.514119    1.255382
    113          6           0       24.663938   -2.967355    1.563874
    114          6           0       23.328181   -3.434362    1.407810
    115          6           0       22.656343   -2.279211    0.815198
    116          6           0       25.840318   -3.768487    2.165070
    117          6           0       22.411653   -4.518504    1.529625
    118          8           0       22.466117   -5.647003    2.047738
    119          6           0       21.084277   -4.049760    0.881103
    120          6           0       20.784280   -5.020747   -0.264541
    121          8           0       19.982922   -5.907779   -0.393489
    122          8           0       21.514725   -4.598102   -1.380490
    123          6           0       21.296961   -5.326732   -2.668716
    124          1           0       18.583624    1.807319   -1.389869
    125          1           0       24.386561    4.556350   -0.647073
    126          1           0       26.664788   -0.972456    1.585273
    127          1           0       18.884755   -2.847773   -0.914843
    128          1           0       17.546317   -0.316363   -0.566110
    129          1           0       18.328895   -1.979884   -2.822232
    130          1           0       18.948679   -0.378956   -3.006756
    131          1           0       17.136197   -0.597520   -2.757764
    132          1           0       17.649722   -3.387110    0.934352
    133          1           0       16.945678   -1.828580    0.806333
    134          1           0       19.003239   -1.190326    2.406229
    135          1           0       18.627913   -2.866419    3.031249
    136          1           0       19.204266    5.612334   -2.166654
    137          1           0       18.423017    4.498114   -0.912385
    138          1           0       18.686920    3.900237   -2.494064
    139          1           0       24.430308    6.196508   -1.883282
    140          1           0       23.816757    6.568122   -0.344546
    141          1           0       23.584509    7.672701   -1.721510
    142          1           0       26.418913    3.875035    1.012802
    143          1           0       27.684251    1.229811    0.966724
    144          1           0       26.868093    3.322748   -1.703354
    145          1           0       28.219068    2.671914   -0.708895
    146          1           0       27.749280    4.336073   -0.649271
    147          1           0       26.220531    1.261956    3.340609
    148          1           0       26.425242    2.973599    2.948330
    149          1           0       28.250710    1.475394    4.442582
    150          1           0       28.601966    2.880175    3.475237
    151          1           0       28.754405    1.186205    2.742764
    152          1           0       26.650675   -3.164135    2.571406
    153          1           0       26.220930   -4.346306    1.323192
    154          1           0       25.432916   -4.484863    2.878036
    155          1           0       20.285046   -4.099295    1.619875
    156          1           0       21.027126   -6.381928   -2.631683
    157          1           0       22.281233   -5.299872   -3.135869
    158          1           0       20.636303   -4.881668   -3.413004
 ---------------------------------------------------------------------

 SCF Done:  E(RCAM-B3LYP) =  -4069.78867227     A.U. after   18 cycles

 Excitation energies and oscillator strengths:

 Excited State   1:      Singlet-A      1.7330 eV  715.44 nm  f=0.3764  <S**2>=0.000
     310 -> 315       -0.19056
     312 -> 314        0.68150
     310 <- 315       -0.10757
 This state for optimization and/or second-order correction.
 Total Energy, E(TD-HF/TD-DFT) =  -4069.72498627
 Copying the excited state density for this state as the 1-particle RhoCI density.

 Excited State   2:      Singlet-A      1.7690 eV  700.86 nm  f=0.4167  <S**2>=0.000
     309 -> 316        0.18507
     311 -> 313        0.68376
     309 <- 316        0.10631

 Excited State   3:      Singlet-A      2.2617 eV  548.20 nm  f=0.0689  <S**2>=0.000
     310 -> 314        0.62175
     312 -> 315        0.32225

 Excited State   4:      Singlet-A      2.2833 eV  542.99 nm  f=0.0989  <S**2>=0.000
     309 -> 313        0.63711
     311 -> 316       -0.29626

 Excited State   5:      Singlet-A      3.0693 eV  403.95 nm  f=0.0000  <S**2>=0.000
     312 -> 313        0.70711

 The electronic state is 1-A.
 Alpha  occ. eigenvalues --  -46.90076 -46.89358 -19.24604 -19.24347 -19.20420
 Alpha  occ. eigenvalues --  -19.20018 -19.19472 -19.19246 -19.18669 -19.18609
 Alpha  occ. eigenvalues --  -14.42323 -14.41848 -14.41766 -14.41413 -14.40443
 Alpha  occ. eigenvalues --  -14.40171 -14.39846 -14.38943 -10.39885 -10.39220
 Alpha  occ. eigenvalues --  -10.35696 -10.35614 -10.35512 -10.34803 -10.31873
 Alpha  occ. eigenvalues --  -10.31687 -10.31529 -10.31441 -10.31131 -10.31034
 Alpha  occ. eigenvalues --  -10.30802 -10.30778 -10.30738 -10.30737 -10.30329
 Alpha  occ. eigenvalues --  -10.30183 -10.30115 -10.30108 -10.30030 -10.29975
 Alpha  occ. eigenvalues --  -10.29874 -10.29855 -10.29531 -10.29442 -10.29408
 Alpha  occ. eigenvalues --  -10.28975 -10.28803 -10.28762 -10.28200 -10.28025
 Alpha  occ. eigenvalues --  -10.27918 -10.27906 -10.27885 -10.27828 -10.27699
 Alpha  occ. eigenvalues --  -10.27655 -10.27632 -10.27570 -10.27567 -10.27520
 Alpha  occ. eigenvalues --  -10.27470 -10.27381 -10.27343 -10.27303 -10.27254
 Alpha  occ. eigenvalues --  -10.27190 -10.27170 -10.27097 -10.26842 -10.26678
 Alpha  occ. eigenvalues --  -10.26591 -10.26578 -10.26528 -10.26386 -10.26361
 Alpha  occ. eigenvalues --  -10.26351 -10.26194 -10.26186 -10.26038 -10.25797
 Alpha  occ. eigenvalues --  -10.25792 -10.25700 -10.25615 -10.25387 -10.25244
 Alpha  occ. eigenvalues --  -10.24784  -3.18554  -3.17745  -1.93442  -1.93008
 Alpha  occ. eigenvalues --   -1.92857  -1.92643  -1.92202  -1.92037  -1.16102
 Alpha  occ. eigenvalues --   -1.16064  -1.09578  -1.09578  -1.09352  -1.09335
 Alpha  occ. eigenvalues --   -1.07747  -1.07284  -1.06753  -1.05140  -1.04832
 Alpha  occ. eigenvalues --   -1.04020  -1.03928  -1.03311  -1.03042  -1.02057
 Alpha  occ. eigenvalues --   -0.93592  -0.92754  -0.89815  -0.88868  -0.88832
 Alpha  occ. eigenvalues --   -0.88622  -0.88465  -0.88310  -0.87973  -0.87550
 Alpha  occ. eigenvalues --   -0.87114  -0.86911  -0.86872  -0.85419  -0.84900
 Alpha  occ. eigenvalues --   -0.84220  -0.83967  -0.83579  -0.82910  -0.82719
 Alpha  occ. eigenvalues --   -0.82455  -0.81802  -0.81489  -0.80817  -0.80583
 Alpha  occ. eigenvalues --   -0.80555  -0.78527  -0.78374  -0.77719  -0.77438
 Alpha  occ. eigenvalues --   -0.77037  -0.77020  -0.76699  -0.75848  -0.75379
 Alpha  occ. eigenvalues --   -0.75105  -0.73329  -0.72495  -0.72407  -0.71804
 Alpha  occ. eigenvalues --   -0.69575  -0.69276  -0.68885  -0.68740  -0.68702
 Alpha  occ. eigenvalues --   -0.67685  -0.67537  -0.67353  -0.66867  -0.65705
 Alpha  occ. eigenvalues --   -0.65522  -0.65463  -0.65297  -0.65035  -0.64884
 Alpha  occ. eigenvalues --   -0.64315  -0.63172  -0.61925  -0.60613  -0.60469
 Alpha  occ. eigenvalues --   -0.60210  -0.59592  -0.59475  -0.59221  -0.58562
 Alpha  occ. eigenvalues --   -0.58307  -0.58097  -0.57930  -0.57488  -0.57320
 Alpha  occ. eigenvalues --   -0.56381  -0.56140  -0.55884  -0.55884  -0.55704
 Alpha  occ. eigenvalues --   -0.55190  -0.55082  -0.54539  -0.54449  -0.53957
 Alpha  occ. eigenvalues --   -0.53686  -0.53621  -0.53554  -0.53233  -0.53212
 Alpha  occ. eigenvalues --   -0.53019  -0.52936  -0.52834  -0.52415  -0.52108
 Alpha  occ. eigenvalues --   -0.52028  -0.51776  -0.51672  -0.51556  -0.51545
 Alpha  occ. eigenvalues --   -0.51256  -0.51191  -0.51121  -0.50787  -0.50628
 Alpha  occ. eigenvalues --   -0.50400  -0.50025  -0.49964  -0.49809  -0.49595
 Alpha  occ. eigenvalues --   -0.49498  -0.49346  -0.49037  -0.48971  -0.48885
 Alpha  occ. eigenvalues --   -0.48824  -0.48564  -0.48525  -0.48301  -0.48164
 Alpha  occ. eigenvalues --   -0.47910  -0.47648  -0.47643  -0.47445  -0.47377
 Alpha  occ. eigenvalues --   -0.47246  -0.47119  -0.46943  -0.46881  -0.46656
 Alpha  occ. eigenvalues --   -0.46636  -0.46288  -0.46242  -0.46096  -0.45910
 Alpha  occ. eigenvalues --   -0.45907  -0.45537  -0.45536  -0.45368  -0.45019
 Alpha  occ. eigenvalues --   -0.44914  -0.44879  -0.44679  -0.44339  -0.44218
 Alpha  occ. eigenvalues --   -0.44034  -0.43927  -0.43835  -0.43671  -0.43590
 Alpha  occ. eigenvalues --   -0.43304  -0.43133  -0.43005  -0.42953  -0.42708
 Alpha  occ. eigenvalues --   -0.42688  -0.42292  -0.42262  -0.42149  -0.42083
 Alpha  occ. eigenvalues --   -0.42020  -0.41903  -0.41527  -0.41474  -0.41258
 Alpha  occ. eigenvalues --   -0.41227  -0.40931  -0.40854  -0.40693  -0.40539
 Alpha  occ. eigenvalues --   -0.40235  -0.39979  -0.39842  -0.39599  -0.39245
 Alpha  occ. eigenvalues --   -0.38861  -0.38762  -0.38217  -0.37667  -0.37652
 Alpha  occ. eigenvalues --   -0.37381  -0.36903  -0.36670  -0.36512  -0.36436
 Alpha  occ. eigenvalues --   -0.36327  -0.35916  -0.35021  -0.34650  -0.34273
 Alpha  occ. eigenvalues --   -0.33886  -0.33654  -0.33089  -0.31918  -0.31675
 Alpha  occ. eigenvalues --   -0.31421  -0.31158  -0.31055  -0.30974  -0.30546
 Alpha  occ. eigenvalues --   -0.30450  -0.29278  -0.29246  -0.24501  -0.23957
 Alpha  occ. eigenvalues --   -0.21541  -0.20957
 Alpha virt. eigenvalues --   -0.08921  -0.08265  -0.02046  -0.02040  -0.00626
 Alpha virt. eigenvalues --   -0.00124   0.01180   0.01764   0.01860   0.02332
 Alpha virt. eigenvalues --    0.04300   0.04962   0.05208   0.05432   0.05793

 Mulliken charges:
               1
     1  Mg   0.808065
     2  C   -0.037923
     3  C   -0.089813
     4  C   -0.053018
     5  C   -0.086825
     6  N   -0.255075
     7  C    0.011391
     8  C   -0.052142
     9  C   -0.029234
    10  C   -0.033309
    11  C    0.087630
    12  C    0.015884
    13  C   -0.056947
    14  H    0.015485
    15  N   -0.338769
    16  C    0.178107
    17  C   -0.150803
    18  C   -0.029503
    19  C    0.090582
    20  C    0.102822
    21  C    0.020440
    22  O   -0.219870
    23  C    0.059540
    24  N   -0.286758
    25  C    0.009238
    26  C   -0.007540
    27  C   -0.009739
    28  C    0.041920
    29  C    0.096740
    30  C    0.007918
    31  C    0.017127
    32  N   -0.353026
    33  C    0.116921
    34  C   -0.178605
    35  C    0.026943
    36  C    0.138500
    37  C    0.109213
    38  C    0.030119
    39  O   -0.162849
    40  C   -0.011624
    41  C    0.215710
    42  O   -0.195402
    43  O   -0.342979
    44  C    0.168202
    45  H   -0.039320
    46  H   -0.000878
    47  H   -0.036914
    48  H    0.001994
    49  H   -0.005764
    50  H    0.006477
    51  H    0.024726
    52  H    0.035961
    53  H   -0.001572
    54  H   -0.000268
    55  H    0.042167
    56  H    0.049213
    57  H    0.021987
    58  H    0.018333
    59  H    0.019685
    60  H    0.017016
    61  H    0.053773
    62  H    0.028147
    63  H    0.011535
    64  H    0.009132
    65  H   -0.005868
    66  H    0.023805
    67  H    0.026167
    68  H   -0.000026
    69  H   -0.001197
    70  H    0.023406
    71  H    0.015930
    72  H    0.024095
    73  H    0.035013
    74  H    0.030437
    75  H    0.016873
    76  H    0.051172
    77  H    0.029851
    78  H    0.045947
    79  H    0.042220
    80  Mg   0.823367
    81  C   -0.024880
    82  C   -0.082119
    83  C   -0.031325
    84  C   -0.095648
    85  N   -0.272485
    86  C   -0.080786
    87  C    0.045083
    88  C   -0.108065
    89  C    0.036600
    90  C    0.079833
    91  C    0.047739
    92  C   -0.094767
    93  H    0.010155
    94  N   -0.388564
    95  C    0.149223
    96  C   -0.157974
    97  C   -0.043818
    98  C    0.147753
    99  C    0.134735
   100  C    0.013419
   101  O   -0.209467
   102  C    0.034118
   103  N   -0.199521
   104  C    0.025752
   105  C   -0.006817
   106  C   -0.076358
   107  C    0.051551
   108  C    0.059924
   109  C   -0.001646
   110  C    0.015456
   111  N   -0.315888
   112  C    0.114107
   113  C   -0.179622
   114  C    0.031527
   115  C    0.134905
   116  C    0.119661
   117  C    0.021418
   118  O   -0.182607
   119  C   -0.017373
   120  C    0.214342
   121  O   -0.175870
   122  O   -0.370368
   123  C    0.173494
   124  H   -0.036639
   125  H   -0.077747
   126  H   -0.024237
   127  H    0.012999
   128  H    0.011050
   129  H    0.013908
   130  H    0.016919
   131  H    0.032869
   132  H    0.019961
   133  H    0.021132
   134  H    0.051454
   135  H    0.052561
   136  H    0.053394
   137  H    0.017458
   138  H    0.015893
   139  H    0.036746
   140  H    0.036771
   141  H    0.025214
   142  H    0.009790
   143  H    0.001048
   144  H    0.011992
   145  H    0.014760
   146  H    0.005278
   147  H    0.019550
   148  H    0.001090
   149  H    0.020984
   150  H    0.015871
   151  H    0.009300
   152  H    0.021169
   153  H    0.031332
   154  H    0.046335
   155  H    0.038511
   156  H    0.048722
   157  H    0.026416
   158  H    0.029948
 Sum of Mulliken charges =  -0.00000

 Dipole moment (field-independent basis, Debye):
    X=              1.9301    Y=              4.5118    Z=             -4.6696  Tot=              6.7740
 Quadrupole moment (field-independent basis, Debye-Ang):
   XX=           -255.1345   YY=           -591.2607   ZZ=           -481.8849
   XY=             -7.9545   XZ=             13.0618   YZ=             16.6662

 Normal termination of Gaussian 16 at Wed Sep 15 13:34:24 2021.
