 Gaussian 16, Revision A.03,
 Gaussian 16:  ES64L-G16RevA.03 25-Dec-2016

 ----------------------------------------------------------
 #p cam-b3lyp/Def2SVP td=(nstates=5) density=(transition=1)
 ----------------------------------------------------------

 --------------------------------
 TDDFT excited states in gaussian
 --------------------------------
 Symbolic Z-matrix:
 Charge =  0 Multiplicity = 1

                         Standard orientation:
 ---------------------------------------------------------------------
 Center     Atomic      Atomic             Coordinates (Angstroms)
 Number     Number       Type             X           Y           Z
 ---------------------------------------------------------------------
      1         12           0       30.455070    0.157459   -0.438039
      2          6           0       27.498507   -1.138025    0.802931
      3          6           0       28.761926    3.214834   -1.053297
      4          6           0       33.437218    1.694591   -1.135308
      5          6           0       32.188795   -2.642745    0.602184
      6          7           0       28.339012    0.855561   -0.261183
      7          6           0       27.328985    0.165829    0.375905
      8          6           0       26.033160    1.023108    0.631939
      9          6           0       26.313627    2.277801   -0.322653
     10          6           0       27.905141    2.143904   -0.641778
     11          6           0       25.463759    2.450400   -1.638835
     12          6           0       25.807808    1.427314    2.046415
     13          6           0       24.564440    0.982375    2.792236
     14          1           0       24.071742    1.923050    3.903602
     15          7           0       31.011667    2.169585   -1.110828
     16          6           0       30.111915    3.228064   -1.337658
     17          6           0       30.817346    4.351409   -1.867474
     18          6           0       32.250910    3.975420   -1.752379
     19          6           0       32.313435    2.551492   -1.298843
     20          6           0       30.171173    5.707104   -2.171246
     21          6           0       33.369454    4.971770   -2.103985
     22          8           0       33.239695    6.135858   -2.471662
     23          6           0       34.747358    4.621570   -1.665755
     24          7           0       32.630427   -0.346324   -0.115773
     25          6           0       33.599290    0.398329   -0.665716
     26          6           0       34.923594   -0.162801   -0.149868
     27          6           0       34.592715   -1.643432    0.357739
     28          6           0       33.002834   -1.588410    0.262096
     29          6           0       35.952298   -0.256888   -1.331936
     30          6           0       35.085772   -2.115139    1.787048
     31          6           0       36.118645   -3.224030    1.921773
     32          7           0       29.949157   -1.629917    0.460316
     33          6           0       30.760272   -2.716799    0.801281
     34          6           0       29.979337   -3.721495    1.455840
     35          6           0       28.662777   -3.167273    1.501381
     36          6           0       28.734197   -1.891537    0.817235
     37          6           0       30.425510   -5.041389    2.001312
     38          6           0       27.320614   -3.371455    1.862090
     39          8           0       26.832051   -4.340266    2.408270
     40          6           0       26.526592   -2.054551    1.508819
     41          6           0       25.266367   -2.429816    0.848767
     42          8           0       24.175751   -2.387092    1.406762
     43          8           0       25.513337   -2.849382   -0.449874
     44          6           0       24.289899   -3.285375   -1.159894
     45          1           0       28.342763    4.185728   -1.323959
     46          1           0       34.330664    2.232019   -1.461170
     47          1           0       32.760795   -3.500426    0.961912
     48          1           0       25.162127    0.478525    0.269137
     49          1           0       26.230478    3.165890    0.304861
     50          1           0       24.620693    1.763394   -1.566278
     51          1           0       26.014931    2.272302   -2.562289
     52          1           0       25.148945    3.492581   -1.677053
     53          1           0       25.733432    2.515817    2.045024
     54          1           0       26.630124    1.075745    2.668625
     55          1           0       24.806220    0.056758    3.313798
     56          1           0       23.693444    0.864240    2.148036
     57          1           0       29.123029    5.900024   -1.943696
     58          1           0       30.409267    5.837092   -3.226663
     59          1           0       30.864877    6.416320   -1.720836
     60          1           0       35.395810    4.051052   -2.329291
     61          1           0       34.764117    4.186494   -0.666376
     62          1           0       35.283894    5.567914   -1.587989
     63          1           0       35.351571    0.434127    0.655820
     64          1           0       34.875682   -2.372093   -0.401115
     65          1           0       36.871430    0.215414   -0.985226
     66          1           0       35.632178    0.196160   -2.271065
     67          1           0       36.177693   -1.282498   -1.625107
     68          1           0       34.166918   -2.406890    2.295185
     69          1           0       35.562722   -1.236626    2.223810
     70          1           0       35.958816   -3.637991    2.917678
     71          1           0       37.114905   -2.781582    1.904795
     72          1           0       36.098106   -4.074722    1.241415
     73          1           0       29.531833   -5.509952    2.414321
     74          1           0       31.206598   -4.839627    2.733689
     75          1           0       30.828621   -5.736560    1.264655
     76          1           0       26.271064   -1.642434    2.485603
     77          1           0       24.125616   -4.351367   -1.002860
     78          1           0       24.421311   -2.974162   -2.196200
     79          1           0       23.409811   -2.736835   -0.825466
     80         12           0      -30.554721    0.242682    0.377355
     81          6           0      -27.930815   -1.653322   -1.103308
     82          6           0      -32.162535    0.231532   -2.661953
     83          6           0      -32.860037    2.051963    1.904084
     84          6           0      -28.541953    0.604670    3.333206
     85          7           0      -30.062650   -0.579144   -1.743334
     86          6           0      -28.976311   -1.393747   -2.005256
     87          6           0      -29.129472   -1.856676   -3.494653
     88          6           0      -30.509786   -1.200033   -4.033673
     89          6           0      -30.923966   -0.466943   -2.753703
     90          6           0      -30.401399   -0.345837   -5.313941
     91          6           0      -28.961178   -3.404439   -3.789436
     92          6           0      -27.875652   -3.767360   -4.760606
     93          1           0      -27.399716   -2.855260   -5.860315
     94          7           0      -32.415096    0.958639   -0.285136
     95          6           0      -32.868380    0.853057   -1.562313
     96          6           0      -34.226856    1.331103   -1.538527
     97          6           0      -34.414565    1.947128   -0.282382
     98          6           0      -33.193513    1.709281    0.554159
     99          6           0      -35.088234    1.265311   -2.810990
    100          6           0      -35.560382    2.818122    0.135528
    101          8           0      -35.564817    3.411358    1.240200
    102          6           0      -36.691248    3.031555   -0.800970
    103          7           0      -30.600225    1.240191    2.362566
    104          6           0      -31.678093    1.832249    2.743750
    105          6           0      -31.714784    2.382339    4.267962
    106          6           0      -30.312862    1.924123    4.697850
    107          6           0      -29.785697    1.237933    3.461476
    108          6           0      -31.942668    3.938348    4.261272
    109          6           0      -30.226450    0.997216    5.961043
    110          6           0      -30.715421   -0.460034    5.784813
    111          7           0      -28.651231   -0.264043    0.925950
    112          6           0      -27.989185   -0.015621    2.151347
    113          6           0      -26.693075   -0.706312    2.109251
    114          6           0      -26.635298   -1.365471    0.857838
    115          6           0      -27.875534   -1.101026    0.184341
    116          6           0      -25.639487   -0.722324    3.256988
    117          6           0      -25.831704   -2.181004    0.112401
    118          8           0      -24.713452   -2.616464    0.296998
    119          6           0      -26.618965   -2.488328   -1.191996
    120          6           0      -25.782036   -2.153253   -2.320890
    121          8           0      -25.719963   -1.036070   -2.846458
    122          8           0      -24.889704   -3.201842   -2.573981
    123          6           0      -23.854722   -2.891037   -3.590984
    124          1           0      -32.642062    0.514186   -3.601836
    125          1           0      -33.552050    2.780170    2.332395
    126          1           0      -27.891839    0.680203    4.207280
    127          1           0      -28.208533   -1.423399   -3.882690
    128          1           0      -31.186665   -2.000911   -4.327875
    129          1           0      -31.083583   -0.713728   -6.081417
    130          1           0      -29.409415   -0.243254   -5.753552
    131          1           0      -30.710884    0.647648   -4.989420
    132          1           0      -29.904687   -3.821675   -4.141846
    133          1           0      -28.674480   -3.847085   -2.835481
    134          1           0      -28.302068   -4.516562   -5.428611
    135          1           0      -27.020629   -4.121704   -4.185952
    136          1           0      -34.679798    0.573660   -3.548165
    137          1           0      -35.167341    2.258196   -3.251871
    138          1           0      -36.059397    0.916229   -2.461630
    139          1           0      -37.098026    2.047406   -1.033609
    140          1           0      -36.352141    3.466553   -1.741904
    141          1           0      -37.412977    3.729882   -0.379156
    142          1           0      -32.484784    1.879064    4.853219
    143          1           0      -29.653264    2.789396    4.767541
    144          1           0      -31.513550    4.332140    3.339963
    145          1           0      -31.381135    4.366022    5.092610
    146          1           0      -32.966517    4.306255    4.332985
    147          1           0      -30.657115    1.506677    6.822483
    148          1           0      -29.181125    0.962294    6.266326
    149          1           0      -31.528906   -0.623135    5.078682
    150          1           0      -30.936638   -0.863747    6.773479
    151          1           0      -29.835840   -1.010960    5.452131
    152          1           0      -25.286003   -1.724303    3.500485
    153          1           0      -25.983983   -0.229456    4.165412
    154          1           0      -24.691278   -0.347660    2.870645
    155          1           0      -26.754889   -3.566488   -1.113789
    156          1           0      -23.148991   -2.154939   -3.206859
    157          1           0      -24.242424   -2.454818   -4.510867
    158          1           0      -23.464725   -3.849997   -3.932590
 ---------------------------------------------------------------------

 SCF Done:  E(RCAM-B3LYP) =  -4069.79463938     A.U. after   19 cycles

 Excitation energies and oscillator strengths:

 Excited State   1:      Singlet-A      1.7131 eV  723.72 nm  f=0.3797  <S**2>=0.000
     309 -> 315       -0.17423
     311 -> 313        0.68636
     309 <- 315       -0.10491
 This state for optimization and/or second-order correction.
 Total Energy, E(TD-HF/TD-DFT) =  -4069.73168243
 Copying the excited state density for this state as the 1-particle RhoCI density.

 Excited State   2:      Singlet-A      1.7536 eV  707.05 nm  f=0.3757  <S**2>=0.000
     310 -> 316        0.18842
     312 -> 314        0.68193
     310 <- 316        0.10759

 Excited State   3:      Singlet-A      2.1719 eV  570.86 nm  f=0.1596  <S**2>=0.000
     309 -> 313        0.65198
     311 -> 315        0.25356

 Excited State   4:      Singlet-A      2.2093 eV  561.18 nm  f=0.1088  <S**2>=0.000
     310 -> 314        0.64206
     312 -> 316       -0.28092

 Excited State   5:      Singlet-A      2.9713 eV  417.27 nm  f=0.0000  <S**2>=0.000
     312 -> 313        0.70711

 The electronic state is 1-A.
 Alpha  occ. eigenvalues --  -46.90495 -46.89803 -19.25134 -19.24253 -19.19839
 Alpha  occ. eigenvalues --  -19.19278 -19.19123 -19.18758 -19.18313 -19.17510
 Alpha  occ. eigenvalues --  -14.43500 -14.42660 -14.42005 -14.41868 -14.40062
 Alpha  occ. eigenvalues --  -14.39885 -14.39750 -14.39662 -10.39137 -10.38596
 Alpha  occ. eigenvalues --  -10.35287 -10.35053 -10.34201 -10.33285 -10.33120
 Alpha  occ. eigenvalues --  -10.32086 -10.31888 -10.31703 -10.31696 -10.31683
 Alpha  occ. eigenvalues --  -10.31523 -10.31403 -10.31086 -10.30883 -10.30838
 Alpha  occ. eigenvalues --  -10.30773 -10.30431 -10.30186 -10.30139 -10.29845
 Alpha  occ. eigenvalues --  -10.29839 -10.29435 -10.29345 -10.29105 -10.28810
 Alpha  occ. eigenvalues --  -10.28761 -10.28720 -10.28685 -10.28529 -10.28449
 Alpha  occ. eigenvalues --  -10.28363 -10.28303 -10.28279 -10.28273 -10.28209
 Alpha  occ. eigenvalues --  -10.28089 -10.28044 -10.27973 -10.27967 -10.27965
 Alpha  occ. eigenvalues --  -10.27936 -10.27907 -10.27675 -10.27474 -10.27391
 Alpha  occ. eigenvalues --  -10.27347 -10.27321 -10.27212 -10.27121 -10.27042
 Alpha  occ. eigenvalues --  -10.27011 -10.26996 -10.26843 -10.26585 -10.26341
 Alpha  occ. eigenvalues --  -10.26315 -10.26258 -10.26189 -10.26063 -10.25989
 Alpha  occ. eigenvalues --  -10.25957 -10.25911 -10.25856 -10.25427 -10.24922
 Alpha  occ. eigenvalues --  -10.23882  -3.18706  -3.18138  -1.93634  -1.93137
 Alpha  occ. eigenvalues --   -1.93053  -1.93008  -1.92629  -1.92395  -1.15548
 Alpha  occ. eigenvalues --   -1.14339  -1.10071  -1.09781  -1.09232  -1.08449
 Alpha  occ. eigenvalues --   -1.07492  -1.06296  -1.06095  -1.04831  -1.04069
 Alpha  occ. eigenvalues --   -1.03684  -1.03018  -1.02583  -1.01750  -1.01687
 Alpha  occ. eigenvalues --   -0.92599  -0.92266  -0.89733  -0.89515  -0.89392
 Alpha  occ. eigenvalues --   -0.88270  -0.88206  -0.87812  -0.87708  -0.87238
 Alpha  occ. eigenvalues --   -0.87186  -0.86776  -0.85830  -0.85462  -0.84528
 Alpha  occ. eigenvalues --   -0.84307  -0.83856  -0.83357  -0.82908  -0.82523
 Alpha  occ. eigenvalues --   -0.82241  -0.82209  -0.80900  -0.80764  -0.80659
 Alpha  occ. eigenvalues --   -0.80033  -0.78307  -0.77848  -0.77563  -0.77199
 Alpha  occ. eigenvalues --   -0.77000  -0.76428  -0.76233  -0.75715  -0.75539
 Alpha  occ. eigenvalues --   -0.74963  -0.73516  -0.72508  -0.72296  -0.71543
 Alpha  occ. eigenvalues --   -0.70450  -0.69407  -0.69022  -0.69007  -0.68005
 Alpha  occ. eigenvalues --   -0.67824  -0.67144  -0.66899  -0.65647  -0.65485
 Alpha  occ. eigenvalues --   -0.65300  -0.65262  -0.64890  -0.64822  -0.64628
 Alpha  occ. eigenvalues --   -0.64220  -0.63018  -0.61402  -0.60264  -0.60212
 Alpha  occ. eigenvalues --   -0.59762  -0.59488  -0.59471  -0.59080  -0.58590
 Alpha  occ. eigenvalues --   -0.58115  -0.57924  -0.57806  -0.57509  -0.56999
 Alpha  occ. eigenvalues --   -0.56566  -0.56265  -0.56006  -0.55987  -0.55459
 Alpha  occ. eigenvalues --   -0.55255  -0.54934  -0.54822  -0.53858  -0.53579
 Alpha  occ. eigenvalues --   -0.53534  -0.53246  -0.53225  -0.53000  -0.52839
 Alpha  occ. eigenvalues --   -0.52823  -0.52796  -0.52611  -0.52494  -0.52106
 Alpha  occ. eigenvalues --   -0.52007  -0.51858  -0.51536  -0.51339  -0.51273
 Alpha  occ. eigenvalues --   -0.50946  -0.50792  -0.50439  -0.50389  -0.50222
 Alpha  occ. eigenvalues --   -0.49834  -0.49724  -0.49506  -0.49494  -0.49232
 Alpha  occ. eigenvalues --   -0.49198  -0.49156  -0.48939  -0.48883  -0.48846
 Alpha  occ. eigenvalues --   -0.48658  -0.48556  -0.48321  -0.47964  -0.47959
 Alpha  occ. eigenvalues --   -0.47912  -0.47808  -0.47491  -0.47299  -0.47184
 Alpha  occ. eigenvalues --   -0.47023  -0.46720  -0.46718  -0.46595  -0.46594
 Alpha  occ. eigenvalues --   -0.46498  -0.46146  -0.46139  -0.46002  -0.45848
 Alpha  occ. eigenvalues --   -0.45805  -0.45698  -0.45470  -0.45320  -0.45198
 Alpha  occ. eigenvalues --   -0.44913  -0.44683  -0.44580  -0.44535  -0.44207
 Alpha  occ. eigenvalues --   -0.44130  -0.43764  -0.43736  -0.43730  -0.43644
 Alpha  occ. eigenvalues --   -0.43428  -0.43186  -0.42990  -0.42767  -0.42707
 Alpha  occ. eigenvalues --   -0.42461  -0.42437  -0.42348  -0.42238  -0.41848
 Alpha  occ. eigenvalues --   -0.41807  -0.41605  -0.41564  -0.41511  -0.41358
 Alpha  occ. eigenvalues --   -0.41286  -0.41240  -0.41126  -0.40573  -0.40495
 Alpha  occ. eigenvalues --   -0.40102  -0.39978  -0.39761  -0.39722  -0.39474
 Alpha  occ. eigenvalues --   -0.39101  -0.38360  -0.37825  -0.37420  -0.37223
 Alpha  occ. eigenvalues --   -0.36925  -0.36792  -0.36613  -0.36348  -0.36081
 Alpha  occ. eigenvalues --   -0.35904  -0.35478  -0.34498  -0.34327  -0.33919
 Alpha  occ. eigenvalues --   -0.33656  -0.33343  -0.33031  -0.31772  -0.31299
 Alpha  occ. eigenvalues --   -0.31233  -0.31190  -0.30537  -0.30312  -0.30200
 Alpha  occ. eigenvalues --   -0.29947  -0.29591  -0.29541  -0.24624  -0.23774
 Alpha  occ. eigenvalues --   -0.22164  -0.21228
 Alpha virt. eigenvalues --   -0.09736  -0.08525  -0.02347  -0.01768   0.00012
 Alpha virt. eigenvalues --    0.00158   0.02206   0.02329   0.02340   0.02598
 Alpha virt. eigenvalues --    0.04500   0.05026   0.05261   0.05555   0.05835

 Mulliken charges:
               1
     1  Mg  12.001432
     2  C    6.024598
     3  C    5.992734
     4  C    5.962912
     5  C    6.003596
     6  N    7.013873
     7  C    5.968525
     8  C    6.010413
     9  C    5.995415
    10  C    6.031713
    11  C    5.994843
    12  C    5.999205
    13  C    6.001554
    14  H    0.995951
    15  N    6.985082
    16  C    6.045493
    17  C    6.018672
    18  C    6.011566
    19  C    6.047973
    20  C    5.996635
    21  C    6.010485
    22  O    8.019896
    23  C    5.993483
    24  N    6.991991
    25  C    6.038301
    26  C    5.990160
    27  C    6.003966
    28  C    5.975385
    29  C    5.997524
    30  C    6.004202
    31  C    6.000976
    32  N    7.005438
    33  C    5.957440
    34  C    5.975493
    35  C    5.995506
    36  C    5.965375
    37  C    6.000950
    38  C    5.984284
    39  O    7.966612
    40  C    5.995772
    41  C    5.994807
    42  O    7.992686
    43  O    8.002550
    44  C    6.003213
    45  H    1.013130
    46  H    0.998887
    47  H    0.986300
    48  H    1.002615
    49  H    1.002590
    50  H    1.015425
    51  H    1.000500
    52  H    1.002539
    53  H    0.990697
    54  H    1.005325
    55  H    1.007143
    56  H    0.998615
    57  H    1.017868
    58  H    1.017688
    59  H    1.015517
    60  H    1.013892
    61  H    1.010306
    62  H    1.011065
    63  H    1.001883
    64  H    0.999229
    65  H    1.000307
    66  H    0.994708
    67  H    1.007437
    68  H    1.007380
    69  H    0.988516
    70  H    0.999415
    71  H    0.992318
    72  H    0.999632
    73  H    0.987288
    74  H    0.981604
    75  H    0.979679
    76  H    0.994262
    77  H    1.000055
    78  H    0.993237
    79  H    0.994266
    80  Mg  11.999997
    81  C    6.000009
    82  C    6.000034
    83  C    5.999998
    84  C    6.000023
    85  N    7.000000
    86  C    6.000025
    87  C    5.999986
    88  C    6.000040
    89  C    5.999922
    90  C    6.000003
    91  C    5.999992
    92  C    5.999997
    93  H    1.000002
    94  N    7.000035
    95  C    5.999874
    96  C    5.999960
    97  C    5.999957
    98  C    5.999889
    99  C    6.000013
   100  C    5.999963
   101  O    7.999930
   102  C    6.000018
   103  N    6.999974
   104  C    5.999957
   105  C    6.000011
   106  C    5.999986
   107  C    6.000064
   108  C    6.000012
   109  C    5.999982
   110  C    5.999990
   111  N    6.999995
   112  C    6.000105
   113  C    6.000084
   114  C    6.000019
   115  C    6.000071
   116  C    5.999972
   117  C    6.000025
   118  O    8.000092
   119  C    5.999996
   120  C    6.000016
   121  O    8.000009
   122  O    8.000009
   123  C    5.999992
   124  H    0.999990
   125  H    0.999984
   126  H    1.000012
   127  H    0.999987
   128  H    0.999991
   129  H    0.999987
   130  H    0.999968
   131  H    0.999997
   132  H    1.000025
   133  H    0.999993
   134  H    1.000017
   135  H    0.999997
   136  H    0.999955
   137  H    0.999938
   138  H    0.999960
   139  H    0.999985
   140  H    0.999973
   141  H    0.999953
   142  H    1.000000
   143  H    0.999996
   144  H    0.999992
   145  H    0.999964
   146  H    1.000003
   147  H    1.000023
   148  H    0.999996
   149  H    1.000030
   150  H    1.000021
   151  H    0.999987
   152  H    1.000071
   153  H    1.000053
   154  H    1.000053
   155  H    1.000035
   156  H    1.000003
   157  H    1.000007
   158  H    1.000030
 Sum of Mulliken charges = 624.00000

 Dipole moment (field-independent basis, Debye):
    X=              1.4224    Y=              9.8801    Z=             -4.1547  Tot=             10.8121
 Quadrupole moment (field-independent basis, Debye-Ang):
   XX=             81.6963   YY=              6.2489   ZZ=              0.9448
   XY=            301.0944   XZ=           -126.5343   YZ=             -3.0664

 Normal termination of Gaussian 16 at Thu Sep 23 03:31:06 2021.
