 Gaussian 16, Revision A.03,
 Gaussian 16:  ES64L-G16RevA.03 25-Dec-2016

 -----------------------------------
 #p cam-b3lyp/Def2SVP td=(nstates=5)
 -----------------------------------

 --------------------------------
 TDDFT excited states in gaussian
 --------------------------------
 Symbolic Z-matrix:
 Charge =  0 Multiplicity = 1

                         Standard orientation:
 ---------------------------------------------------------------------
 Center     Atomic      Atomic             Coordinates (Angstroms)
 Number     Number       Type             X           Y           Z
 ---------------------------------------------------------------------
      1         12           0      -30.224100    0.159744    0.397471
      2          6           0      -28.062203   -1.941281   -1.388403
      3          6           0      -30.438934    2.210167   -2.481001
      4          6           0      -32.036671    2.394245    2.200544
      5          6           0      -29.338830   -1.502538    3.291281
      6          7           0      -29.479259    0.008023   -1.684382
      7          6           0      -28.749646   -1.069192   -2.195527
      8          6           0      -28.823711   -1.042455   -3.764752
      9          6           0      -29.489292    0.310171   -4.043572
     10          6           0      -29.790631    0.924820   -2.632243
     11          6           0      -28.544537    1.216666   -4.877803
     12          6           0      -29.580196   -2.278040   -4.237041
     13          6           0      -29.255498   -2.831431   -5.614909
     14          1           0      -28.427748   -1.952539   -6.579674
     15          7           0      -31.142074    2.037811   -0.031050
     16          6           0      -31.087412    2.719569   -1.261615
     17          6           0      -31.786765    3.989432   -1.173550
     18          6           0      -32.346263    4.083054    0.161300
     19          6           0      -31.830479    2.818812    0.842239
     20          6           0      -32.036946    4.923411   -2.364488
     21          6           0      -33.226806    5.141560    0.797262
     22          8           0      -33.609054    5.014238    1.952848
     23          6           0      -33.784718    6.210130   -0.062187
     24          7           0      -30.670195    0.343122    2.474371
     25          6           0      -31.516189    1.301364    2.944984
     26          6           0      -31.831122    1.032915    4.439902
     27          6           0      -31.013648   -0.269091    4.795527
     28          6           0      -30.363607   -0.597047    3.426460
     29          6           0      -31.456311    2.257061    5.294361
     30          6           0      -31.872493   -1.470695    5.271600
     31          6           0      -31.780451   -1.581918    6.790307
     32          7           0      -28.887040   -1.344520    0.969402
     33          6           0      -28.556988   -1.889964    2.165035
     34          6           0      -27.384393   -2.770101    1.941098
     35          6           0      -27.223428   -2.907476    0.593444
     36          6           0      -28.142483   -1.974670    0.048639
     37          6           0      -26.710962   -3.502448    3.089528
     38          6           0      -26.506037   -3.589646   -0.491886
     39          8           0      -25.603440   -4.415203   -0.423960
     40          6           0      -27.100310   -3.038977   -1.773829
     41          6           0      -25.950686   -2.626466   -2.594392
     42          8           0      -25.236002   -1.617679   -2.521513
     43          8           0      -25.704411   -3.639272   -3.498618
     44          6           0      -24.560971   -3.470701   -4.368823
     45          1           0      -30.546165    2.772057   -3.410941
     46          1           0      -32.714265    3.105898    2.676926
     47          1           0      -29.046545   -1.915682    4.259004
     48          1           0      -27.761019   -1.053558   -4.009959
     49          1           0      -30.314209    0.099697   -4.724173
     50          1           0      -28.147923    2.080926   -4.344754
     51          1           0      -29.181402    1.735102   -5.593992
     52          1           0      -27.691404    0.667416   -5.275561
     53          1           0      -30.630024   -2.007198   -4.120719
     54          1           0      -29.455279   -3.069206   -3.498689
     55          1           0      -30.185614   -3.129838   -6.096688
     56          1           0      -28.717918   -3.743237   -5.352318
     57          1           0      -31.506073    4.635142   -3.271977
     58          1           0      -31.724020    5.937452   -2.112129
     59          1           0      -33.112117    5.008741   -2.517567
     60          1           0      -34.464414    5.755279   -0.783189
     61          1           0      -32.997366    6.865261   -0.434912
     62          1           0      -34.439855    6.878384    0.496768
     63          1           0      -32.910375    0.912009    4.530296
     64          1           0      -30.243912    0.062906    5.493449
     65          1           0      -30.745873    2.088780    6.103201
     66          1           0      -32.430014    2.456955    5.741114
     67          1           0      -30.987170    3.070396    4.741454
     68          1           0      -31.396839   -2.409603    4.987656
     69          1           0      -32.917962   -1.411549    4.968357
     70          1           0      -32.817853   -1.705511    7.100769
     71          1           0      -31.495889   -0.656739    7.290890
     72          1           0      -31.167227   -2.402370    7.164062
     73          1           0      -26.990603   -3.162828    4.087141
     74          1           0      -25.623903   -3.469627    3.027665
     75          1           0      -27.094023   -4.523295    3.111397
     76          1           0      -27.672982   -3.838779   -2.242242
     77          1           0      -23.703371   -3.227239   -3.741125
     78          1           0      -24.687641   -2.677607   -5.106074
     79          1           0      -24.282050   -4.484994   -4.652304
     80         12           0       30.168526    0.323140   -0.147309
     81          6           0       27.193926   -1.345179   -0.343093
     82          6           0       28.347569    3.323929   -0.732121
     83          6           0       33.010995    2.047216    0.430481
     84          6           0       31.618121   -2.493283    1.303061
     85          7           0       27.860769    0.959454   -0.133417
     86          6           0       26.899864    0.043592   -0.440948
     87          6           0       25.578101    0.735291   -0.629211
     88          6           0       25.949927    2.278633   -0.726088
     89          6           0       27.499600    2.250115   -0.536641
     90          6           0       25.231788    3.068846   -1.758252
     91          6           0       24.355165    0.397697    0.348460
     92          6           0       24.664849    0.021665    1.767144
     93          1           0       23.873241    0.728309    2.858612
     94          7           0       30.647808    2.355978   -0.386704
     95          6           0       29.810585    3.396649   -0.645194
     96          6           0       30.504218    4.650008   -0.685052
     97          6           0       31.926715    4.270916   -0.456802
     98          6           0       31.914489    2.829253   -0.125591
     99          6           0       29.968499    5.977652   -0.938712
    100          6           0       33.170492    5.145115   -0.528544
    101          8           0       33.075307    6.315534   -0.641508
    102          6           0       34.594262    4.688937   -0.368538
    103          7           0       31.964001   -0.117150    0.842800
    104          6           0       33.016934    0.711250    0.769071
    105          6           0       34.259573    0.134179    1.629202
    106          6           0       33.897447   -1.428231    1.544367
    107          6           0       32.416077   -1.324284    1.269925
    108          6           0       35.654402    0.468076    1.092872
    109          6           0       34.353854   -2.215176    2.786159
    110          6           0       35.114649   -3.538346    2.640396
    111          7           0       29.521105   -1.520614    0.484931
    112          6           0       30.203800   -2.604381    1.023126
    113          6           0       29.387967   -3.754322    1.083433
    114          6           0       28.188245   -3.364262    0.511522
    115          6           0       28.302854   -1.974846    0.151383
    116          6           0       29.759471   -5.120029    1.572629
    117          6           0       26.902295   -3.714330    0.071449
    118          8           0       26.358159   -4.812702    0.165117
    119          6           0       26.136234   -2.423055   -0.334281
    120          6           0       25.574341   -2.772043   -1.704607
    121          8           0       24.372393   -2.647899   -2.021912
    122          8           0       26.636864   -3.090994   -2.516950
    123          6           0       26.487723   -3.245541   -3.984720
    124          1           0       27.717843    4.214143   -0.789520
    125          1           0       33.850360    2.638306    0.802361
    126          1           0       32.101509   -3.391144    1.692828
    127          1           0       25.142848    0.393229   -1.568887
    128          1           0       25.637104    2.719164    0.220137
    129          1           0       25.891173    3.684218   -2.370208
    130          1           0       24.393166    3.626651   -1.341488
    131          1           0       24.787219    2.389177   -2.485300
    132          1           0       23.737034   -0.439202    0.023265
    133          1           0       23.751812    1.294218    0.494380
    134          1           0       25.726935   -0.043001    2.001203
    135          1           0       24.277101   -0.986676    1.915763
    136          1           0       29.110265    5.886771   -1.603770
    137          1           0       30.684665    6.670195   -1.379363
    138          1           0       29.644922    6.372428    0.025057
    139          1           0       34.427890    3.703771   -0.804929
    140          1           0       34.900009    4.608394    0.674131
    141          1           0       35.362066    5.258892   -0.891987
    142          1           0       34.087017    0.466838    2.653207
    143          1           0       34.266350   -2.004694    0.696375
    144          1           0       36.047478   -0.445623    0.646228
    145          1           0       36.240912    0.980945    1.854597
    146          1           0       35.639379    1.201515    0.287230
    147          1           0       33.456519   -2.414795    3.372466
    148          1           0       34.909490   -1.530657    3.427273
    149          1           0       36.033764   -3.677743    3.209717
    150          1           0       35.279210   -3.822289    1.600149
    151          1           0       34.347418   -4.264711    2.906543
    152          1           0       29.277765   -5.941426    1.041640
    153          1           0       29.500094   -5.189072    2.629320
    154          1           0       30.821077   -5.344074    1.460346
    155          1           0       25.378134   -2.341006    0.443646
    156          1           0       27.334478   -2.838421   -4.537041
    157          1           0       25.579380   -2.725067   -4.288665
    158          1           0       26.365476   -4.231770   -4.430752
 ---------------------------------------------------------------------

 SCF Done:  E(RCAM-B3LYP) =  -4069.75400260     A.U. after   19 cycles

 Excitation energies and oscillator strengths:

 Excited State   1:      Singlet-A      1.6348 eV  758.42 nm  f=0.3844  <S**2>=0.000
     309 -> 315        0.16911
     311 -> 313        0.68878
     309 <- 315        0.10872
 This state for optimization and/or second-order correction.
 Total Energy, E(TD-HF/TD-DFT) =  -4069.69392616
 Copying the excited state density for this state as the 1-particle RhoCI density.

 Excited State   2:      Singlet-A      1.6782 eV  738.80 nm  f=0.3976  <S**2>=0.000
     310 -> 316       -0.17294
     312 -> 314        0.68712
     310 <- 316       -0.10453

 Excited State   3:      Singlet-A      2.1489 eV  576.98 nm  f=0.1479  <S**2>=0.000
     309 -> 313        0.65208
     311 -> 315       -0.25547

 Excited State   4:      Singlet-A      2.1968 eV  564.39 nm  f=0.1209  <S**2>=0.000
     310 -> 314        0.64514
     312 -> 316        0.27392

 Excited State   5:      Singlet-A      2.9029 eV  427.11 nm  f=0.0000  <S**2>=0.000
     312 -> 313        0.70711

 The electronic state is 1-A.
 Alpha  occ. eigenvalues --  -46.89955 -46.89101 -19.26228 -19.24438 -19.20330
 Alpha  occ. eigenvalues --  -19.19776 -19.19280 -19.19190 -19.18484 -19.17246
 Alpha  occ. eigenvalues --  -14.42588 -14.42173 -14.42041 -14.41724 -14.40103
 Alpha  occ. eigenvalues --  -14.40061 -14.39666 -14.39186 -10.40483 -10.39344
 Alpha  occ. eigenvalues --  -10.35464 -10.35386 -10.34283 -10.33583 -10.32827
 Alpha  occ. eigenvalues --  -10.32099 -10.31976 -10.31613 -10.31189 -10.31139
 Alpha  occ. eigenvalues --  -10.31017 -10.30975 -10.30951 -10.30932 -10.30767
 Alpha  occ. eigenvalues --  -10.30703 -10.30633 -10.30183 -10.30068 -10.29522
 Alpha  occ. eigenvalues --  -10.29396 -10.29330 -10.29040 -10.28903 -10.28862
 Alpha  occ. eigenvalues --  -10.28577 -10.28469 -10.28439 -10.28387 -10.28302
 Alpha  occ. eigenvalues --  -10.28206 -10.28154 -10.28030 -10.27975 -10.27964
 Alpha  occ. eigenvalues --  -10.27810 -10.27760 -10.27754 -10.27653 -10.27598
 Alpha  occ. eigenvalues --  -10.27581 -10.27547 -10.27525 -10.27517 -10.27382
 Alpha  occ. eigenvalues --  -10.27238 -10.26798 -10.26784 -10.26779 -10.26736
 Alpha  occ. eigenvalues --  -10.26699 -10.26511 -10.26479 -10.26352 -10.26276
 Alpha  occ. eigenvalues --  -10.26229 -10.26212 -10.26073 -10.25521 -10.25511
 Alpha  occ. eigenvalues --  -10.25490 -10.25245 -10.25172 -10.25088 -10.24992
 Alpha  occ. eigenvalues --  -10.24757  -3.18427  -3.17499  -1.93285  -1.92919
 Alpha  occ. eigenvalues --   -1.92702  -1.92412  -1.91913  -1.91831  -1.15775
 Alpha  occ. eigenvalues --   -1.15688  -1.11423  -1.10443  -1.09993  -1.09364
 Alpha  occ. eigenvalues --   -1.07259  -1.06847  -1.05177  -1.04373  -1.04305
 Alpha  occ. eigenvalues --   -1.02946  -1.02772  -1.02622  -1.02165  -1.01611
 Alpha  occ. eigenvalues --   -0.93701  -0.93353  -0.89852  -0.89252  -0.88766
 Alpha  occ. eigenvalues --   -0.88746  -0.88414  -0.87952  -0.87950  -0.87262
 Alpha  occ. eigenvalues --   -0.87092  -0.86838  -0.85897  -0.85581  -0.84562
 Alpha  occ. eigenvalues --   -0.84293  -0.84007  -0.83866  -0.83111  -0.82711
 Alpha  occ. eigenvalues --   -0.82368  -0.82188  -0.80995  -0.80879  -0.80601
 Alpha  occ. eigenvalues --   -0.80004  -0.78528  -0.78082  -0.77818  -0.77244
 Alpha  occ. eigenvalues --   -0.77005  -0.76798  -0.76708  -0.75941  -0.75489
 Alpha  occ. eigenvalues --   -0.74520  -0.73599  -0.72519  -0.71767  -0.70991
 Alpha  occ. eigenvalues --   -0.70044  -0.69403  -0.69045  -0.68474  -0.68417
 Alpha  occ. eigenvalues --   -0.67908  -0.67055  -0.66581  -0.66286  -0.65505
 Alpha  occ. eigenvalues --   -0.65409  -0.64901  -0.64727  -0.64617  -0.64414
 Alpha  occ. eigenvalues --   -0.63880  -0.63608  -0.62110  -0.60294  -0.60108
 Alpha  occ. eigenvalues --   -0.59630  -0.59408  -0.59077  -0.58902  -0.58777
 Alpha  occ. eigenvalues --   -0.58335  -0.58077  -0.57636  -0.57623  -0.57232
 Alpha  occ. eigenvalues --   -0.56544  -0.55870  -0.55811  -0.55750  -0.55341
 Alpha  occ. eigenvalues --   -0.55124  -0.55071  -0.54757  -0.54478  -0.53984
 Alpha  occ. eigenvalues --   -0.53616  -0.53583  -0.53399  -0.53301  -0.53287
 Alpha  occ. eigenvalues --   -0.53197  -0.52893  -0.52801  -0.52522  -0.52090
 Alpha  occ. eigenvalues --   -0.51872  -0.51860  -0.51817  -0.51705  -0.51364
 Alpha  occ. eigenvalues --   -0.51359  -0.51093  -0.50755  -0.50706  -0.50605
 Alpha  occ. eigenvalues --   -0.50317  -0.49995  -0.49812  -0.49727  -0.49602
 Alpha  occ. eigenvalues --   -0.49476  -0.49290  -0.49234  -0.49197  -0.49011
 Alpha  occ. eigenvalues --   -0.49007  -0.48629  -0.48242  -0.48148  -0.47883
 Alpha  occ. eigenvalues --   -0.47844  -0.47573  -0.47382  -0.47319  -0.47236
 Alpha  occ. eigenvalues --   -0.47115  -0.47096  -0.46913  -0.46716  -0.46426
 Alpha  occ. eigenvalues --   -0.46381  -0.46156  -0.46016  -0.45870  -0.45628
 Alpha  occ. eigenvalues --   -0.45542  -0.45331  -0.45217  -0.45032  -0.44973
 Alpha  occ. eigenvalues --   -0.44897  -0.44718  -0.44433  -0.44374  -0.44202
 Alpha  occ. eigenvalues --   -0.44167  -0.44013  -0.43577  -0.43395  -0.43383
 Alpha  occ. eigenvalues --   -0.43160  -0.43084  -0.43021  -0.42787  -0.42720
 Alpha  occ. eigenvalues --   -0.42650  -0.42604  -0.42386  -0.42346  -0.42087
 Alpha  occ. eigenvalues --   -0.41957  -0.41863  -0.41739  -0.41513  -0.41496
 Alpha  occ. eigenvalues --   -0.41299  -0.41227  -0.41052  -0.40576  -0.40419
 Alpha  occ. eigenvalues --   -0.40240  -0.39959  -0.39044  -0.38912  -0.38687
 Alpha  occ. eigenvalues --   -0.38449  -0.38007  -0.37998  -0.37944  -0.37741
 Alpha  occ. eigenvalues --   -0.37378  -0.36892  -0.36431  -0.36291  -0.36159
 Alpha  occ. eigenvalues --   -0.35830  -0.35614  -0.34794  -0.34347  -0.34071
 Alpha  occ. eigenvalues --   -0.33875  -0.33094  -0.32602  -0.31579  -0.31560
 Alpha  occ. eigenvalues --   -0.31441  -0.31259  -0.30905  -0.30516  -0.30260
 Alpha  occ. eigenvalues --   -0.29968  -0.29557  -0.28361  -0.24471  -0.23788
 Alpha  occ. eigenvalues --   -0.21729  -0.20921
 Alpha virt. eigenvalues --   -0.09675  -0.08653  -0.01968  -0.01448   0.00135
 Alpha virt. eigenvalues --    0.00200   0.00991   0.01839   0.02526   0.02683
 Alpha virt. eigenvalues --    0.04562   0.04904   0.05152   0.05221   0.05887

 Mulliken charges:
               1
     1  Mg   0.819589
     2  C   -0.001629
     3  C   -0.062415
     4  C   -0.049452
     5  C   -0.063041
     6  N   -0.299534
     7  C   -0.121778
     8  C    0.023376
     9  C   -0.072135
    10  C    0.088150
    11  C    0.047573
    12  C    0.044026
    13  C   -0.030761
    14  H    0.030290
    15  N   -0.363608
    16  C    0.139370
    17  C   -0.154985
    18  C   -0.043594
    19  C    0.067677
    20  C    0.127884
    21  C    0.011805
    22  O   -0.199343
    23  C    0.049164
    24  N   -0.300431
    25  C    0.068934
    26  C   -0.058281
    27  C   -0.010006
    28  C    0.028456
    29  C    0.054655
    30  C    0.057269
    31  C   -0.011234
    32  N   -0.319258
    33  C    0.103421
    34  C   -0.191852
    35  C    0.027768
    36  C    0.105689
    37  C    0.107763
    38  C    0.039858
    39  O   -0.159264
    40  C    0.037434
    41  C    0.197731
    42  O   -0.232007
    43  O   -0.337876
    44  C    0.191716
    45  H   -0.027676
    46  H   -0.005033
    47  H   -0.030825
    48  H    0.010661
    49  H    0.014862
    50  H    0.011771
    51  H    0.006954
    52  H    0.029389
    53  H   -0.005478
    54  H    0.003360
    55  H    0.027374
    56  H    0.033823
    57  H    0.020963
    58  H    0.019229
    59  H    0.028873
    60  H    0.047470
    61  H    0.037045
    62  H    0.017611
    63  H    0.015750
    64  H    0.017507
    65  H    0.007130
    66  H    0.020783
    67  H    0.033857
    68  H    0.010942
    69  H    0.016086
    70  H    0.002398
    71  H    0.006562
    72  H    0.025377
    73  H   -0.003248
    74  H    0.037545
    75  H    0.027405
    76  H    0.052208
    77  H    0.027354
    78  H    0.040721
    79  H    0.034136
    80  Mg   0.824983
    81  C    0.019302
    82  C   -0.076969
    83  C   -0.075335
    84  C   -0.091263
    85  N   -0.272153
    86  C   -0.046292
    87  C    0.019153
    88  C   -0.037964
    89  C    0.011856
    90  C    0.090879
    91  C    0.034483
    92  C   -0.113678
    93  H    0.011962
    94  N   -0.363516
    95  C    0.155786
    96  C   -0.164928
    97  C   -0.053230
    98  C    0.113975
    99  C    0.136384
   100  C   -0.034860
   101  O   -0.178702
   102  C    0.046388
   103  N   -0.288432
   104  C    0.057816
   105  C   -0.083520
   106  C   -0.035971
   107  C    0.048060
   108  C    0.096432
   109  C    0.030968
   110  C    0.010222
   111  N   -0.351645
   112  C    0.123540
   113  C   -0.172821
   114  C    0.107930
   115  C    0.078504
   116  C    0.118780
   117  C   -0.023673
   118  O   -0.180929
   119  C   -0.040738
   120  C    0.244523
   121  O   -0.225264
   122  O   -0.349247
   123  C    0.180467
   124  H   -0.016072
   125  H   -0.017627
   126  H   -0.037879
   127  H    0.015011
   128  H    0.022362
   129  H    0.014214
   130  H    0.019014
   131  H    0.005484
   132  H    0.034711
   133  H    0.020734
   134  H    0.042981
   135  H    0.034003
   136  H    0.010769
   137  H    0.039537
   138  H    0.029652
   139  H    0.015079
   140  H    0.049011
   141  H    0.031110
   142  H    0.029330
   143  H    0.016132
   144  H    0.016710
   145  H    0.016749
   146  H    0.012742
   147  H    0.006073
   148  H    0.002121
   149  H    0.033171
   150  H    0.005108
   151  H    0.010965
   152  H    0.037312
   153  H    0.037075
   154  H    0.010960
   155  H    0.037031
   156  H    0.035822
   157  H    0.037914
   158  H    0.041429
 Sum of Mulliken charges =  -0.00000

 Dipole moment (field-independent basis, Debye):
    X=             -0.2688    Y=             -0.0113    Z=             -2.9616  Tot=              2.9738
 Quadrupole moment (field-independent basis, Debye-Ang):
   XX=            -42.5913   YY=           -549.4279   ZZ=           -469.7561
   XY=            -94.7123   XZ=             55.8986   YZ=             -8.8823

 Normal termination of Gaussian 16 at Wed Sep 15 20:27:27 2021.
