 Gaussian 16, Revision A.03,
 Gaussian 16:  ES64L-G16RevA.03 25-Dec-2016

 ----------------------------------------------------------
 #p cam-b3lyp/Def2SVP td=(nstates=5) density=(transition=1)
 ----------------------------------------------------------

 --------------------------------
 TDDFT excited states in gaussian
 --------------------------------
 Symbolic Z-matrix:
 Charge =  0 Multiplicity = 1

                         Standard orientation:
 ---------------------------------------------------------------------
 Center     Atomic      Atomic             Coordinates (Angstroms)
 Number     Number       Type             X           Y           Z
 ---------------------------------------------------------------------
      1         12           0       19.950575    0.227914    0.338332
      2          6           0       17.367816   -1.392047   -1.206664
      3          6           0       20.469924    2.129853   -2.347783
      4          6           0       22.519150    1.489778    1.898032
      5          6           0       19.688408   -2.249556    2.887050
      6          7           0       19.121179    0.245955   -1.667123
      7          6           0       17.919394   -0.316184   -1.949483
      8          6           0       17.278587    0.307513   -3.159046
      9          6           0       18.448110    1.244266   -3.664519
     10          6           0       19.461995    1.156744   -2.544450
     11          6           0       18.997794    0.891694   -5.067551
     12          6           0       15.822463    1.021986   -2.864731
     13          6           0       14.654041    0.727094   -3.817661
     14          1           0       15.020510    0.275192   -5.266241
     15          7           0       21.146770    1.675874   -0.066230
     16          6           0       21.263571    2.382071   -1.220935
     17          6           0       22.382469    3.292728   -1.220635
     18          6           0       22.850983    3.266003    0.058163
     19          6           0       22.246072    2.029581    0.643979
     20          6           0       22.732157    3.962103   -2.537155
     21          6           0       23.938218    4.144919    0.707814
     22          8           0       24.333676    4.005969    1.841845
     23          6           0       24.505885    5.186720   -0.210328
     24          7           0       21.046087   -0.448417    2.069776
     25          6           0       22.000278    0.374135    2.541464
     26          6           0       22.511764   -0.105809    3.903369
     27          6           0       21.396517   -1.105351    4.362618
     28          6           0       20.663428   -1.317685    3.022190
     29          6           0       23.973985   -0.719403    3.987860
     30          6           0       20.377680   -0.571030    5.438536
     31          6           0       19.519533    0.646453    5.215915
     32          7           0       18.754797   -1.447355    0.881354
     33          6           0       18.798784   -2.422688    1.882821
     34          6           0       17.732800   -3.418644    1.715114
     35          6           0       17.130539   -3.044423    0.504544
     36          6           0       17.801256   -1.854964    0.078482
     37          6           0       17.339177   -4.534089    2.649120
     38          6           0       16.148434   -3.359035   -0.429117
     39          8           0       15.352318   -4.279944   -0.525147
     40          6           0       16.093710   -2.189799   -1.446196
     41          6           0       16.054836   -2.898769   -2.745790
     42          8           0       17.029173   -3.385504   -3.324565
     43          8           0       14.771865   -3.053506   -3.184820
     44          6           0       14.493665   -3.979404   -4.287284
     45          1           0       20.485546    2.859829   -3.160061
     46          1           0       23.332066    1.895125    2.502879
     47          1           0       19.697377   -2.913067    3.755171
     48          1           0       17.153582   -0.430797   -3.951189
     49          1           0       18.099123    2.276631   -3.656792
     50          1           0       19.951503    0.376677   -4.952894
     51          1           0       19.174440    1.819438   -5.611806
     52          1           0       18.255836    0.245417   -5.536665
     53          1           0       16.034025    2.091242   -2.878228
     54          1           0       15.442223    0.724152   -1.888097
     55          1           0       14.081025    1.635351   -4.002363
     56          1           0       13.954510    0.040144   -3.341517
     57          1           0       23.011668    3.282929   -3.342725
     58          1           0       23.635566    4.564896   -2.627920
     59          1           0       21.839697    4.565702   -2.702449
     60          1           0       23.714609    5.822327   -0.607100
     61          1           0       25.063730    4.575898   -0.919818
     62          1           0       25.175092    5.941549    0.201036
     63          1           0       22.539516    0.827620    4.466673
     64          1           0       21.865971   -2.052421    4.629573
     65          1           0       24.433843   -0.696986    3.000160
     66          1           0       23.933108   -1.784083    4.214748
     67          1           0       24.646913   -0.274299    4.722350
     68          1           0       21.062051   -0.427140    6.275009
     69          1           0       19.642895   -1.324882    5.719397
     70          1           0       19.836895    1.153960    4.304034
     71          1           0       19.649394    1.359330    6.030048
     72          1           0       18.456725    0.468703    5.052987
     73          1           0       17.620311   -5.514565    2.267328
     74          1           0       16.264318   -4.502286    2.828165
     75          1           0       17.964700   -4.351193    3.523191
     76          1           0       15.250722   -1.524987   -1.256899
     77          1           0       13.471845   -4.359561   -4.257939
     78          1           0       15.272668   -4.732772   -4.393843
     79          1           0       14.592503   -3.507322   -5.264594
     80         12           0      -19.536531   -0.459955   -0.333462
     81          6           0      -18.927262    2.942434    0.378523
     82          6           0      -16.104250   -1.053940   -0.148232
     83          6           0      -20.250593   -3.774958    0.006029
     84          6           0      -23.017055    0.297516    0.043428
     85          7           0      -17.777986    0.799737    0.028769
     86          6           0      -17.769034    2.118584    0.316664
     87          6           0      -16.325432    2.608026    0.664000
     88          6           0      -15.467760    1.381493    0.104785
     89          6           0      -16.528816    0.246537   -0.065884
     90          6           0      -14.712572    1.489873   -1.239335
     91          6           0      -16.220148    2.819823    2.221654
     92          6           0      -15.325034    4.019633    2.638670
     93          1           0      -14.398523    3.775228    3.898629
     94          7           0      -18.318467   -2.247802   -0.303373
     95          6           0      -16.949134   -2.224430   -0.283679
     96          6           0      -16.521083   -3.570976   -0.325946
     97          6           0      -17.659682   -4.423160   -0.214113
     98          6           0      -18.845932   -3.502974   -0.215681
     99          6           0      -15.079930   -4.020063   -0.379323
    100          6           0      -17.655705   -5.895458    0.019468
    101          8           0      -16.621647   -6.516751    0.205107
    102          6           0      -18.834307   -6.716237    0.119703
    103          7           0      -21.419055   -1.555320    0.095627
    104          6           0      -21.415455   -2.955441    0.010319
    105          6           0      -22.814992   -3.486087    0.007910
    106          6           0      -23.727491   -2.206586    0.086387
    107          6           0      -22.703830   -1.084411    0.078184
    108          6           0      -23.024056   -4.336761   -1.251418
    109          6           0      -24.820814   -2.275708    1.218159
    110          6           0      -26.248481   -2.114919    0.791653
    111          7           0      -20.798198    1.279528    0.087451
    112          6           0      -22.164965    1.400708    0.144060
    113          6           0      -22.553094    2.824811    0.244155
    114          6           0      -21.274121    3.421402    0.402797
    115          6           0      -20.282174    2.477123    0.215453
    116          6           0      -23.935907    3.445119    0.368354
    117          6           0      -20.638130    4.663890    0.751952
    118          8           0      -21.139921    5.759218    1.049139
    119          6           0      -19.122696    4.465061    0.742191
    120          6           0      -18.464022    5.417975   -0.170613
    121          8           0      -17.649419    6.185531    0.195262
    122          8           0      -18.738224    5.192573   -1.488561
    123          6           0      -17.852294    6.001735   -2.353370
    124          1           0      -15.032499   -1.263828   -0.174172
    125          1           0      -20.409338   -4.854423    0.017247
    126          1           0      -24.013030    0.711188    0.218065
    127          1           0      -16.148116    3.541955    0.130389
    128          1           0      -14.867579    0.856577    0.847806
    129          1           0      -15.192317    2.225592   -1.885835
    130          1           0      -14.584598    0.563730   -1.799768
    131          1           0      -13.726575    1.880631   -0.990167
    132          1           0      -15.889949    1.905334    2.715202
    133          1           0      -17.246433    3.001380    2.540981
    134          1           0      -16.047027    4.809768    2.845604
    135          1           0      -14.801684    4.258814    1.712664
    136          1           0      -14.899823   -5.022366   -0.768187
    137          1           0      -14.756733   -3.952400    0.659107
    138          1           0      -14.362821   -3.310980   -0.792960
    139          1           0      -19.354232   -6.636516   -0.835840
    140          1           0      -19.453011   -6.416329    0.965981
    141          1           0      -18.522670   -7.746958    0.289062
    142          1           0      -23.026630   -4.013559    0.937701
    143          1           0      -24.212107   -1.874506   -0.832012
    144          1           0      -22.092094   -4.607157   -1.748433
    145          1           0      -23.611692   -3.808656   -2.002344
    146          1           0      -23.363946   -5.331562   -0.964948
    147          1           0      -24.539128   -1.486841    1.915623
    148          1           0      -24.893317   -3.247993    1.704136
    149          1           0      -26.668645   -1.301095    1.382018
    150          1           0      -26.842716   -2.999860    1.020150
    151          1           0      -26.365577   -2.009391   -0.286932
    152          1           0      -24.314544    3.428594    1.390544
    153          1           0      -24.662537    3.019228   -0.324690
    154          1           0      -23.708791    4.491145    0.162939
    155          1           0      -18.710608    4.746356    1.710440
    156          1           0      -18.112822    5.783349   -3.389330
    157          1           0      -16.805682    5.766461   -2.160604
    158          1           0      -18.028734    7.075370   -2.297815
 ---------------------------------------------------------------------

 SCF Done:  E(RCAM-B3LYP) =  -4069.77865490     A.U. after   19 cycles

 Excitation energies and oscillator strengths:

 Excited State   1:      Singlet-A      1.6804 eV  737.82 nm  f=0.4064  <S**2>=0.000
     309 -> 315       -0.17287
     311 -> 313        0.68699
     309 <- 315       -0.10657
 This state for optimization and/or second-order correction.
 Total Energy, E(TD-HF/TD-DFT) =  -4069.71690121
 Copying the excited state density for this state as the 1-particle RhoCI density.

 Excited State   2:      Singlet-A      1.7683 eV  701.14 nm  f=0.3774  <S**2>=0.000
     310 -> 316       -0.19166
     312 -> 314        0.68180
     310 <- 316       -0.10600

 Excited State   3:      Singlet-A      2.2017 eV  563.13 nm  f=0.1138  <S**2>=0.000
     309 -> 313        0.64203
     311 -> 315        0.28117

 Excited State   4:      Singlet-A      2.2756 eV  544.83 nm  f=0.0578  <S**2>=0.000
     310 -> 314        0.61594
     312 -> 316        0.33785

 Excited State   5:      Singlet-A      2.8126 eV  440.82 nm  f=0.0000  <S**2>=0.000
     312 -> 313        0.70710

 The electronic state is 1-A.
 Alpha  occ. eigenvalues --  -46.90846 -46.87951 -19.25127 -19.23905 -19.19931
 Alpha  occ. eigenvalues --  -19.19930 -19.18855 -19.18332 -19.17644 -19.17326
 Alpha  occ. eigenvalues --  -14.42984 -14.42712 -14.41703 -14.41054 -14.39995
 Alpha  occ. eigenvalues --  -14.39915 -14.39310 -14.38743 -10.38744 -10.38247
 Alpha  occ. eigenvalues --  -10.35960 -10.34784 -10.33539 -10.33510 -10.32253
 Alpha  occ. eigenvalues --  -10.31993 -10.31869 -10.31837 -10.31073 -10.30999
 Alpha  occ. eigenvalues --  -10.30822 -10.30650 -10.30578 -10.30445 -10.30237
 Alpha  occ. eigenvalues --  -10.30192 -10.30129 -10.29868 -10.29317 -10.29092
 Alpha  occ. eigenvalues --  -10.29044 -10.29026 -10.28960 -10.28921 -10.28919
 Alpha  occ. eigenvalues --  -10.28784 -10.28711 -10.28517 -10.28469 -10.28433
 Alpha  occ. eigenvalues --  -10.28179 -10.28159 -10.28057 -10.27846 -10.27821
 Alpha  occ. eigenvalues --  -10.27805 -10.27757 -10.27757 -10.27742 -10.27586
 Alpha  occ. eigenvalues --  -10.27553 -10.27549 -10.27489 -10.27484 -10.27320
 Alpha  occ. eigenvalues --  -10.27233 -10.27051 -10.26977 -10.26820 -10.26669
 Alpha  occ. eigenvalues --  -10.26525 -10.26517 -10.26489 -10.26402 -10.26256
 Alpha  occ. eigenvalues --  -10.26034 -10.26033 -10.25892 -10.25759 -10.25558
 Alpha  occ. eigenvalues --  -10.25459 -10.25295 -10.25264 -10.25208 -10.25049
 Alpha  occ. eigenvalues --  -10.24054  -3.18993  -3.16806  -1.93907  -1.93429
 Alpha  occ. eigenvalues --   -1.93289  -1.91671  -1.91275  -1.91139  -1.17987
 Alpha  occ. eigenvalues --   -1.14835  -1.11523  -1.09558  -1.09055  -1.08995
 Alpha  occ. eigenvalues --   -1.08967  -1.05914  -1.05582  -1.05124  -1.04692
 Alpha  occ. eigenvalues --   -1.04106  -1.03760  -1.03445  -1.02989  -1.02545
 Alpha  occ. eigenvalues --   -0.92640  -0.92334  -0.89623  -0.89433  -0.89030
 Alpha  occ. eigenvalues --   -0.88414  -0.88247  -0.88073  -0.88019  -0.87953
 Alpha  occ. eigenvalues --   -0.87461  -0.87025  -0.86551  -0.85832  -0.84891
 Alpha  occ. eigenvalues --   -0.84666  -0.84367  -0.83578  -0.82724  -0.82705
 Alpha  occ. eigenvalues --   -0.82597  -0.82523  -0.81057  -0.80939  -0.80564
 Alpha  occ. eigenvalues --   -0.80519  -0.79018  -0.78670  -0.77625  -0.77457
 Alpha  occ. eigenvalues --   -0.76976  -0.76879  -0.76508  -0.75696  -0.75442
 Alpha  occ. eigenvalues --   -0.75203  -0.73156  -0.72634  -0.72530  -0.71680
 Alpha  occ. eigenvalues --   -0.69636  -0.69385  -0.69276  -0.69022  -0.68144
 Alpha  occ. eigenvalues --   -0.67970  -0.67310  -0.66910  -0.66362  -0.65725
 Alpha  occ. eigenvalues --   -0.65409  -0.65007  -0.64967  -0.64740  -0.64661
 Alpha  occ. eigenvalues --   -0.63755  -0.63323  -0.61706  -0.61111  -0.60091
 Alpha  occ. eigenvalues --   -0.60035  -0.59312  -0.59278  -0.59005  -0.58899
 Alpha  occ. eigenvalues --   -0.58322  -0.57921  -0.57795  -0.57544  -0.57090
 Alpha  occ. eigenvalues --   -0.56522  -0.56298  -0.56093  -0.55567  -0.55309
 Alpha  occ. eigenvalues --   -0.55148  -0.55113  -0.54664  -0.54566  -0.54412
 Alpha  occ. eigenvalues --   -0.53630  -0.53519  -0.53394  -0.53208  -0.53200
 Alpha  occ. eigenvalues --   -0.52836  -0.52664  -0.52618  -0.52614  -0.52433
 Alpha  occ. eigenvalues --   -0.52289  -0.52277  -0.51770  -0.51625  -0.51483
 Alpha  occ. eigenvalues --   -0.51345  -0.51252  -0.50901  -0.50604  -0.50456
 Alpha  occ. eigenvalues --   -0.50225  -0.50057  -0.49868  -0.49577  -0.49494
 Alpha  occ. eigenvalues --   -0.49328  -0.49278  -0.49086  -0.49051  -0.48771
 Alpha  occ. eigenvalues --   -0.48631  -0.48567  -0.48408  -0.48218  -0.48057
 Alpha  occ. eigenvalues --   -0.48006  -0.47779  -0.47539  -0.47340  -0.47163
 Alpha  occ. eigenvalues --   -0.46973  -0.46805  -0.46792  -0.46692  -0.46650
 Alpha  occ. eigenvalues --   -0.46506  -0.46368  -0.46343  -0.45769  -0.45701
 Alpha  occ. eigenvalues --   -0.45475  -0.45243  -0.45147  -0.45101  -0.44866
 Alpha  occ. eigenvalues --   -0.44821  -0.44693  -0.44504  -0.44363  -0.44109
 Alpha  occ. eigenvalues --   -0.44025  -0.43904  -0.43826  -0.43604  -0.43459
 Alpha  occ. eigenvalues --   -0.43340  -0.43167  -0.43014  -0.42903  -0.42892
 Alpha  occ. eigenvalues --   -0.42841  -0.42657  -0.42431  -0.42310  -0.42132
 Alpha  occ. eigenvalues --   -0.41839  -0.41794  -0.41568  -0.41285  -0.41244
 Alpha  occ. eigenvalues --   -0.41053  -0.41037  -0.40802  -0.40742  -0.40514
 Alpha  occ. eigenvalues --   -0.40145  -0.39644  -0.39582  -0.39246  -0.39200
 Alpha  occ. eigenvalues --   -0.38686  -0.38461  -0.38189  -0.37911  -0.37651
 Alpha  occ. eigenvalues --   -0.37247  -0.36996  -0.36900  -0.36442  -0.36412
 Alpha  occ. eigenvalues --   -0.36267  -0.35145  -0.34935  -0.34352  -0.34144
 Alpha  occ. eigenvalues --   -0.33502  -0.33272  -0.32934  -0.32489  -0.31504
 Alpha  occ. eigenvalues --   -0.31357  -0.30985  -0.30709  -0.30401  -0.30084
 Alpha  occ. eigenvalues --   -0.30014  -0.29704  -0.29207  -0.24519  -0.23806
 Alpha  occ. eigenvalues --   -0.21584  -0.20601
 Alpha virt. eigenvalues --   -0.09393  -0.07822  -0.02262  -0.01746   0.00229
 Alpha virt. eigenvalues --    0.00275   0.01203   0.02284   0.02421   0.03031
 Alpha virt. eigenvalues --    0.04678   0.05029   0.05434   0.06074   0.06117

 Mulliken charges:
               1
     1  Mg  12.000016
     2  C    6.000236
     3  C    5.999893
     4  C    5.999777
     5  C    6.000021
     6  N    7.000078
     7  C    5.999669
     8  C    6.000116
     9  C    5.999897
    10  C    6.000280
    11  C    5.999966
    12  C    6.000034
    13  C    6.000032
    14  H    0.999946
    15  N    6.999980
    16  C    6.000327
    17  C    6.000218
    18  C    6.000173
    19  C    6.000321
    20  C    5.999919
    21  C    6.000150
    22  O    8.000266
    23  C    5.999917
    24  N    6.999952
    25  C    6.000334
    26  C    5.999900
    27  C    6.000049
    28  C    5.999799
    29  C    5.999993
    30  C    6.000082
    31  C    6.000048
    32  N    6.999978
    33  C    5.999747
    34  C    5.999703
    35  C    5.999916
    36  C    5.999772
    37  C    6.000075
    38  C    5.999795
    39  O    7.999558
    40  C    5.999997
    41  C    5.999966
    42  O    7.999964
    43  O    7.999967
    44  C    6.000071
    45  H    1.000153
    46  H    1.000119
    47  H    0.999869
    48  H    0.999955
    49  H    1.000043
    50  H    1.000032
    51  H    1.000054
    52  H    1.000085
    53  H    0.999956
    54  H    1.000021
    55  H    0.999967
    56  H    0.999940
    57  H    1.000197
    58  H    1.000220
    59  H    1.000146
    60  H    1.000079
    61  H    1.000059
    62  H    1.000210
    63  H    1.000021
    64  H    1.000001
    65  H    0.999988
    66  H    1.000107
    67  H    1.000073
    68  H    0.999941
    69  H    0.999998
    70  H    0.999883
    71  H    0.999995
    72  H    0.999999
    73  H    0.999765
    74  H    0.999733
    75  H    0.999865
    76  H    0.999874
    77  H    0.999818
    78  H    0.999995
    79  H    0.999943
    80  Mg  12.001650
    81  C    6.025568
    82  C    5.980112
    83  C    5.976719
    84  C    6.008860
    85  N    7.003710
    86  C    5.962576
    87  C    6.008332
    88  C    5.997559
    89  C    6.031303
    90  C    5.990899
    91  C    6.002028
    92  C    6.001153
    93  H    0.992105
    94  N    6.986319
    95  C    6.052364
    96  C    6.019275
    97  C    6.008146
    98  C    6.052643
    99  C    5.994803
   100  C    6.011381
   101  O    8.021756
   102  C    5.994541
   103  N    6.998873
   104  C    6.035228
   105  C    5.986497
   106  C    6.008176
   107  C    5.966664
   108  C    5.997047
   109  C    6.000567
   110  C    6.002358
   111  N    7.005019
   112  C    5.958121
   113  C    5.967040
   114  C    5.998586
   115  C    5.965881
   116  C    6.001455
   117  C    5.984119
   118  O    7.967730
   119  C    6.001009
   120  C    5.995212
   121  O    7.991541
   122  O    8.003926
   123  C    6.003162
   124  H    1.009781
   125  H    1.007254
   126  H    0.991975
   127  H    1.001769
   128  H    0.996696
   129  H    1.014676
   130  H    0.994575
   131  H    1.008494
   132  H    0.987588
   133  H    1.008385
   134  H    1.005008
   135  H    0.996613
   136  H    1.016180
   137  H    1.022114
   138  H    1.022125
   139  H    1.009743
   140  H    1.011627
   141  H    1.013360
   142  H    1.003065
   143  H    1.004262
   144  H    0.992089
   145  H    1.011117
   146  H    1.002504
   147  H    1.002952
   148  H    0.988313
   149  H    1.002176
   150  H    0.993635
   151  H    0.997655
   152  H    0.977739
   153  H    0.980787
   154  H    0.986838
   155  H    0.991064
   156  H    0.995655
   157  H    0.992471
   158  H    0.997702
 Sum of Mulliken charges = 624.00000

 Dipole moment (field-independent basis, Debye):
    X=              6.6259    Y=             -9.0873    Z=             -1.0332  Tot=             11.2938
 Quadrupole moment (field-independent basis, Debye-Ang):
   XX=           -253.8451   YY=              7.2577   ZZ=             -0.9059
   XY=            176.4165   XZ=             19.3058   YZ=             -0.8225

 Normal termination of Gaussian 16 at Tue Sep 21 16:50:19 2021.
