 Gaussian 16, Revision A.03,
 Gaussian 16:  ES64L-G16RevA.03 25-Dec-2016

 -----------------------------------
 #p cam-b3lyp/Def2SVP td=(nstates=5)
 -----------------------------------

 --------------------------------
 TDDFT excited states in gaussian
 --------------------------------
 Symbolic Z-matrix:
 Charge =  0 Multiplicity = 1

                         Standard orientation:
 ---------------------------------------------------------------------
 Center     Atomic      Atomic             Coordinates (Angstroms)
 Number     Number       Type             X           Y           Z
 ---------------------------------------------------------------------
      1         12           0      -30.579239    0.306085    0.207378
      2          6           0      -27.778468   -1.648197   -0.409747
      3          6           0      -31.835579   -0.512525   -2.813485
      4          6           0      -33.143748    2.360827    0.844723
      5          6           0      -29.117234    1.223552    3.254142
      6          7           0      -29.828076   -0.991063   -1.385934
      7          6           0      -28.754525   -1.744247   -1.407221
      8          6           0      -28.765527   -2.558987   -2.781829
      9          6           0      -29.550149   -1.565254   -3.612082
     10          6           0      -30.528914   -0.983180   -2.543188
     11          6           0      -28.594318   -0.555734   -4.283622
     12          6           0      -29.284140   -4.043070   -2.549883
     13          6           0      -28.897503   -5.033394   -3.652671
     14          1           0      -28.292087   -4.497425   -4.938515
     15          7           0      -32.318695    0.705711   -0.745586
     16          6           0      -32.689487    0.188448   -1.984574
     17          6           0      -34.119900    0.552561   -2.213692
     18          6           0      -34.512797    1.474654   -1.152609
     19          6           0      -33.256308    1.578336   -0.363994
     20          6           0      -34.909326    0.059538   -3.403215
     21          6           0      -35.910633    2.178661   -0.829039
     22          8           0      -36.108611    2.885523    0.164961
     23          6           0      -37.036306    1.925534   -1.810057
     24          7           0      -31.000624    1.655196    1.718731
     25          6           0      -32.102642    2.398974    1.764475
     26          6           0      -32.112464    3.392061    2.967384
     27          6           0      -30.959276    2.814740    3.800688
     28          6           0      -30.328733    1.785320    2.916382
     29          6           0      -31.940015    4.886579    2.577039
     30          6           0      -31.256956    2.368187    5.300957
     31          6           0      -31.381145    0.904827    5.571865
     32          7           0      -28.735246    0.070297    1.162993
     33          6           0      -28.308806    0.431634    2.396483
     34          6           0      -26.993397   -0.016006    2.686750
     35          6           0      -26.719653   -0.877226    1.577937
     36          6           0      -27.809175   -0.759007    0.745538
     37          6           0      -26.022077    0.240290    3.809722
     38          6           0      -25.800074   -1.789843    0.966454
     39          8           0      -24.705710   -2.186755    1.304260
     40          6           0      -26.484542   -2.461700   -0.266420
     41          6           0      -25.594271   -2.378473   -1.428148
     42          8           0      -25.232649   -1.311762   -1.901154
     43          8           0      -25.055172   -3.627798   -1.828573
     44          6           0      -24.063985   -3.584781   -2.915086
     45          1           0      -32.175591   -0.747991   -3.823026
     46          1           0      -33.972564    3.053108    1.002000
     47          1           0      -28.671850    1.570827    4.188378
     48          1           0      -27.744780   -2.697330   -3.135697
     49          1           0      -30.197109   -2.018257   -4.362886
     50          1           0      -28.699770   -0.809693   -5.338905
     51          1           0      -27.557990   -0.672578   -3.963924
     52          1           0      -29.044197    0.425382   -4.133177
     53          1           0      -30.372174   -4.052691   -2.479247
     54          1           0      -28.775176   -4.377891   -1.645728
     55          1           0      -29.798227   -5.598126   -3.891270
     56          1           0      -28.201295   -5.743028   -3.206336
     57          1           0      -34.600846   -0.944150   -3.697930
     58          1           0      -34.899732    0.680869   -4.298148
     59          1           0      -35.950581   -0.051021   -3.100819
     60          1           0      -36.592614    2.176257   -2.773289
     61          1           0      -37.900251    2.578294   -1.688544
     62          1           0      -37.384157    0.896732   -1.715521
     63          1           0      -33.051074    3.338806    3.518782
     64          1           0      -30.184027    3.579952    3.786349
     65          1           0      -31.242422    5.290622    3.311073
     66          1           0      -32.842781    5.494083    2.536361
     67          1           0      -31.557011    4.920525    1.557074
     68          1           0      -32.117684    2.931335    5.661852
     69          1           0      -30.403666    2.636510    5.923436
     70          1           0      -30.524026    0.613418    6.179392
     71          1           0      -31.227838    0.242488    4.718971
     72          1           0      -32.269582    0.622397    6.136783
     73          1           0      -26.388521    0.987897    4.514100
     74          1           0      -25.042045    0.461038    3.385753
     75          1           0      -25.861758   -0.579150    4.510708
     76          1           0      -26.711444   -3.511301   -0.081343
     77          1           0      -23.790335   -4.555320   -3.328199
     78          1           0      -23.202393   -3.113145   -2.441737
     79          1           0      -24.471904   -2.890123   -3.648415
     80         12           0       30.650381    0.117186   -0.378321
     81          6           0       27.453010   -0.363301    0.923796
     82          6           0       29.745487    3.309822   -1.312568
     83          6           0       33.742394    0.388453   -1.443294
     84          6           0       31.750009   -2.761390    1.567741
     85          7           0       28.688726    1.312158   -0.234870
     86          6           0       27.519728    0.932104    0.362311
     87          6           0       26.480313    1.986086    0.215756
     88          6           0       27.242800    3.188686   -0.470619
     89          6           0       28.687360    2.602197   -0.717794
     90          6           0       26.510967    3.810665   -1.686518
     91          6           0       25.845557    2.403317    1.564621
     92          6           0       24.321160    2.337024    1.489292
     93          1           0       23.524311    3.608589    1.910195
     94          7           0       31.605101    1.641399   -1.291404
     95          6           0       31.074090    2.880582   -1.646338
     96          6           0       32.137433    3.564998   -2.370430
     97          6           0       33.329658    2.706450   -2.457698
     98          6           0       32.911824    1.448100   -1.762540
     99          6           0       32.047567    4.954375   -2.762091
    100          6           0       34.615253    3.194382   -2.984398
    101          8           0       34.786637    4.301953   -3.448988
    102          6           0       35.886045    2.421234   -2.919616
    103          7           0       32.410457   -0.972494    0.044396
    104          6           0       33.502880   -0.805206   -0.768428
    105          6           0       34.596241   -1.777451   -0.378655
    106          6           0       34.101796   -2.398700    0.873860
    107          6           0       32.711022   -1.997929    0.900460
    108          6           0       35.051207   -2.771902   -1.524034
    109          6           0       34.764961   -1.802242    2.162602
    110          6           0       34.889198   -2.695868    3.308811
    111          7           0       29.809176   -1.332072    0.965773
    112          6           0       30.339014   -2.456699    1.611828
    113          6           0       29.265269   -3.245734    2.128902
    114          6           0       28.128691   -2.470274    1.932479
    115          6           0       28.515564   -1.267324    1.240818
    116          6           0       29.446337   -4.568057    2.778111
    117          6           0       26.744737   -2.393049    2.184079
    118          8           0       26.009980   -3.173275    2.747472
    119          6           0       26.247715   -1.092971    1.513428
    120          6           0       25.185963   -1.425141    0.550202
    121          8           0       25.361288   -1.764552   -0.632195
    122          8           0       23.972067   -1.459294    1.197323
    123          6           0       22.745400   -1.667416    0.445164
    124          1           0       29.371172    4.283210   -1.634683
    125          1           0       34.807716    0.370526   -1.686460
    126          1           0       32.119904   -3.632028    2.113331
    127          1           0       25.851492    1.627673   -0.599729
    128          1           0       27.364707    4.054654    0.179300
    129          1           0       25.486893    3.464540   -1.541481
    130          1           0       26.932503    3.602312   -2.669935
    131          1           0       26.512604    4.897172   -1.602821
    132          1           0       26.022023    3.444081    1.835606
    133          1           0       26.256132    1.727466    2.314571
    134          1           0       24.139848    1.613685    2.284144
    135          1           0       24.063650    1.937399    0.509540
    136          1           0       31.058176    5.318572   -2.484562
    137          1           0       32.099007    5.153632   -3.832909
    138          1           0       32.786485    5.533716   -2.207381
    139          1           0       35.522472    1.462983   -3.290702
    140          1           0       36.197062    2.349535   -1.877059
    141          1           0       36.643037    2.847604   -3.578205
    142          1           0       35.451456   -1.125010   -0.206397
    143          1           0       34.055082   -3.486779    0.919776
    144          1           0       34.624446   -2.472487   -2.481465
    145          1           0       34.924077   -3.829901   -1.292093
    146          1           0       36.103767   -2.669815   -1.786763
    147          1           0       34.225567   -0.902203    2.457958
    148          1           0       35.779031   -1.463620    1.950822
    149          1           0       35.821208   -3.254276    3.214900
    150          1           0       34.028015   -3.356509    3.414218
    151          1           0       35.114722   -2.114568    4.203446
    152          1           0       30.215391   -5.152724    2.273493
    153          1           0       28.527391   -5.147896    2.865758
    154          1           0       29.881270   -4.318382    3.745936
    155          1           0       25.701205   -0.444683    2.198502
    156          1           0       22.533211   -2.656834    0.039906
    157          1           0       22.676520   -0.925159   -0.349821
    158          1           0       21.958433   -1.526799    1.185187
 ---------------------------------------------------------------------

 SCF Done:  E(RCAM-B3LYP) =  -4069.79128483     A.U. after   18 cycles

 Excitation energies and oscillator strengths:

 Excited State   1:      Singlet-A      1.6751 eV  740.15 nm  f=0.3681  <S**2>=0.000
     309 -> 315       -0.18827
     311 -> 313        0.68340
     309 <- 315       -0.11090
 This state for optimization and/or second-order correction.
 Total Energy, E(TD-HF/TD-DFT) =  -4069.72972530
 Copying the excited state density for this state as the 1-particle RhoCI density.

 Excited State   2:      Singlet-A      1.7356 eV  714.38 nm  f=0.3931  <S**2>=0.000
     310 -> 316        0.17783
     312 -> 314        0.68647
     310 <- 316        0.10692

 Excited State   3:      Singlet-A      2.1859 eV  567.20 nm  f=0.1027  <S**2>=0.000
     309 -> 313        0.63557
     311 -> 315        0.29757

 Excited State   4:      Singlet-A      2.2152 eV  559.70 nm  f=0.1503  <S**2>=0.000
     310 -> 314        0.65503
     312 -> 316       -0.25742

 Excited State   5:      Singlet-A      3.1744 eV  390.57 nm  f=0.0000  <S**2>=0.000
     312 -> 313        0.70711

 The electronic state is 1-A.
 Alpha  occ. eigenvalues --  -46.88940 -46.87766 -19.24864 -19.23915 -19.20480
 Alpha  occ. eigenvalues --  -19.19489 -19.19360 -19.18353 -19.17904 -19.17378
 Alpha  occ. eigenvalues --  -14.42322 -14.42015 -14.41927 -14.41462 -14.40265
 Alpha  occ. eigenvalues --  -14.40112 -14.39166 -14.38635 -10.39086 -10.38875
 Alpha  occ. eigenvalues --  -10.37238 -10.34206 -10.34108 -10.33702 -10.31672
 Alpha  occ. eigenvalues --  -10.31617 -10.31569 -10.31566 -10.31332 -10.31140
 Alpha  occ. eigenvalues --  -10.31066 -10.31059 -10.31048 -10.31000 -10.30594
 Alpha  occ. eigenvalues --  -10.30470 -10.30458 -10.30310 -10.29863 -10.29853
 Alpha  occ. eigenvalues --  -10.29089 -10.29017 -10.28980 -10.28823 -10.28672
 Alpha  occ. eigenvalues --  -10.28551 -10.28544 -10.28368 -10.28312 -10.28216
 Alpha  occ. eigenvalues --  -10.28122 -10.28121 -10.28098 -10.27965 -10.27959
 Alpha  occ. eigenvalues --  -10.27951 -10.27807 -10.27630 -10.27593 -10.27551
 Alpha  occ. eigenvalues --  -10.27357 -10.27295 -10.27292 -10.27244 -10.27205
 Alpha  occ. eigenvalues --  -10.27171 -10.27165 -10.27137 -10.27064 -10.26792
 Alpha  occ. eigenvalues --  -10.26765 -10.26462 -10.26438 -10.26333 -10.26219
 Alpha  occ. eigenvalues --  -10.25896 -10.25765 -10.25745 -10.25672 -10.25582
 Alpha  occ. eigenvalues --  -10.25549 -10.25184 -10.24861 -10.24719 -10.24524
 Alpha  occ. eigenvalues --  -10.24185  -3.17429  -3.16531  -1.92332  -1.91893
 Alpha  occ. eigenvalues --   -1.91719  -1.91443  -1.90951  -1.90879  -1.15444
 Alpha  occ. eigenvalues --   -1.14500  -1.10487  -1.10053  -1.09840  -1.09577
 Alpha  occ. eigenvalues --   -1.06745  -1.06704  -1.05586  -1.04982  -1.04730
 Alpha  occ. eigenvalues --   -1.04150  -1.03798  -1.03164  -1.02984  -1.01569
 Alpha  occ. eigenvalues --   -0.92649  -0.92133  -0.90762  -0.89588  -0.89211
 Alpha  occ. eigenvalues --   -0.89047  -0.88583  -0.88287  -0.87705  -0.87298
 Alpha  occ. eigenvalues --   -0.87238  -0.87122  -0.86293  -0.86264  -0.85260
 Alpha  occ. eigenvalues --   -0.84540  -0.84335  -0.83667  -0.83452  -0.82764
 Alpha  occ. eigenvalues --   -0.82569  -0.82568  -0.81406  -0.80956  -0.80820
 Alpha  occ. eigenvalues --   -0.80072  -0.78667  -0.78590  -0.77972  -0.77245
 Alpha  occ. eigenvalues --   -0.77116  -0.76665  -0.76302  -0.75861  -0.75379
 Alpha  occ. eigenvalues --   -0.75073  -0.73406  -0.72820  -0.72030  -0.71179
 Alpha  occ. eigenvalues --   -0.69334  -0.69254  -0.69105  -0.68754  -0.67988
 Alpha  occ. eigenvalues --   -0.67934  -0.67512  -0.66619  -0.66463  -0.65926
 Alpha  occ. eigenvalues --   -0.65271  -0.65056  -0.64679  -0.64667  -0.64193
 Alpha  occ. eigenvalues --   -0.64005  -0.62028  -0.61252  -0.60735  -0.60638
 Alpha  occ. eigenvalues --   -0.59590  -0.59492  -0.59461  -0.59131  -0.58957
 Alpha  occ. eigenvalues --   -0.58019  -0.57982  -0.57912  -0.57622  -0.57407
 Alpha  occ. eigenvalues --   -0.56402  -0.55893  -0.55803  -0.55674  -0.55478
 Alpha  occ. eigenvalues --   -0.55442  -0.55140  -0.54790  -0.54428  -0.54237
 Alpha  occ. eigenvalues --   -0.53993  -0.53690  -0.53361  -0.53189  -0.52998
 Alpha  occ. eigenvalues --   -0.52828  -0.52662  -0.52544  -0.52338  -0.52287
 Alpha  occ. eigenvalues --   -0.52138  -0.52091  -0.51800  -0.51737  -0.51677
 Alpha  occ. eigenvalues --   -0.51280  -0.51226  -0.51212  -0.50727  -0.50696
 Alpha  occ. eigenvalues --   -0.50410  -0.50348  -0.50002  -0.49892  -0.49653
 Alpha  occ. eigenvalues --   -0.49506  -0.49382  -0.49236  -0.49114  -0.49009
 Alpha  occ. eigenvalues --   -0.48846  -0.48810  -0.48558  -0.48547  -0.48503
 Alpha  occ. eigenvalues --   -0.48500  -0.47758  -0.47617  -0.47380  -0.47129
 Alpha  occ. eigenvalues --   -0.46995  -0.46879  -0.46785  -0.46596  -0.46457
 Alpha  occ. eigenvalues --   -0.46310  -0.46292  -0.46205  -0.46024  -0.45789
 Alpha  occ. eigenvalues --   -0.45734  -0.45574  -0.45301  -0.44946  -0.44929
 Alpha  occ. eigenvalues --   -0.44646  -0.44581  -0.44474  -0.44327  -0.44044
 Alpha  occ. eigenvalues --   -0.44012  -0.43947  -0.43679  -0.43446  -0.43423
 Alpha  occ. eigenvalues --   -0.43323  -0.43226  -0.43225  -0.43058  -0.42979
 Alpha  occ. eigenvalues --   -0.42962  -0.42559  -0.42480  -0.42081  -0.42069
 Alpha  occ. eigenvalues --   -0.41795  -0.41660  -0.41577  -0.41410  -0.41330
 Alpha  occ. eigenvalues --   -0.41165  -0.41028  -0.40973  -0.40668  -0.40527
 Alpha  occ. eigenvalues --   -0.40260  -0.40219  -0.39976  -0.39208  -0.39187
 Alpha  occ. eigenvalues --   -0.38480  -0.38195  -0.38058  -0.37732  -0.37568
 Alpha  occ. eigenvalues --   -0.37327  -0.36967  -0.36624  -0.36380  -0.36314
 Alpha  occ. eigenvalues --   -0.36151  -0.35626  -0.34441  -0.34343  -0.33938
 Alpha  occ. eigenvalues --   -0.33708  -0.33253  -0.33024  -0.32196  -0.31379
 Alpha  occ. eigenvalues --   -0.31154  -0.30673  -0.30507  -0.30183  -0.29876
 Alpha  occ. eigenvalues --   -0.29654  -0.29561  -0.29436  -0.24305  -0.23897
 Alpha  occ. eigenvalues --   -0.21571  -0.21393
 Alpha virt. eigenvalues --   -0.09159  -0.08837  -0.02508  -0.01256  -0.00018
 Alpha virt. eigenvalues --    0.00254   0.02353   0.02473   0.02680   0.03503
 Alpha virt. eigenvalues --    0.04092   0.04794   0.04997   0.05324   0.05464

 Mulliken charges:
               1
     1  Mg   0.842524
     2  C   -0.021649
     3  C   -0.078582
     4  C   -0.075107
     5  C   -0.111277
     6  N   -0.243030
     7  C   -0.062017
     8  C   -0.047412
     9  C   -0.052433
    10  C    0.015687
    11  C    0.105871
    12  C    0.057334
    13  C   -0.053899
    14  H    0.023569
    15  N   -0.393528
    16  C    0.179558
    17  C   -0.141558
    18  C   -0.075168
    19  C    0.104611
    20  C    0.096175
    21  C    0.057905
    22  O   -0.196828
    23  C    0.033356
    24  N   -0.301804
    25  C    0.062637
    26  C   -0.047744
    27  C    0.014872
    28  C    0.029765
    29  C    0.068819
    30  C    0.044635
    31  C    0.006252
    32  N   -0.283322
    33  C    0.112481
    34  C   -0.165606
    35  C    0.022718
    36  C    0.067164
    37  C    0.123698
    38  C    0.018817
    39  O   -0.167211
    40  C    0.053346
    41  C    0.179857
    42  O   -0.224401
    43  O   -0.371077
    44  C    0.187049
    45  H   -0.022518
    46  H   -0.009366
    47  H   -0.032031
    48  H   -0.002133
    49  H   -0.022979
    50  H    0.012576
    51  H    0.048811
    52  H    0.014414
    53  H    0.011121
    54  H    0.016544
    55  H    0.022744
    56  H    0.030180
    57  H    0.017733
    58  H    0.042057
    59  H    0.008705
    60  H    0.038374
    61  H    0.029186
    62  H    0.060240
    63  H    0.009236
    64  H    0.004404
    65  H    0.017338
    66  H    0.022860
    67  H    0.019453
    68  H    0.008878
    69  H    0.003213
    70  H   -0.003658
    71  H    0.027804
    72  H    0.017081
    73  H   -0.005941
    74  H    0.043974
    75  H    0.023718
    76  H    0.037103
    77  H    0.045001
    78  H    0.038815
    79  H    0.032019
    80  Mg   0.816009
    81  C    0.061261
    82  C   -0.041723
    83  C   -0.115237
    84  C   -0.090465
    85  N   -0.274133
    86  C   -0.072843
    87  C    0.029104
    88  C   -0.105827
    89  C    0.020209
    90  C    0.061871
    91  C    0.063533
    92  C   -0.082829
    93  H    0.023015
    94  N   -0.454296
    95  C    0.183543
    96  C   -0.155251
    97  C   -0.020258
    98  C    0.249195
    99  C    0.147988
   100  C   -0.059494
   101  O   -0.208404
   102  C    0.069713
   103  N   -0.300532
   104  C    0.044364
   105  C   -0.028479
   106  C   -0.022874
   107  C    0.032440
   108  C    0.076707
   109  C    0.046896
   110  C    0.037673
   111  N   -0.321476
   112  C    0.100618
   113  C   -0.177551
   114  C    0.038594
   115  C    0.077950
   116  C    0.134575
   117  C    0.030844
   118  O   -0.149610
   119  C   -0.065419
   120  C    0.186046
   121  O   -0.240190
   122  O   -0.329525
   123  C    0.188534
   124  H   -0.024509
   125  H   -0.026460
   126  H   -0.025934
   127  H    0.025431
   128  H    0.016566
   129  H    0.017439
   130  H    0.029700
   131  H    0.010082
   132  H    0.027899
   133  H    0.028712
   134  H    0.041913
   135  H    0.032859
   136  H   -0.022419
   137  H    0.032747
   138  H    0.041389
   139  H    0.021176
   140  H    0.040048
   141  H    0.031066
   142  H    0.007549
   143  H    0.001021
   144  H    0.012644
   145  H    0.023863
   146  H    0.005929
   147  H    0.014797
   148  H   -0.004823
   149  H    0.004476
   150  H    0.009397
   151  H    0.010866
   152  H    0.014701
   153  H    0.043143
   154  H    0.027827
   155  H    0.023743
   156  H    0.040294
   157  H    0.029979
   158  H    0.032618
 Sum of Mulliken charges =  -0.00000

 Dipole moment (field-independent basis, Debye):
    X=             -3.2515    Y=             -0.9311    Z=             -1.5311  Tot=              3.7126
 Quadrupole moment (field-independent basis, Debye-Ang):
   XX=           -119.9072   YY=           -515.4569   ZZ=           -498.2444
   XY=            -12.1742   XZ=            132.8615   YZ=             27.6035

 Normal termination of Gaussian 16 at Thu Sep 16 14:46:11 2021.
