 Gaussian 16, Revision A.03,
 Gaussian 16:  ES64L-G16RevA.03 25-Dec-2016

 ----------------------------------------------------------
 #p cam-b3lyp/Def2SVP td=(nstates=5) density=(transition=1)
 ----------------------------------------------------------

 --------------------------------
 TDDFT excited states in gaussian
 --------------------------------
 Symbolic Z-matrix:
 Charge =  0 Multiplicity = 1

                         Standard orientation:
 ---------------------------------------------------------------------
 Center     Atomic      Atomic             Coordinates (Angstroms)
 Number     Number       Type             X           Y           Z
 ---------------------------------------------------------------------
      1         12           0      -13.584388   -0.529058   -0.277973
      2          6           0      -12.065032    1.849431    1.663653
      3          6           0      -15.380604    1.845144   -1.806417
      4          6           0      -15.161783   -3.004570   -1.935326
      5          6           0      -11.996261   -3.078276    1.771080
      6          7           0      -13.882640    1.629216    0.127959
      7          6           0      -13.089621    2.410291    0.871330
      8          6           0      -13.477369    3.965180    0.677257
      9          6           0      -14.546985    3.835029   -0.470769
     10          6           0      -14.672059    2.321830   -0.739798
     11          6           0      -15.868220    4.570223   -0.172815
     12          6           0      -12.269973    4.871457    0.304200
     13          6           0      -12.561639    6.301386   -0.257180
     14          1           0      -12.366913    7.524191    0.717561
     15          7           0      -15.117086   -0.572699   -1.657790
     16          6           0      -15.650850    0.484094   -2.234204
     17          6           0      -16.604510    0.034182   -3.236849
     18          6           0      -16.665746   -1.391815   -3.244333
     19          6           0      -15.616027   -1.717943   -2.254134
     20          6           0      -17.533164    0.932404   -4.037129
     21          6           0      -17.578824   -2.345696   -4.007535
     22          8           0      -17.687021   -3.521971   -3.673320
     23          6           0      -18.347053   -1.823573   -5.170868
     24          7           0      -13.606263   -2.737925   -0.066370
     25          6           0      -14.298564   -3.505009   -0.900109
     26          6           0      -13.968231   -4.996288   -0.722720
     27          6           0      -12.831469   -4.918165    0.293044
     28          6           0      -12.843516   -3.494404    0.708365
     29          6           0      -15.109902   -5.946644   -0.332246
     30          6           0      -11.545232   -5.553278   -0.171261
     31          6           0      -11.046497   -6.793059    0.653502
     32          7           0      -12.289672   -0.634987    1.300645
     33          6           0      -11.652773   -1.720654    1.990336
     34          6           0      -10.679688   -1.234818    2.943817
     35          6           0      -10.838054    0.171127    2.794680
     36          6           0      -11.804949    0.459163    1.823225
     37          6           0       -9.648994   -1.941608    3.751543
     38          6           0      -10.175184    1.383537    3.204046
     39          8           0       -9.133873    1.631209    3.830293
     40          6           0      -10.965410    2.535627    2.635635
     41          6           0      -11.728826    3.219781    3.791063
     42          8           0      -12.336948    2.674189    4.724628
     43          8           0      -11.629685    4.567019    3.607578
     44          6           0      -12.265141    5.457745    4.629708
     45          1           0      -15.931394    2.523836   -2.461004
     46          1           0      -15.755247   -3.857512   -2.271112
     47          1           0      -11.455296   -3.896625    2.249611
     48          1           0      -13.940517    4.235286    1.625583
     49          1           0      -14.106985    4.254450   -1.375500
     50          1           0      -16.159804    5.079182   -1.090888
     51          1           0      -15.743058    5.342860    0.585859
     52          1           0      -16.641688    3.869156    0.141035
     53          1           0      -11.809815    4.386808   -0.556872
     54          1           0      -11.622935    5.004942    1.171089
     55          1           0      -13.630284    6.342946   -0.470322
     56          1           0      -11.910410    6.479204   -1.112280
     57          1           0      -17.376163    1.983459   -3.794879
     58          1           0      -18.568995    0.677707   -3.814208
     59          1           0      -17.394371    0.806715   -5.110176
     60          1           0      -17.614553   -1.291850   -5.778816
     61          1           0      -19.194356   -1.146361   -5.067719
     62          1           0      -18.800300   -2.614893   -5.766954
     63          1           0      -13.578764   -5.361103   -1.672542
     64          1           0      -13.135701   -5.503879    1.160320
     65          1           0      -14.912453   -6.846520   -0.914248
     66          1           0      -16.077755   -5.479283   -0.513148
     67          1           0      -15.183787   -6.145861    0.736798
     68          1           0      -10.799245   -4.780058    0.009637
     69          1           0      -11.567228   -5.875105   -1.212037
     70          1           0      -11.728506   -6.988356    1.481471
     71          1           0      -10.073782   -6.531371    1.071103
     72          1           0      -10.850227   -7.694043    0.072116
     73          1           0       -9.584806   -2.985865    3.446889
     74          1           0      -10.051935   -1.970207    4.763270
     75          1           0       -8.726691   -1.388022    3.569641
     76          1           0      -10.207742    3.189872    2.203937
     77          1           0      -13.279999    5.182764    4.918056
     78          1           0      -12.253462    6.516608    4.373420
     79          1           0      -11.679804    5.315368    5.537959
     80         12           0       13.785691   -0.651523   -0.040116
     81          6           0       11.973514    2.423089   -0.708513
     82          6           0       16.572089    1.241825   -0.167045
     83          6           0       15.363958   -3.377753    0.488590
     84          6           0       10.727357   -2.417687   -0.293352
     85          7           0       14.196416    1.696690   -0.387601
     86          6           0       13.315462    2.701278   -0.534494
     87          6           0       14.042992    4.058615   -0.490791
     88          6           0       15.517168    3.511035   -0.783178
     89          6           0       15.447793    2.100279   -0.372673
     90          6           0       16.175001    3.878670   -2.102674
     91          6           0       13.805368    4.702781    0.885981
     92          6           0       13.919358    6.255428    0.855480
     93          1           0       13.966373    7.102388   -0.499275
     94          7           0       15.748931   -1.049868    0.191599
     95          6           0       16.792586   -0.160447    0.021731
     96          6           0       18.041808   -0.901659    0.166227
     97          6           0       17.702226   -2.250182    0.437114
     98          6           0       16.213317   -2.256156    0.370694
     99          6           0       19.373690   -0.307901    0.037807
    100          6           0       18.652418   -3.513790    0.778419
    101          8           0       18.196840   -4.558110    1.156896
    102          6           0       20.176215   -3.356681    0.928780
    103          7           0       13.141574   -2.649072   -0.192763
    104          6           0       13.988683   -3.582404    0.233605
    105          6           0       13.381737   -4.951692    0.381728
    106          6           0       11.894683   -4.544245    0.522215
    107          6           0       11.928397   -3.145843   -0.185243
    108          6           0       13.615030   -5.914638   -0.873833
    109          6           0       11.310807   -4.525408    1.997004
    110          6           0       11.888886   -5.489885    3.073170
    111          7           0       11.796150   -0.180169   -0.522239
    112          6           0       10.667507   -0.931718   -0.531913
    113          6           0        9.524435   -0.149862   -0.677506
    114          6           0       10.007084    1.122044   -0.797394
    115          6           0       11.382987    1.103434   -0.681617
    116          6           0        8.082681   -0.648537   -0.632431
    117          6           0        9.536199    2.505664   -0.960479
    118          8           0        8.452471    2.988942   -1.252053
    119          6           0       10.847387    3.395820   -0.820748
    120          6           0       10.893789    4.285787   -1.967650
    121          8           0       11.244501    3.999517   -3.116808
    122          8           0       10.236323    5.410795   -1.617047
    123          6           0        9.875401    6.224752   -2.763909
    124          1           0       17.469941    1.822196   -0.389845
    125          1           0       15.939671   -4.294288    0.629517
    126          1           0        9.800586   -2.994311   -0.267099
    127          1           0       13.762714    4.691608   -1.332826
    128          1           0       16.160695    4.003930   -0.055740
    129          1           0       17.026600    4.544266   -1.965031
    130          1           0       15.453440    4.361561   -2.761393
    131          1           0       16.504691    3.021222   -2.689394
    132          1           0       14.621521    4.385672    1.535546
    133          1           0       12.883432    4.384730    1.372437
    134          1           0       14.717331    6.614363    1.506277
    135          1           0       13.090015    6.548622    1.499012
    136          1           0       19.360224    0.763039    0.239193
    137          1           0       19.676711   -0.513337   -0.989018
    138          1           0       20.113647   -0.722841    0.722549
    139          1           0       20.473866   -2.739835    1.776689
    140          1           0       20.515617   -3.046263   -0.059667
    141          1           0       20.640365   -4.338080    1.029815
    142          1           0       13.885218   -5.342559    1.265619
    143          1           0       11.220682   -5.183919   -0.047036
    144          1           0       13.914876   -6.840614   -0.383693
    145          1           0       14.408344   -5.591328   -1.548709
    146          1           0       12.733417   -6.129759   -1.476434
    147          1           0       10.229840   -4.646635    1.943159
    148          1           0       11.639971   -3.539761    2.326506
    149          1           0       12.755578   -5.041640    3.558384
    150          1           0       12.062354   -6.410558    2.514967
    151          1           0       11.149526   -5.755984    3.827783
    152          1           0        8.117471   -1.522065    0.019029
    153          1           0        7.721372   -1.007244   -1.595776
    154          1           0        7.459541    0.147452   -0.225154
    155          1           0       10.737783    3.958461    0.107211
    156          1           0        9.323547    7.125986   -2.498350
    157          1           0        9.442358    5.702265   -3.617053
    158          1           0       10.768081    6.655697   -3.218549
 ---------------------------------------------------------------------

 SCF Done:  E(RCAM-B3LYP) =  -4069.78790585     A.U. after   19 cycles

 Excitation energies and oscillator strengths:

 Excited State   1:      Singlet-A      1.7215 eV  720.20 nm  f=0.4163  <S**2>=0.000
     309 -> 315       -0.17573
     312 -> 313        0.68372
     309 <- 315       -0.10315
 This state for optimization and/or second-order correction.
 Total Energy, E(TD-HF/TD-DFT) =  -4069.72464124
 Copying the excited state density for this state as the 1-particle RhoCI density.

 Excited State   2:      Singlet-A      1.8343 eV  675.92 nm  f=0.3648  <S**2>=0.000
     310 -> 316       -0.18806
     311 -> 314        0.68145
     310 <- 316       -0.10395

 Excited State   3:      Singlet-A      2.2401 eV  553.48 nm  f=0.1509  <S**2>=0.000
     310 -> 314        0.65507
     311 -> 316        0.25324

 Excited State   4:      Singlet-A      2.2689 eV  546.46 nm  f=0.1162  <S**2>=0.000
     309 -> 313        0.63898
     312 -> 315        0.28646

 Excited State   5:      Singlet-A      3.1450 eV  394.23 nm  f=0.0000  <S**2>=0.000
     311 -> 313        0.70706

 The electronic state is 1-A.
 Alpha  occ. eigenvalues --  -46.89318 -46.89104 -19.25538 -19.24845 -19.20487
 Alpha  occ. eigenvalues --  -19.19462 -19.19367 -19.18810 -19.18719 -19.17586
 Alpha  occ. eigenvalues --  -14.41985 -14.41647 -14.41438 -14.41087 -14.40003
 Alpha  occ. eigenvalues --  -14.39910 -14.39193 -14.38598 -10.39468 -10.38167
 Alpha  occ. eigenvalues --  -10.36940 -10.36020 -10.34767 -10.33252 -10.32098
 Alpha  occ. eigenvalues --  -10.31596 -10.31203 -10.30883 -10.30750 -10.30690
 Alpha  occ. eigenvalues --  -10.30577 -10.30483 -10.30406 -10.30299 -10.30225
 Alpha  occ. eigenvalues --  -10.29940 -10.29903 -10.29559 -10.29543 -10.29385
 Alpha  occ. eigenvalues --  -10.29258 -10.29158 -10.28719 -10.28499 -10.28458
 Alpha  occ. eigenvalues --  -10.28365 -10.28299 -10.28008 -10.27979 -10.27923
 Alpha  occ. eigenvalues --  -10.27905 -10.27793 -10.27686 -10.27662 -10.27481
 Alpha  occ. eigenvalues --  -10.27460 -10.27457 -10.27440 -10.27410 -10.27327
 Alpha  occ. eigenvalues --  -10.27257 -10.27219 -10.27087 -10.27080 -10.26949
 Alpha  occ. eigenvalues --  -10.26945 -10.26660 -10.26624 -10.26457 -10.26453
 Alpha  occ. eigenvalues --  -10.26410 -10.26176 -10.26165 -10.26156 -10.26147
 Alpha  occ. eigenvalues --  -10.26101 -10.26046 -10.25952 -10.25635 -10.25590
 Alpha  occ. eigenvalues --  -10.25492 -10.25422 -10.25326 -10.25168 -10.24313
 Alpha  occ. eigenvalues --  -10.23673  -3.17819  -3.17628  -1.92720  -1.92520
 Alpha  occ. eigenvalues --   -1.92292  -1.92104  -1.92077  -1.91942  -1.16438
 Alpha  occ. eigenvalues --   -1.15473  -1.12570  -1.10311  -1.09401  -1.07875
 Alpha  occ. eigenvalues --   -1.06588  -1.06452  -1.05740  -1.05646  -1.05158
 Alpha  occ. eigenvalues --   -1.04591  -1.04301  -1.03791  -1.03367  -1.02871
 Alpha  occ. eigenvalues --   -0.92298  -0.91183  -0.89839  -0.89127  -0.88701
 Alpha  occ. eigenvalues --   -0.88643  -0.88086  -0.88063  -0.87478  -0.87471
 Alpha  occ. eigenvalues --   -0.87072  -0.86917  -0.86859  -0.85540  -0.84326
 Alpha  occ. eigenvalues --   -0.84105  -0.83252  -0.83058  -0.82335  -0.82283
 Alpha  occ. eigenvalues --   -0.82081  -0.81902  -0.81022  -0.80683  -0.80049
 Alpha  occ. eigenvalues --   -0.79956  -0.78563  -0.78452  -0.77477  -0.76792
 Alpha  occ. eigenvalues --   -0.76653  -0.76591  -0.76013  -0.75664  -0.75270
 Alpha  occ. eigenvalues --   -0.75218  -0.72708  -0.72549  -0.71616  -0.71602
 Alpha  occ. eigenvalues --   -0.69616  -0.69363  -0.69027  -0.68716  -0.67624
 Alpha  occ. eigenvalues --   -0.67531  -0.67494  -0.66725  -0.65764  -0.65397
 Alpha  occ. eigenvalues --   -0.65025  -0.64804  -0.64621  -0.64375  -0.63858
 Alpha  occ. eigenvalues --   -0.63637  -0.62550  -0.61758  -0.60770  -0.60650
 Alpha  occ. eigenvalues --   -0.59574  -0.59460  -0.59195  -0.58796  -0.58555
 Alpha  occ. eigenvalues --   -0.58361  -0.57902  -0.57869  -0.57430  -0.57351
 Alpha  occ. eigenvalues --   -0.56494  -0.56227  -0.55579  -0.55430  -0.55141
 Alpha  occ. eigenvalues --   -0.55057  -0.54578  -0.54457  -0.54108  -0.53997
 Alpha  occ. eigenvalues --   -0.53745  -0.53659  -0.53562  -0.53318  -0.52915
 Alpha  occ. eigenvalues --   -0.52826  -0.52723  -0.52493  -0.52227  -0.52080
 Alpha  occ. eigenvalues --   -0.51634  -0.51600  -0.51245  -0.51112  -0.51102
 Alpha  occ. eigenvalues --   -0.51030  -0.50622  -0.50613  -0.50416  -0.50402
 Alpha  occ. eigenvalues --   -0.49988  -0.49883  -0.49710  -0.49666  -0.49609
 Alpha  occ. eigenvalues --   -0.49286  -0.49043  -0.48962  -0.48889  -0.48874
 Alpha  occ. eigenvalues --   -0.48721  -0.48562  -0.48487  -0.48250  -0.48084
 Alpha  occ. eigenvalues --   -0.47857  -0.47708  -0.47575  -0.47457  -0.47348
 Alpha  occ. eigenvalues --   -0.47217  -0.47002  -0.46707  -0.46690  -0.46300
 Alpha  occ. eigenvalues --   -0.46165  -0.46059  -0.45883  -0.45710  -0.45389
 Alpha  occ. eigenvalues --   -0.44901  -0.44884  -0.44616  -0.44600  -0.44435
 Alpha  occ. eigenvalues --   -0.44334  -0.44323  -0.44279  -0.44051  -0.44016
 Alpha  occ. eigenvalues --   -0.43929  -0.43856  -0.43777  -0.43759  -0.43508
 Alpha  occ. eigenvalues --   -0.43262  -0.43207  -0.42917  -0.42840  -0.42675
 Alpha  occ. eigenvalues --   -0.42610  -0.42432  -0.42209  -0.42126  -0.42027
 Alpha  occ. eigenvalues --   -0.41938  -0.41907  -0.41753  -0.41446  -0.41369
 Alpha  occ. eigenvalues --   -0.41308  -0.41008  -0.40757  -0.40358  -0.40341
 Alpha  occ. eigenvalues --   -0.39688  -0.39289  -0.39198  -0.39007  -0.38558
 Alpha  occ. eigenvalues --   -0.38207  -0.38184  -0.38037  -0.37785  -0.37402
 Alpha  occ. eigenvalues --   -0.36969  -0.36593  -0.36556  -0.36117  -0.35877
 Alpha  occ. eigenvalues --   -0.35874  -0.35604  -0.34203  -0.34126  -0.33919
 Alpha  occ. eigenvalues --   -0.33678  -0.33276  -0.32435  -0.31892  -0.31890
 Alpha  occ. eigenvalues --   -0.31481  -0.31025  -0.30563  -0.30509  -0.30316
 Alpha  occ. eigenvalues --   -0.29880  -0.29583  -0.29429  -0.23831  -0.23330
 Alpha  occ. eigenvalues --   -0.21320  -0.21023
 Alpha virt. eigenvalues --   -0.08470  -0.08211  -0.01691  -0.01034   0.00610
 Alpha virt. eigenvalues --    0.00657   0.01985   0.02468   0.02635   0.02790
 Alpha virt. eigenvalues --    0.04247   0.04990   0.05763   0.05764   0.05923

 Mulliken charges:
               1
     1  Mg  12.001190
     2  C    5.978493
     3  C    6.030153
     4  C    6.009229
     5  C    5.984789
     6  N    7.000422
     7  C    6.033733
     8  C    5.992200
     9  C    6.011057
    10  C    5.963093
    11  C    6.001392
    12  C    5.994537
    13  C    6.001333
    14  H    0.999781
    15  N    7.005770
    16  C    5.950635
    17  C    5.981270
    18  C    5.982296
    19  C    5.965676
    20  C    6.004801
    21  C    5.986352
    22  O    7.974809
    23  C    6.007434
    24  N    6.997921
    25  C    5.964730
    26  C    6.012486
    27  C    5.986159
    28  C    6.035525
    29  C    6.002312
    30  C    6.000458
    31  C    5.999591
    32  N    6.996270
    33  C    6.045237
    34  C    6.026108
    35  C    6.010413
    36  C    6.029945
    37  C    5.997232
    38  C    6.014212
    39  O    8.035623
    40  C    5.998222
    41  C    6.005993
    42  O    8.002034
    43  O    8.002057
    44  C    5.998388
    45  H    0.996642
    46  H    0.991535
    47  H    1.012102
    48  H    1.000083
    49  H    0.998416
    50  H    1.001330
    51  H    0.989121
    52  H    1.002220
    53  H    1.003910
    54  H    0.994212
    55  H    1.007215
    56  H    1.002157
    57  H    0.977937
    58  H    0.980442
    59  H    0.979587
    60  H    0.994778
    61  H    0.990193
    62  H    0.984390
    63  H    0.999172
    64  H    0.999917
    65  H    0.994505
    66  H    1.006790
    67  H    0.988683
    68  H    0.993641
    69  H    1.012426
    70  H    1.001964
    71  H    0.996568
    72  H    1.005860
    73  H    1.018608
    74  H    1.018568
    75  H    1.013680
    76  H    1.009460
    77  H    1.005038
    78  H    1.006279
    79  H    1.001210
    80  Mg  11.999952
    81  C    6.000563
    82  C    5.999873
    83  C    5.999356
    84  C    6.000138
    85  N    7.000265
    86  C    5.999356
    87  C    6.000176
    88  C    5.999785
    89  C    6.000564
    90  C    5.999849
    91  C    6.000116
    92  C    5.999966
    93  H    1.000161
    94  N    6.999660
    95  C    6.000938
    96  C    6.000308
    97  C    6.000422
    98  C    6.000751
    99  C    5.999827
   100  C    6.000308
   101  O    8.000509
   102  C    5.999852
   103  N    6.999915
   104  C    6.000852
   105  C    5.999747
   106  C    6.000060
   107  C    5.999581
   108  C    6.000009
   109  C    6.000118
   110  C    6.000000
   111  N    7.000097
   112  C    5.999383
   113  C    5.999380
   114  C    5.999969
   115  C    5.999264
   116  C    6.000054
   117  C    5.999528
   118  O    7.999182
   119  C    5.999983
   120  C    5.999924
   121  O    8.000010
   122  O    7.999893
   123  C    5.999982
   124  H    1.000411
   125  H    1.000147
   126  H    0.999562
   127  H    1.000067
   128  H    1.000101
   129  H    1.000208
   130  H    1.000333
   131  H    1.000073
   132  H    0.999790
   133  H    0.999959
   134  H    0.999996
   135  H    0.999893
   136  H    1.000354
   137  H    1.000513
   138  H    1.000435
   139  H    1.000182
   140  H    1.000225
   141  H    1.000399
   142  H    0.999972
   143  H    0.999959
   144  H    1.000113
   145  H    1.000100
   146  H    1.000241
   147  H    0.999759
   148  H    0.999928
   149  H    0.999936
   150  H    1.000043
   151  H    0.999762
   152  H    0.999445
   153  H    0.999555
   154  H    0.999276
   155  H    0.999716
   156  H    0.999829
   157  H    1.000026
   158  H    1.000068
 Sum of Mulliken charges = 624.00000

 Dipole moment (field-independent basis, Debye):
    X=              8.0627    Y=              0.7171    Z=              7.8743  Tot=             11.2927
 Quadrupole moment (field-independent basis, Debye-Ang):
   XX=           -207.1057   YY=              2.1952   ZZ=             -2.8661
   XY=            -16.3445   XZ=           -109.7127   YZ=             -4.0800

 Normal termination of Gaussian 16 at Wed Sep 22 08:36:02 2021.
