 Gaussian 16, Revision A.03,
 Gaussian 16:  ES64L-G16RevA.03 25-Dec-2016

 ----------------------------------------------------------
 #p cam-b3lyp/Def2SVP td=(nstates=5) density=(transition=1)
 ----------------------------------------------------------

 --------------------------------
 TDDFT excited states in gaussian
 --------------------------------
 Symbolic Z-matrix:
 Charge =  0 Multiplicity = 1

                         Standard orientation:
 ---------------------------------------------------------------------
 Center     Atomic      Atomic             Coordinates (Angstroms)
 Number     Number       Type             X           Y           Z
 ---------------------------------------------------------------------
      1         12           0      -21.157801   -0.458206   -0.024576
      2          6           0      -20.235889    2.708016   -1.175273
      3          6           0      -20.325374    0.664894    3.191033
      4          6           0      -21.463747   -3.573141    1.159720
      5          6           0      -20.915963   -1.633257   -3.250110
      6          7           0      -20.450989    1.545171    0.963511
      7          6           0      -20.108456    2.622433    0.208126
      8          6           0      -19.574098    3.794049    1.123871
      9          6           0      -19.373576    3.007054    2.515829
     10          6           0      -20.034556    1.648387    2.228865
     11          6           0      -17.832922    2.765330    2.697369
     12          6           0      -20.724367    4.860696    1.238721
     13          6           0      -20.495196    6.058505    2.200255
     14          1           0      -21.442557    6.666989    3.191016
     15          7           0      -21.118719   -1.252432    1.910131
     16          6           0      -20.798078   -0.650297    3.138265
     17          6           0      -20.888221   -1.633125    4.134681
     18          6           0      -21.395648   -2.810623    3.601893
     19          6           0      -21.352588   -2.577471    2.167753
     20          6           0      -20.649076   -1.275910    5.565135
     21          6           0      -21.757756   -4.171201    4.283721
     22          8           0      -22.217778   -5.146997    3.700504
     23          6           0      -21.769750   -4.339782    5.805488
     24          7           0      -21.064517   -2.322686   -0.928980
     25          6           0      -21.366951   -3.440850   -0.232213
     26          6           0      -21.609140   -4.676438   -1.121053
     27          6           0      -21.295377   -4.086946   -2.524199
     28          6           0      -21.195786   -2.592194   -2.278040
     29          6           0      -20.855627   -5.967728   -0.659093
     30          6           0      -22.255877   -4.464888   -3.684970
     31          6           0      -23.564278   -3.795344   -3.698435
     32          7           0      -20.774377    0.336751   -1.877144
     33          6           0      -20.710817   -0.224411   -3.062323
     34          6           0      -20.522789    0.764795   -4.128508
     35          6           0      -20.337006    1.961165   -3.364657
     36          6           0      -20.457690    1.652909   -2.023742
     37          6           0      -20.871273    0.672612   -5.540293
     38          6           0      -20.103766    3.387687   -3.506977
     39          8           0      -20.055472    4.084963   -4.494871
     40          6           0      -19.960773    3.886852   -2.064060
     41          6           0      -18.617581    4.588042   -1.835840
     42          8           0      -17.572075    4.015161   -1.670706
     43          8           0      -18.793616    5.948105   -1.926844
     44          6           0      -17.535720    6.698636   -1.707791
     45          1           0      -20.189022    1.063018    4.197834
     46          1           0      -21.777512   -4.561539    1.502641
     47          1           0      -21.034159   -2.223933   -4.160190
     48          1           0      -18.611860    4.181584    0.788217
     49          1           0      -19.781434    3.517236    3.389340
     50          1           0      -17.475606    1.750309    2.526688
     51          1           0      -17.542677    2.812775    3.747232
     52          1           0      -17.207656    3.427062    2.098334
     53          1           0      -21.632299    4.325939    1.516325
     54          1           0      -20.927024    5.216497    0.228192
     55          1           0      -20.097701    6.838321    1.549988
     56          1           0      -19.711058    5.649738    2.836346
     57          1           0      -20.343858   -0.245721    5.750524
     58          1           0      -20.005693   -2.043766    5.996912
     59          1           0      -21.634851   -1.375232    6.020372
     60          1           0      -20.781710   -4.280385    6.262072
     61          1           0      -22.309827   -5.217107    6.161821
     62          1           0      -22.393701   -3.535051    6.194778
     63          1           0      -22.676992   -4.775832   -0.928347
     64          1           0      -20.284472   -4.435819   -2.735067
     65          1           0      -20.711235   -5.970069    0.420792
     66          1           0      -19.874637   -5.999305   -1.133912
     67          1           0      -21.406346   -6.881294   -0.884116
     68          1           0      -22.380494   -5.534263   -3.517579
     69          1           0      -21.734738   -4.371122   -4.637911
     70          1           0      -23.466929   -2.818792   -4.172481
     71          1           0      -23.984948   -3.735306   -2.694865
     72          1           0      -24.282075   -4.317703   -4.331596
     73          1           0      -21.655117   -0.084021   -5.582180
     74          1           0      -20.141277    0.294125   -6.255977
     75          1           0      -21.196266    1.667389   -5.843246
     76          1           0      -20.780102    4.580405   -1.872045
     77          1           0      -17.548626    7.582415   -2.345376
     78          1           0      -16.623812    6.223944   -2.070613
     79          1           0      -17.464084    7.048531   -0.678477
     80         12           0       20.064198   -0.637404   -0.083121
     81          6           0       22.155978    2.060129   -0.371809
     82          6           0       17.948032    1.182698    1.763075
     83          6           0       18.237863   -3.442937    0.312654
     84          6           0       22.639606   -2.679236   -1.637943
     85          7           0       20.217939    1.369794    0.843919
     86          6           0       21.083728    2.332536    0.504660
     87          6           0       20.681026    3.732201    1.200692
     88          6           0       19.305503    3.324737    1.849454
     89          6           0       19.125080    1.830454    1.514255
     90          6           0       19.191736    3.691218    3.342002
     91          6           0       20.572017    4.920656    0.203694
     92          6           0       19.850266    6.223682    0.679206
     93          1           0       20.749342    7.457702    1.069270
     94          7           0       18.337868   -1.082613    0.954441
     95          6           0       17.565603   -0.202944    1.557565
     96          6           0       16.383876   -0.888521    2.058256
     97          6           0       16.465442   -2.281257    1.756746
     98          6           0       17.717424   -2.319940    0.969469
     99          6           0       15.304323   -0.265432    2.927724
    100          6           0       15.561796   -3.442166    2.158978
    101          8           0       15.941480   -4.605084    2.056554
    102          6           0       14.202618   -3.141413    2.686535
    103          7           0       20.424440   -2.775119   -0.557197
    104          6           0       19.497078   -3.698368   -0.332633
    105          6           0       19.863997   -5.051621   -0.963962
    106          6           0       21.133684   -4.677266   -1.724132
    107          6           0       21.425494   -3.304644   -1.244038
    108          6           0       20.010236   -6.265466   -0.034308
    109          6           0       21.070853   -4.956700   -3.204443
    110          6           0       22.086350   -6.021473   -3.753126
    111          7           0       21.930415   -0.398038   -0.882798
    112          6           0       22.840840   -1.278403   -1.558126
    113          6           0       23.977713   -0.553220   -2.081276
    114          6           0       23.689340    0.762518   -1.623371
    115          6           0       22.479909    0.786051   -0.917469
    116          6           0       25.077112   -0.964886   -2.995692
    117          6           0       24.167914    2.106873   -1.824847
    118          8           0       25.025314    2.618977   -2.560012
    119          6           0       23.329102    3.011767   -0.957425
    120          6           0       24.190415    3.476656    0.237524
    121          8           0       24.969362    2.794090    0.920438
    122          8           0       23.940824    4.802694    0.432131
    123          6           0       24.692241    5.499983    1.523509
    124          1           0       17.123878    1.692668    2.266243
    125          1           0       17.821863   -4.421951    0.559508
    126          1           0       23.302046   -3.327088   -2.214821
    127          1           0       21.452227    3.874975    1.956767
    128          1           0       18.519494    3.841774    1.299079
    129          1           0       18.194492    4.104100    3.490154
    130          1           0       19.897762    4.471890    3.625370
    131          1           0       19.342463    2.813753    3.970958
    132          1           0       19.899759    4.570210   -0.579460
    133          1           0       21.565984    5.220484   -0.128127
    134          1           0       19.361932    5.984852    1.624536
    135          1           0       19.185155    6.562618   -0.114308
    136          1           0       15.501322    0.790904    3.110471
    137          1           0       15.265956   -0.780532    3.887261
    138          1           0       14.317454   -0.353611    2.475170
    139          1           0       13.770614   -2.438934    1.973246
    140          1           0       14.029932   -2.708003    3.671174
    141          1           0       13.568388   -4.025132    2.747624
    142          1           0       19.078999   -5.305031   -1.675649
    143          1           0       21.931475   -5.319594   -1.351667
    144          1           0       19.568146   -7.084459   -0.601138
    145          1           0       19.548052   -6.066852    0.932556
    146          1           0       21.034156   -6.474079    0.275646
    147          1           0       21.383669   -4.015356   -3.655118
    148          1           0       20.087297   -5.276039   -3.547823
    149          1           0       22.718569   -6.385378   -2.942767
    150          1           0       22.723973   -5.514284   -4.477862
    151          1           0       21.644624   -6.841842   -4.318969
    152          1           0       24.877562   -1.957216   -3.399259
    153          1           0       25.947062   -1.094644   -2.352947
    154          1           0       25.103212   -0.190674   -3.763874
    155          1           0       23.064280    3.839583   -1.615490
    156          1           0       24.723818    4.970944    2.476304
    157          1           0       24.370864    6.524618    1.707494
    158          1           0       25.730108    5.517516    1.191341
 ---------------------------------------------------------------------

 SCF Done:  E(RCAM-B3LYP) =  -4069.82651118     A.U. after   19 cycles

 Excitation energies and oscillator strengths:

 Excited State   1:      Singlet-A      1.7216 eV  720.19 nm  f=0.3988  <S**2>=0.000
     309 -> 315        0.17579
     312 -> 313        0.68381
     309 <- 315        0.10319
 This state for optimization and/or second-order correction.
 Total Energy, E(TD-HF/TD-DFT) =  -4069.76324535
 Copying the excited state density for this state as the 1-particle RhoCI density.

 Excited State   2:      Singlet-A      1.7451 eV  710.48 nm  f=0.3942  <S**2>=0.000
     310 -> 316       -0.18611
     311 -> 314        0.68380
     310 <- 316       -0.10700

 Excited State   3:      Singlet-A      2.2617 eV  548.20 nm  f=0.1121  <S**2>=0.000
     310 -> 314        0.64497
     311 -> 316        0.27670

 Excited State   4:      Singlet-A      2.2690 eV  546.42 nm  f=0.1157  <S**2>=0.000
     309 -> 313        0.63903
     312 -> 315       -0.28649

 Excited State   5:      Singlet-A      3.1895 eV  388.72 nm  f=0.0000  <S**2>=0.000
     311 -> 313        0.70710

 The electronic state is 1-A.
 Alpha  occ. eigenvalues --  -46.89181 -46.88741 -19.25824 -19.25618 -19.20452
 Alpha  occ. eigenvalues --  -19.19532 -19.19466 -19.19446 -19.18869 -19.17669
 Alpha  occ. eigenvalues --  -14.42279 -14.42061 -14.41724 -14.41095 -14.40080
 Alpha  occ. eigenvalues --  -14.39271 -14.39180 -14.39172 -10.39818 -10.39548
 Alpha  occ. eigenvalues --  -10.36201 -10.36090 -10.34545 -10.33335 -10.32174
 Alpha  occ. eigenvalues --  -10.31854 -10.31674 -10.31112 -10.30962 -10.30665
 Alpha  occ. eigenvalues --  -10.30610 -10.30482 -10.30393 -10.30377 -10.30304
 Alpha  occ. eigenvalues --  -10.30014 -10.29995 -10.29978 -10.29684 -10.29652
 Alpha  occ. eigenvalues --  -10.29344 -10.28797 -10.28733 -10.28712 -10.28594
 Alpha  occ. eigenvalues --  -10.28575 -10.28429 -10.28379 -10.28091 -10.28058
 Alpha  occ. eigenvalues --  -10.27998 -10.27983 -10.27773 -10.27765 -10.27677
 Alpha  occ. eigenvalues --  -10.27633 -10.27539 -10.27532 -10.27486 -10.27459
 Alpha  occ. eigenvalues --  -10.27309 -10.27135 -10.27069 -10.27020 -10.27017
 Alpha  occ. eigenvalues --  -10.26995 -10.26746 -10.26700 -10.26520 -10.26486
 Alpha  occ. eigenvalues --  -10.26383 -10.26250 -10.26237 -10.26224 -10.26219
 Alpha  occ. eigenvalues --  -10.26176 -10.26025 -10.26023 -10.25873 -10.25705
 Alpha  occ. eigenvalues --  -10.25656 -10.25323 -10.25306 -10.25160 -10.24391
 Alpha  occ. eigenvalues --  -10.24330  -3.17706  -3.17304  -1.92597  -1.92191
 Alpha  occ. eigenvalues --   -1.92155  -1.92020  -1.91773  -1.91591  -1.16871
 Alpha  occ. eigenvalues --   -1.15552  -1.10431  -1.10381  -1.10335  -1.08807
 Alpha  occ. eigenvalues --   -1.07959  -1.06531  -1.05722  -1.05005  -1.04378
 Alpha  occ. eigenvalues --   -1.03869  -1.03817  -1.03383  -1.02949  -1.02475
 Alpha  occ. eigenvalues --   -0.93857  -0.91263  -0.89912  -0.89468  -0.88722
 Alpha  occ. eigenvalues --   -0.88598  -0.88283  -0.88163  -0.87545  -0.87519
 Alpha  occ. eigenvalues --   -0.87256  -0.87149  -0.86994  -0.86234  -0.84182
 Alpha  occ. eigenvalues --   -0.84102  -0.83659  -0.83326  -0.82440  -0.82352
 Alpha  occ. eigenvalues --   -0.82159  -0.81572  -0.81101  -0.80960  -0.80447
 Alpha  occ. eigenvalues --   -0.80033  -0.78546  -0.78528  -0.77630  -0.77549
 Alpha  occ. eigenvalues --   -0.76732  -0.76620  -0.76188  -0.76091  -0.75344
 Alpha  occ. eigenvalues --   -0.74898  -0.72626  -0.72517  -0.71835  -0.71678
 Alpha  occ. eigenvalues --   -0.70084  -0.69436  -0.69198  -0.69104  -0.68391
 Alpha  occ. eigenvalues --   -0.67703  -0.67569  -0.67040  -0.65838  -0.65407
 Alpha  occ. eigenvalues --   -0.64882  -0.64863  -0.64476  -0.64455  -0.64045
 Alpha  occ. eigenvalues --   -0.63937  -0.62629  -0.62526  -0.60723  -0.60105
 Alpha  occ. eigenvalues --   -0.59650  -0.59483  -0.59413  -0.58874  -0.58671
 Alpha  occ. eigenvalues --   -0.58631  -0.58277  -0.57981  -0.57431  -0.57384
 Alpha  occ. eigenvalues --   -0.56587  -0.56303  -0.55765  -0.55654  -0.55539
 Alpha  occ. eigenvalues --   -0.55269  -0.55137  -0.54635  -0.54533  -0.54186
 Alpha  occ. eigenvalues --   -0.54050  -0.53735  -0.53394  -0.53283  -0.53175
 Alpha  occ. eigenvalues --   -0.52794  -0.52723  -0.52580  -0.52566  -0.52158
 Alpha  occ. eigenvalues --   -0.52130  -0.51676  -0.51181  -0.51168  -0.51107
 Alpha  occ. eigenvalues --   -0.51051  -0.50700  -0.50634  -0.50476  -0.50319
 Alpha  occ. eigenvalues --   -0.49962  -0.49957  -0.49783  -0.49686  -0.49661
 Alpha  occ. eigenvalues --   -0.49489  -0.49360  -0.49255  -0.49036  -0.49008
 Alpha  occ. eigenvalues --   -0.48962  -0.48857  -0.48564  -0.48530  -0.48160
 Alpha  occ. eigenvalues --   -0.47937  -0.47787  -0.47651  -0.47535  -0.47294
 Alpha  occ. eigenvalues --   -0.47130  -0.46781  -0.46694  -0.46377  -0.46151
 Alpha  occ. eigenvalues --   -0.46134  -0.46035  -0.45962  -0.45771  -0.45403
 Alpha  occ. eigenvalues --   -0.45110  -0.45005  -0.44977  -0.44768  -0.44690
 Alpha  occ. eigenvalues --   -0.44512  -0.44461  -0.44400  -0.44243  -0.44123
 Alpha  occ. eigenvalues --   -0.44114  -0.44002  -0.43888  -0.43856  -0.43701
 Alpha  occ. eigenvalues --   -0.43587  -0.43372  -0.43278  -0.42938  -0.42915
 Alpha  occ. eigenvalues --   -0.42753  -0.42611  -0.42440  -0.42425  -0.42202
 Alpha  occ. eigenvalues --   -0.42012  -0.41981  -0.41882  -0.41830  -0.41692
 Alpha  occ. eigenvalues --   -0.41522  -0.41090  -0.40833  -0.40805  -0.40420
 Alpha  occ. eigenvalues --   -0.40290  -0.39643  -0.39271  -0.39084  -0.38874
 Alpha  occ. eigenvalues --   -0.38511  -0.38260  -0.37882  -0.37862  -0.37782
 Alpha  occ. eigenvalues --   -0.37364  -0.37046  -0.36749  -0.36674  -0.36391
 Alpha  occ. eigenvalues --   -0.36199  -0.35951  -0.34964  -0.34304  -0.34281
 Alpha  occ. eigenvalues --   -0.33997  -0.33353  -0.33196  -0.31962  -0.31476
 Alpha  occ. eigenvalues --   -0.31124  -0.31102  -0.30842  -0.30585  -0.30086
 Alpha  occ. eigenvalues --   -0.29964  -0.29663  -0.29216  -0.23908  -0.23826
 Alpha  occ. eigenvalues --   -0.21108  -0.21100
 Alpha virt. eigenvalues --   -0.08547  -0.08418  -0.01766  -0.01363   0.00401
 Alpha virt. eigenvalues --    0.00580   0.01864   0.01900   0.02522   0.02556
 Alpha virt. eigenvalues --    0.04905   0.05113   0.05509   0.05683   0.06256

 Mulliken charges:
               1
     1  Mg  11.999961
     2  C    6.000204
     3  C    5.999904
     4  C    5.999758
     5  C    6.000201
     6  N    6.999975
     7  C    5.999757
     8  C    6.000083
     9  C    5.999893
    10  C    6.000331
    11  C    5.999901
    12  C    6.000056
    13  C    6.000010
    14  H    0.999851
    15  N    6.999938
    16  C    6.000375
    17  C    6.000200
    18  C    6.000146
    19  C    6.000372
    20  C    5.999942
    21  C    6.000147
    22  O    8.000241
    23  C    5.999952
    24  N    7.000057
    25  C    6.000375
    26  C    5.999903
    27  C    6.000111
    28  C    5.999649
    29  C    5.999962
    30  C    6.000022
    31  C    6.000090
    32  N    7.000003
    33  C    5.999720
    34  C    5.999566
    35  C    6.000110
    36  C    5.999577
    37  C    6.000151
    38  C    5.999752
    39  O    7.999712
    40  C    6.000013
    41  C    5.999955
    42  O    8.000013
    43  O    7.999953
    44  C    6.000017
    45  H    1.000094
    46  H    1.000075
    47  H    0.999898
    48  H    1.000029
    49  H    1.000002
    50  H    1.000072
    51  H    1.000073
    52  H    1.000202
    53  H    0.999883
    54  H    1.000044
    55  H    1.000019
    56  H    0.999994
    57  H    1.000213
    58  H    1.000248
    59  H    1.000133
    60  H    1.000160
    61  H    1.000112
    62  H    1.000024
    63  H    0.999941
    64  H    0.999987
    65  H    0.999958
    66  H    1.000149
    67  H    1.000025
    68  H    0.999896
    69  H    1.000029
    70  H    1.000067
    71  H    0.999882
    72  H    0.999884
    73  H    0.999720
    74  H    0.999724
    75  H    0.999783
    76  H    0.999854
    77  H    0.999921
    78  H    1.000048
    79  H    0.999946
    80  Mg  12.001187
    81  C    5.978496
    82  C    6.030180
    83  C    6.009241
    84  C    5.984863
    85  N    7.000450
    86  C    6.033701
    87  C    5.992205
    88  C    6.011063
    89  C    5.963050
    90  C    6.001392
    91  C    5.994538
    92  C    6.001330
    93  H    0.999779
    94  N    7.005775
    95  C    5.950610
    96  C    5.981293
    97  C    5.982286
    98  C    5.965652
    99  C    6.004799
   100  C    5.986366
   101  O    7.974821
   102  C    6.007429
   103  N    6.997954
   104  C    5.964687
   105  C    6.012499
   106  C    5.986171
   107  C    6.035469
   108  C    6.002308
   109  C    6.000458
   110  C    5.999593
   111  N    6.996281
   112  C    6.045186
   113  C    6.026153
   114  C    6.010384
   115  C    6.029934
   116  C    5.997226
   117  C    6.014230
   118  O    8.035619
   119  C    5.998221
   120  C    6.005997
   121  O    8.002038
   122  O    8.002057
   123  C    5.998389
   124  H    0.996647
   125  H    0.991537
   126  H    1.012115
   127  H    1.000080
   128  H    0.998407
   129  H    1.001328
   130  H    0.989119
   131  H    1.002221
   132  H    1.003906
   133  H    0.994204
   134  H    1.007220
   135  H    1.002153
   136  H    0.977940
   137  H    0.980450
   138  H    0.979591
   139  H    0.994778
   140  H    0.990199
   141  H    0.984398
   142  H    0.999160
   143  H    0.999907
   144  H    0.994503
   145  H    1.006788
   146  H    0.988681
   147  H    0.993626
   148  H    1.012429
   149  H    1.001968
   150  H    0.996555
   151  H    1.005861
   152  H    1.018614
   153  H    1.018580
   154  H    1.013683
   155  H    1.009460
   156  H    1.005043
   157  H    1.006281
   158  H    1.001207
 Sum of Mulliken charges = 624.00000

 Dipole moment (field-independent basis, Debye):
    X=              9.5632    Y=              2.7398    Z=             -4.8191  Tot=             11.0538
 Quadrupole moment (field-independent basis, Debye-Ang):
   XX=            384.4186   YY=             -1.5655   ZZ=              0.3353
   XY=             50.3394   XZ=           -100.3018   YZ=              5.0534

 Normal termination of Gaussian 16 at Tue Sep 21 21:39:46 2021.
