 Gaussian 16, Revision A.03,
 Gaussian 16:  ES64L-G16RevA.03 25-Dec-2016

 ----------------------------------------------------------
 #p cam-b3lyp/Def2SVP td=(nstates=5) density=(transition=1)
 ----------------------------------------------------------

 --------------------------------
 TDDFT excited states in gaussian
 --------------------------------
 Symbolic Z-matrix:
 Charge =  0 Multiplicity = 1

                         Standard orientation:
 ---------------------------------------------------------------------
 Center     Atomic      Atomic             Coordinates (Angstroms)
 Number     Number       Type             X           Y           Z
 ---------------------------------------------------------------------
      1         12           0       24.196836    0.521176   -0.337827
      2          6           0       23.018880   -1.918281    1.971620
      3          6           0       22.759385    2.950249    1.625824
      4          6           0       25.313548    2.634080   -2.619816
      5          6           0       25.203391   -2.137087   -2.537784
      6          7           0       22.923000    0.524649    1.609526
      7          6           0       22.700698   -0.608975    2.369651
      8          6           0       21.964887   -0.125382    3.666103
      9          6           0       21.835625    1.485308    3.539769
     10          6           0       22.526765    1.659865    2.183619
     11          6           0       20.411534    2.064899    3.668308
     12          6           0       22.527808   -0.648067    5.052000
     13          6           0       21.555370   -1.412628    5.902329
     14          1           0       20.064633   -1.203605    5.859742
     15          7           0       24.160533    2.619995   -0.416098
     16          6           0       23.513016    3.411117    0.479805
     17          6           0       23.871216    4.764376    0.140785
     18          6           0       24.508991    4.708513   -1.117286
     19          6           0       24.690955    3.269952   -1.497774
     20          6           0       23.386378    5.931408    1.017387
     21          6           0       24.837544    5.861503   -2.016644
     22          8           0       25.298949    5.684118   -3.168985
     23          6           0       24.557972    7.244575   -1.557960
     24          7           0       25.080219    0.215251   -2.353813
     25          6           0       25.505164    1.235002   -3.014998
     26          6           0       26.302250    0.936403   -4.394368
     27          6           0       26.235905   -0.597952   -4.355558
     28          6           0       25.499904   -0.873729   -3.067292
     29          6           0       25.547300    1.613416   -5.596383
     30          6           0       27.601211   -1.368390   -4.423708
     31          6           0       28.490432   -1.313893   -3.158781
     32          7           0       24.018692   -1.515739   -0.353315
     33          6           0       24.458663   -2.433658   -1.335897
     34          6           0       24.231490   -3.789429   -0.817241
     35          6           0       23.678334   -3.631820    0.476219
     36          6           0       23.606048   -2.221292    0.734871
     37          6           0       24.587263   -5.112576   -1.559072
     38          6           0       23.238856   -4.354612    1.549049
     39          8           0       23.111859   -5.547956    1.733417
     40          6           0       22.830612   -3.316591    2.631420
     41          6           0       21.474665   -3.595852    3.044393
     42          8           0       20.462869   -3.141746    2.498288
     43          8           0       21.472748   -4.629439    3.988609
     44          6           0       20.121598   -5.129932    4.343552
     45          1           0       22.150485    3.772154    2.009141
     46          1           0       25.526215    3.334130   -3.430569
     47          1           0       25.493907   -2.981870   -3.165717
     48          1           0       21.043733   -0.692158    3.536986
     49          1           0       22.365391    1.945183    4.372828
     50          1           0       20.370862    2.815123    4.459035
     51          1           0       19.603179    1.351302    3.826917
     52          1           0       20.235637    2.536594    2.701525
     53          1           0       22.924688    0.185639    5.631576
     54          1           0       23.319805   -1.350314    4.791710
     55          1           0       21.680414   -1.039281    6.919355
     56          1           0       21.777642   -2.473144    5.789406
     57          1           0       23.060350    5.597227    2.002607
     58          1           0       22.565347    6.446658    0.520517
     59          1           0       24.256306    6.581262    1.106744
     60          1           0       25.111837    7.387040   -0.630019
     61          1           0       23.501679    7.379903   -1.322365
     62          1           0       24.795563    7.964315   -2.340268
     63          1           0       27.334689    1.282425   -4.339154
     64          1           0       25.519233   -0.949534   -5.098119
     65          1           0       24.487535    1.649270   -5.344120
     66          1           0       25.654130    0.968451   -6.469283
     67          1           0       25.851271    2.618068   -5.891410
     68          1           0       28.124979   -1.110018   -5.343498
     69          1           0       27.373086   -2.414671   -4.624645
     70          1           0       28.439521   -0.404179   -2.561445
     71          1           0       29.511168   -1.560907   -3.452831
     72          1           0       28.165402   -2.159494   -2.552831
     73          1           0       25.151418   -5.811783   -0.941783
     74          1           0       25.115215   -4.951729   -2.498340
     75          1           0       23.687278   -5.722057   -1.644483
     76          1           0       23.536328   -3.546632    3.428957
     77          1           0       19.678291   -5.664616    3.503884
     78          1           0       19.402123   -4.350319    4.591228
     79          1           0       20.230750   -5.657692    5.291156
     80         12           0      -23.955638    0.598666    0.568541
     81          6           0      -23.202463   -2.513142   -1.004694
     82          6           0      -20.948192    1.592714   -0.420967
     83          6           0      -24.907811    3.798802    1.091990
     84          6           0      -27.341387   -0.513486    0.564529
     85          7           0      -22.289557   -0.355777   -0.433885
     86          6           0      -22.137200   -1.669623   -0.927454
     87          6           0      -20.733383   -1.928704   -1.559535
     88          6           0      -20.025632   -0.570788   -1.289062
     89          6           0      -21.114946    0.267166   -0.586786
     90          6           0      -18.748356   -0.868326   -0.486096
     91          6           0      -20.679776   -2.339407   -3.094231
     92          6           0      -20.177160   -3.743100   -3.411315
     93          1           0      -18.979216   -3.867653   -4.374791
     94          7           0      -23.071236    2.408040    0.467570
     95          6           0      -21.769435    2.608509    0.008891
     96          6           0      -21.386306    3.951180    0.182371
     97          6           0      -22.444170    4.627111    0.761894
     98          6           0      -23.532296    3.671020    0.797127
     99          6           0      -20.008518    4.634692   -0.151389
    100          6           0      -22.366197    6.077407    1.177653
    101          8           0      -21.365660    6.730507    1.154364
    102          6           0      -23.712217    6.687967    1.809421
    103          7           0      -25.853051    1.542526    0.726888
    104          6           0      -25.959120    2.882324    0.983312
    105          6           0      -27.501463    3.238590    0.943822
    106          6           0      -28.279151    1.912355    0.910309
    107          6           0      -27.094089    0.894075    0.702144
    108          6           0      -27.946782    4.237319    1.973977
    109          6           0      -29.186663    1.886472   -0.313293
    110          6           0      -30.378502    0.967435   -0.270032
    111          7           0      -25.047474   -1.243943    0.150352
    112          6           0      -26.389552   -1.530955    0.225620
    113          6           0      -26.619656   -2.890643   -0.103631
    114          6           0      -25.382118   -3.413959   -0.547317
    115          6           0      -24.494750   -2.303286   -0.474092
    116          6           0      -27.914345   -3.597718   -0.154408
    117          6           0      -24.616630   -4.542163   -1.094668
    118          8           0      -24.993016   -5.704348   -1.297598
    119          6           0      -23.156412   -4.029955   -1.398076
    120          6           0      -22.238385   -4.652332   -0.481812
    121          8           0      -22.174233   -4.290859    0.717019
    122          8           0      -21.598574   -5.628157   -1.155789
    123          6           0      -20.448314   -6.309667   -0.501218
    124          1           0      -19.951015    1.942405   -0.697563
    125          1           0      -25.165337    4.834972    1.321594
    126          1           0      -28.339516   -0.945637    0.658258
    127          1           0      -20.220891   -2.715233   -1.005703
    128          1           0      -19.757031   -0.031411   -2.196864
    129          1           0      -18.350382    0.092900   -0.162173
    130          1           0      -17.959733   -1.395313   -1.023012
    131          1           0      -18.946715   -1.470263    0.401423
    132          1           0      -19.902532   -1.696325   -3.507126
    133          1           0      -21.639563   -2.136939   -3.569662
    134          1           0      -21.022865   -4.307323   -3.805916
    135          1           0      -19.841359   -4.218915   -2.489261
    136          1           0      -20.251965    5.490870   -0.780841
    137          1           0      -19.341586    3.965024   -0.694165
    138          1           0      -19.388675    4.899225    0.705262
    139          1           0      -23.445774    7.686242    2.155344
    140          1           0      -23.952786    5.977636    2.600763
    141          1           0      -24.394043    6.651034    0.959857
    142          1           0      -27.613475    3.739587   -0.018363
    143          1           0      -28.884585    1.674268    1.784820
    144          1           0      -28.988560    4.033037    2.219588
    145          1           0      -27.821577    5.216794    1.511973
    146          1           0      -27.309138    4.290909    2.855611
    147          1           0      -28.652025    1.668090   -1.238180
    148          1           0      -29.571357    2.875842   -0.560712
    149          1           0      -30.566188    0.561882    0.723985
    150          1           0      -30.185226    0.141437   -0.954785
    151          1           0      -31.247388    1.440618   -0.727351
    152          1           0      -28.633968   -3.172023    0.545615
    153          1           0      -27.691019   -4.631512    0.110328
    154          1           0      -28.283191   -3.451346   -1.169866
    155          1           0      -22.855000   -4.101656   -2.443128
    156          1           0      -20.561609   -7.311810   -0.917274
    157          1           0      -20.471885   -6.273617    0.587533
    158          1           0      -19.498407   -5.997010   -0.936143
 ---------------------------------------------------------------------

 SCF Done:  E(RCAM-B3LYP) =  -4069.80929657     A.U. after   19 cycles

 Excitation energies and oscillator strengths:

 Excited State   1:      Singlet-A      1.7225 eV  719.80 nm  f=0.3809  <S**2>=0.000
     309 -> 316        0.17109
     311 -> 313        0.68744
     309 <- 316        0.10385
 This state for optimization and/or second-order correction.
 Total Energy, E(TD-HF/TD-DFT) =  -4069.74599617
 Copying the excited state density for this state as the 1-particle RhoCI density.

 Excited State   2:      Singlet-A      1.7536 eV  707.01 nm  f=0.3787  <S**2>=0.000
     310 -> 315        0.18837
     312 -> 314        0.68191
     310 <- 315        0.10757

 Excited State   3:      Singlet-A      2.2093 eV  561.18 nm  f=0.1090  <S**2>=0.000
     310 -> 314        0.64206
     312 -> 315       -0.28090

 Excited State   4:      Singlet-A      2.2584 eV  549.00 nm  f=0.1172  <S**2>=0.000
     309 -> 313        0.63725
     311 -> 316       -0.28973

 Excited State   5:      Singlet-A      3.2042 eV  386.94 nm  f=0.0000  <S**2>=0.000
     312 -> 313        0.70710

 The electronic state is 1-A.
 Alpha  occ. eigenvalues --  -46.89817 -46.88509 -19.26503 -19.24269 -19.19663
 Alpha  occ. eigenvalues --  -19.19636 -19.19294 -19.18772 -19.18731 -19.17526
 Alpha  occ. eigenvalues --  -14.42675 -14.42531 -14.42180 -14.41883 -14.39765
 Alpha  occ. eigenvalues --  -14.39677 -14.39503 -14.38466 -10.39503 -10.38612
 Alpha  occ. eigenvalues --  -10.35477 -10.35387 -10.35067 -10.33301 -10.32836
 Alpha  occ. eigenvalues --  -10.31904 -10.31718 -10.31635 -10.31493 -10.31418
 Alpha  occ. eigenvalues --  -10.31101 -10.30987 -10.30898 -10.30790 -10.30597
 Alpha  occ. eigenvalues --  -10.30474 -10.30201 -10.29854 -10.29614 -10.29360
 Alpha  occ. eigenvalues --  -10.29004 -10.28825 -10.28776 -10.28685 -10.28378
 Alpha  occ. eigenvalues --  -10.28335 -10.28211 -10.28134 -10.28104 -10.28059
 Alpha  occ. eigenvalues --  -10.28021 -10.27988 -10.27982 -10.27980 -10.27952
 Alpha  occ. eigenvalues --  -10.27949 -10.27776 -10.27691 -10.27619 -10.27406
 Alpha  occ. eigenvalues --  -10.27336 -10.27311 -10.27227 -10.27182 -10.27136
 Alpha  occ. eigenvalues --  -10.27104 -10.27086 -10.27026 -10.26919 -10.26836
 Alpha  occ. eigenvalues --  -10.26600 -10.26437 -10.26359 -10.26355 -10.26330
 Alpha  occ. eigenvalues --  -10.26255 -10.26003 -10.25997 -10.25973 -10.25871
 Alpha  occ. eigenvalues --  -10.25843 -10.25753 -10.25434 -10.25165 -10.24833
 Alpha  occ. eigenvalues --  -10.23897  -3.18153  -3.17106  -1.93068  -1.92644
 Alpha  occ. eigenvalues --   -1.92410  -1.91984  -1.91542  -1.91433  -1.16639
 Alpha  occ. eigenvalues --   -1.14355  -1.11981  -1.09247  -1.08663  -1.08464
 Alpha  occ. eigenvalues --   -1.07393  -1.06312  -1.06110  -1.04115  -1.03699
 Alpha  occ. eigenvalues --   -1.03178  -1.03032  -1.02833  -1.01744  -1.01702
 Alpha  occ. eigenvalues --   -0.92282  -0.92209  -0.89748  -0.89665  -0.89343
 Alpha  occ. eigenvalues --   -0.88708  -0.88284  -0.87826  -0.87331  -0.87252
 Alpha  occ. eigenvalues --   -0.86791  -0.86642  -0.86504  -0.85477  -0.84814
 Alpha  occ. eigenvalues --   -0.84321  -0.84235  -0.83372  -0.83293  -0.82538
 Alpha  occ. eigenvalues --   -0.82223  -0.81908  -0.81132  -0.80674  -0.80311
 Alpha  occ. eigenvalues --   -0.80048  -0.78322  -0.77727  -0.77578  -0.77376
 Alpha  occ. eigenvalues --   -0.76681  -0.76443  -0.76254  -0.75731  -0.75128
 Alpha  occ. eigenvalues --   -0.74978  -0.72750  -0.72523  -0.71721  -0.71558
 Alpha  occ. eigenvalues --   -0.70465  -0.69255  -0.69037  -0.68616  -0.67839
 Alpha  occ. eigenvalues --   -0.67752  -0.67240  -0.66913  -0.65695  -0.65601
 Alpha  occ. eigenvalues --   -0.65315  -0.64995  -0.64905  -0.64643  -0.64557
 Alpha  occ. eigenvalues --   -0.64235  -0.62236  -0.61417  -0.60227  -0.60144
 Alpha  occ. eigenvalues --   -0.59630  -0.59503  -0.59428  -0.58605  -0.58516
 Alpha  occ. eigenvalues --   -0.58210  -0.58130  -0.57939  -0.57524  -0.57144
 Alpha  occ. eigenvalues --   -0.56408  -0.56280  -0.56042  -0.56021  -0.55270
 Alpha  occ. eigenvalues --   -0.54972  -0.54949  -0.54687  -0.54276  -0.53812
 Alpha  occ. eigenvalues --   -0.53594  -0.53239  -0.53165  -0.53015  -0.52873
 Alpha  occ. eigenvalues --   -0.52838  -0.52626  -0.52475  -0.52403  -0.52022
 Alpha  occ. eigenvalues --   -0.51680  -0.51551  -0.51474  -0.51288  -0.51233
 Alpha  occ. eigenvalues --   -0.50807  -0.50577  -0.50453  -0.50346  -0.50154
 Alpha  occ. eigenvalues --   -0.49963  -0.49861  -0.49850  -0.49508  -0.49247
 Alpha  occ. eigenvalues --   -0.49213  -0.49173  -0.48953  -0.48919  -0.48861
 Alpha  occ. eigenvalues --   -0.48572  -0.48426  -0.48255  -0.48057  -0.47979
 Alpha  occ. eigenvalues --   -0.47927  -0.47517  -0.47506  -0.47481  -0.47314
 Alpha  occ. eigenvalues --   -0.46955  -0.46735  -0.46610  -0.46513  -0.46416
 Alpha  occ. eigenvalues --   -0.46292  -0.46161  -0.46084  -0.45820  -0.45610
 Alpha  occ. eigenvalues --   -0.45485  -0.45302  -0.45148  -0.44929  -0.44920
 Alpha  occ. eigenvalues --   -0.44730  -0.44596  -0.44313  -0.44222  -0.44122
 Alpha  occ. eigenvalues --   -0.43779  -0.43745  -0.43712  -0.43462  -0.43443
 Alpha  occ. eigenvalues --   -0.43283  -0.43201  -0.43081  -0.42794  -0.42722
 Alpha  occ. eigenvalues --   -0.42557  -0.42476  -0.42363  -0.42303  -0.41932
 Alpha  occ. eigenvalues --   -0.41863  -0.41823  -0.41655  -0.41636  -0.41579
 Alpha  occ. eigenvalues --   -0.41372  -0.41255  -0.41141  -0.40588  -0.40582
 Alpha  occ. eigenvalues --   -0.40211  -0.40117  -0.40109  -0.39776  -0.39155
 Alpha  occ. eigenvalues --   -0.39116  -0.38382  -0.38222  -0.37602  -0.37212
 Alpha  occ. eigenvalues --   -0.36940  -0.36699  -0.36628  -0.36363  -0.36097
 Alpha  occ. eigenvalues --   -0.35996  -0.35493  -0.34334  -0.34163  -0.33934
 Alpha  occ. eigenvalues --   -0.33671  -0.33046  -0.32929  -0.31787  -0.31313
 Alpha  occ. eigenvalues --   -0.31205  -0.30892  -0.30753  -0.30551  -0.30327
 Alpha  occ. eigenvalues --   -0.29962  -0.29556  -0.28926  -0.24269  -0.23789
 Alpha  occ. eigenvalues --   -0.21249  -0.21243
 Alpha virt. eigenvalues --   -0.08751  -0.08540  -0.01783  -0.01696   0.00143
 Alpha virt. eigenvalues --    0.00572   0.02186   0.02325   0.02586   0.02739
 Alpha virt. eigenvalues --    0.04560   0.04754   0.05010   0.05539   0.05642

 Mulliken charges:
               1
     1  Mg  11.999996
     2  C    6.000102
     3  C    5.999779
     4  C    5.999936
     5  C    6.000201
     6  N    7.000026
     7  C    5.999833
     8  C    6.000039
     9  C    5.999855
    10  C    6.000334
    11  C    5.999987
    12  C    6.000020
    13  C    6.000000
    14  H    1.000009
    15  N    6.999892
    16  C    6.000421
    17  C    6.000114
    18  C    6.000151
    19  C    6.000256
    20  C    5.999966
    21  C    6.000111
    22  O    8.000235
    23  C    5.999941
    24  N    7.000079
    25  C    6.000243
    26  C    5.999944
    27  C    6.000060
    28  C    5.999675
    29  C    5.999955
    30  C    6.000050
    31  C    6.000042
    32  N    6.999988
    33  C    5.999571
    34  C    5.999835
    35  C    5.999922
    36  C    5.999743
    37  C    6.000056
    38  C    5.999857
    39  O    7.999716
    40  C    6.000017
    41  C    5.999956
    42  O    7.999957
    43  O    7.999987
    44  C    6.000027
    45  H    1.000086
    46  H    1.000061
    47  H    0.999881
    48  H    1.000047
    49  H    1.000048
    50  H    1.000054
    51  H    1.000122
    52  H    1.000001
    53  H    0.999924
    54  H    1.000031
    55  H    0.999969
    56  H    1.000019
    57  H    1.000169
    58  H    1.000206
    59  H    1.000128
    60  H    1.000053
    61  H    1.000100
    62  H    1.000135
    63  H    0.999994
    64  H    0.999981
    65  H    1.000027
    66  H    1.000081
    67  H    0.999973
    68  H    0.999895
    69  H    1.000005
    70  H    0.999908
    71  H    0.999924
    72  H    1.000070
    73  H    0.999790
    74  H    0.999813
    75  H    0.999817
    76  H    0.999911
    77  H    0.999981
    78  H    0.999980
    79  H    0.999932
    80  Mg  11.999888
    81  C    5.974985
    82  C    6.008909
    83  C    6.025501
    84  C    5.986803
    85  N    6.984200
    86  C    6.032115
    87  C    5.986506
    88  C    6.015689
    89  C    5.967110
    90  C    6.003492
    91  C    5.997389
    92  C    5.997872
    93  H    1.007161
    94  N    7.006730
    95  C    5.959792
    96  C    5.976869
    97  C    5.989744
    98  C    5.958897
    99  C    6.003423
   100  C    5.992408
   101  O    7.982812
   102  C    5.996790
   103  N    7.004104
   104  C    5.968884
   105  C    6.004245
   106  C    5.992424
   107  C    6.033860
   108  C    6.000442
   109  C    5.991595
   110  C    5.999852
   111  N    6.999602
   112  C    6.039943
   113  C    6.026943
   114  C    6.007709
   115  C    6.034276
   116  C    5.997080
   117  C    6.016702
   118  O    8.031430
   119  C    6.002916
   120  C    6.002294
   121  O    8.005175
   122  O    8.001164
   123  C    5.997754
   124  H    0.985925
   125  H    0.994329
   126  H    1.009021
   127  H    1.001585
   128  H    0.997024
   129  H    1.005787
   130  H    0.987602
   131  H    0.989151
   132  H    1.009767
   133  H    0.997846
   134  H    0.994932
   135  H    0.998953
   136  H    0.983336
   137  H    0.981357
   138  H    0.980056
   139  H    0.987764
   140  H    0.992644
   141  H    0.991735
   142  H    0.999577
   143  H    1.003621
   144  H    0.990723
   145  H    1.004319
   146  H    1.002289
   147  H    1.002402
   148  H    1.013360
   149  H    0.999923
   150  H    0.994196
   151  H    1.005950
   152  H    1.019121
   153  H    1.015851
   154  H    1.022651
   155  H    1.011053
   156  H    1.002080
   157  H    1.003176
   158  H    1.007418
 Sum of Mulliken charges = 624.00000

 Dipole moment (field-independent basis, Debye):
    X=             -5.8139    Y=             -9.0447    Z=             -1.0131  Tot=             10.7998
 Quadrupole moment (field-independent basis, Debye-Ang):
   XX=            279.2660   YY=             -7.5708   ZZ=              0.1407
   XY=            216.6137   XZ=             23.8325   YZ=             -1.0564

 Normal termination of Gaussian 16 at Wed Sep 22 07:32:45 2021.
