 Gaussian 16, Revision A.03,
 Gaussian 16:  ES64L-G16RevA.03 25-Dec-2016

 -----------------------------------
 #p cam-b3lyp/Def2SVP td=(nstates=5)
 -----------------------------------

 --------------------------------
 TDDFT excited states in gaussian
 --------------------------------
 Symbolic Z-matrix:
 Charge =  0 Multiplicity = 1

                         Standard orientation:
 ---------------------------------------------------------------------
 Center     Atomic      Atomic             Coordinates (Angstroms)
 Number     Number       Type             X           Y           Z
 ---------------------------------------------------------------------
      1         12           0       13.360526   -0.609194    0.109379
      2          6           0       12.370281    2.290402   -1.530472
      3          6           0       15.891106    1.087891    1.546591
      4          6           0       14.754013   -3.542712    1.053729
      5          6           0       11.241154   -2.457599   -2.045942
      6          7           0       13.912079    1.444735    0.028292
      7          6           0       13.324819    2.544216   -0.558901
      8          6           0       14.137461    3.829654   -0.241488
      9          6           0       15.485760    3.221551    0.253962
     10          6           0       15.052778    1.848932    0.747715
     11          6           0       16.591019    3.086192   -0.851786
     12          6           0       13.271842    4.721808    0.667008
     13          6           0       13.308893    6.161596    0.320608
     14          1           0       12.189999    6.948734    0.835006
     15          7           0       14.946185   -1.099896    1.332122
     16          6           0       15.835700   -0.229134    1.875285
     17          6           0       16.569815   -0.914126    2.909372
     18          6           0       16.224093   -2.306011    2.763541
     19          6           0       15.321381   -2.373520    1.610620
     20          6           0       17.563667   -0.249981    3.793446
     21          6           0       16.766107   -3.583671    3.483496
     22          8           0       16.347779   -4.717164    3.239196
     23          6           0       17.736315   -3.481543    4.627102
     24          7           0       13.244514   -2.691228   -0.706183
     25          6           0       13.865151   -3.751798    0.008653
     26          6           0       13.412109   -5.106256   -0.426087
     27          6           0       12.150506   -4.673370   -1.241504
     28          6           0       12.168621   -3.147691   -1.285203
     29          6           0       14.483120   -5.913782   -1.234839
     30          6           0       10.798356   -5.173702   -0.613886
     31          6           0       10.594363   -4.850044    0.888116
     32          7           0       11.985456   -0.207914   -1.393766
     33          6           0       11.158852   -1.055576   -2.147363
     34          6           0       10.402054   -0.222484   -3.004940
     35          6           0       10.832201    1.076650   -2.765237
     36          6           0       11.785850    1.021350   -1.802938
     37          6           0        9.321393   -0.682825   -3.930636
     38          6           0       10.692314    2.385650   -3.203473
     39          8           0        9.956941    2.846832   -4.095316
     40          6           0       11.671972    3.321576   -2.433321
     41          6           0       10.720595    4.334347   -1.722869
     42          8           0        9.946498    4.063359   -0.787650
     43          8           0       10.891126    5.577369   -2.322700
     44          6           0        9.914179    6.664251   -1.995872
     45          1           0       16.719925    1.720239    1.871864
     46          1           0       14.975341   -4.572858    1.343030
     47          1           0       10.426501   -2.950521   -2.580674
     48          1           0       14.257530    4.432788   -1.140811
     49          1           0       15.837269    3.788981    1.115176
     50          1           0       16.344452    3.497465   -1.831060
     51          1           0       16.766794    2.037983   -1.090171
     52          1           0       17.477471    3.630544   -0.526878
     53          1           0       13.731388    4.665348    1.652795
     54          1           0       12.256675    4.324379    0.649114
     55          1           0       13.237286    6.202804   -0.766382
     56          1           0       14.284569    6.558861    0.599804
     57          1           0       17.422275    0.830494    3.811389
     58          1           0       18.551067   -0.643433    3.549585
     59          1           0       17.383370   -0.552435    4.825065
     60          1           0       18.254581   -4.440719    4.627078
     61          1           0       17.208687   -3.386646    5.576435
     62          1           0       18.471785   -2.691679    4.471331
     63          1           0       13.082619   -5.746485    0.393432
     64          1           0       12.242039   -5.059951   -2.257042
     65          1           0       15.216749   -5.217493   -1.642025
     66          1           0       14.120846   -6.501940   -2.078152
     67          1           0       15.054750   -6.649160   -0.667928
     68          1           0       10.743224   -6.238410   -0.841373
     69          1           0       10.042619   -4.711910   -1.249179
     70          1           0        9.706170   -4.244741    1.070379
     71          1           0       11.495171   -4.333334    1.220430
     72          1           0       10.480623   -5.744950    1.499190
     73          1           0        9.610480   -0.328193   -4.919921
     74          1           0        8.379445   -0.267807   -3.572066
     75          1           0        9.222390   -1.763355   -4.035070
     76          1           0       12.274575    3.857942   -3.165835
     77          1           0        8.937157    6.293502   -2.305002
     78          1           0       10.061887    7.636863   -2.465141
     79          1           0       10.075715    6.663466   -0.917872
     80         12           0      -13.638801   -0.468725   -0.072916
     81          6           0      -11.359861    2.086579    0.562997
     82          6           0      -16.203429    1.820829    0.051481
     83          6           0      -15.735726   -3.092828   -0.418365
     84          6           0      -10.942004   -2.795117    0.218447
     85          7           0      -13.734272    1.657406    0.376470
     86          6           0      -12.698583    2.516613    0.577812
     87          6           0      -13.185173    3.968651    0.670024
     88          6           0      -14.765861    3.776264    0.642676
     89          6           0      -14.899552    2.285193    0.316000
     90          6           0      -15.408237    4.118165    1.981639
     91          6           0      -12.806098    4.897943   -0.537603
     92          6           0      -12.672731    6.372894   -0.260737
     93          1           0      -13.213431    6.927390    0.980596
     94          7           0      -15.641313   -0.593356   -0.256567
     95          6           0      -16.538538    0.489701   -0.167385
     96          6           0      -17.833120   -0.030753   -0.521261
     97          6           0      -17.744225   -1.432132   -0.717521
     98          6           0      -16.323676   -1.775085   -0.461172
     99          6           0      -19.104993    0.785734   -0.437107
    100          6           0      -18.753300   -2.421724   -1.126127
    101          8           0      -18.576026   -3.619514   -1.061025
    102          6           0      -20.202732   -1.962139   -1.524169
    103          7           0      -13.391848   -2.688000   -0.274313
    104          6           0      -14.402711   -3.498057   -0.377609
    105          6           0      -13.941091   -4.986417   -0.392937
    106          6           0      -12.429915   -4.916381   -0.268804
    107          6           0      -12.181436   -3.382431   -0.037118
    108          6           0      -14.731950   -5.828614    0.715424
    109          6           0      -11.693138   -5.520373   -1.482988
    110          6           0      -11.211490   -7.014487   -1.362435
    111          7           0      -11.617201   -0.422190    0.040161
    112          6           0      -10.636703   -1.438890    0.153877
    113          6           0       -9.338407   -0.889678    0.254415
    114          6           0       -9.618519    0.520887    0.503454
    115          6           0      -11.019083    0.700153    0.317114
    116          6           0       -8.056346   -1.667552    0.488635
    117          6           0       -8.945245    1.718780    0.846894
    118          8           0       -7.761121    1.975247    1.025068
    119          6           0      -10.139126    2.882529    0.810930
    120          6           0      -10.041288    3.583574    2.134005
    121          8           0      -10.162263    3.027860    3.230817
    122          8           0       -9.655754    4.950867    2.004642
    123          6           0       -9.525727    5.713888    3.285327
    124          1           0      -16.966362    2.601078    0.106647
    125          1           0      -16.484477   -3.883702   -0.343368
    126          1           0      -10.075359   -3.457380    0.264072
    127          1           0      -12.836337    4.343994    1.632327
    128          1           0      -15.257686    4.407565   -0.097256
    129          1           0      -14.720710    4.673714    2.618853
    130          1           0      -15.825209    3.245354    2.484807
    131          1           0      -16.200478    4.863599    1.912106
    132          1           0      -13.547212    4.735416   -1.319408
    133          1           0      -11.897957    4.481118   -0.973625
    134          1           0      -13.246534    6.890676   -1.029027
    135          1           0      -11.618627    6.647658   -0.299905
    136          1           0      -19.783688    0.443907    0.344246
    137          1           0      -19.580381    0.769491   -1.418736
    138          1           0      -18.983191    1.839407   -0.186547
    139          1           0      -20.736191   -1.820249   -0.583923
    140          1           0      -20.738791   -2.783398   -2.000048
    141          1           0      -20.177307   -1.013736   -2.059430
    142          1           0      -14.263269   -5.329394   -1.376308
    143          1           0      -12.080237   -5.349185    0.667219
    144          1           0      -14.034616   -6.313388    1.398527
    145          1           0      -15.287697   -6.672820    0.306826
    146          1           0      -15.328657   -5.085053    1.245384
    147          1           0      -10.815977   -4.892475   -1.643218
    148          1           0      -12.352598   -5.391344   -2.341351
    149          1           0      -10.236061   -7.007333   -0.874754
    150          1           0      -11.192025   -7.637040   -2.257150
    151          1           0      -11.913541   -7.385532   -0.616505
    152          1           0       -7.760136   -1.962883   -0.517573
    153          1           0       -8.235214   -2.558602    1.089249
    154          1           0       -7.310038   -1.192980    1.127040
    155          1           0       -9.963369    3.537879   -0.043037
    156          1           0       -8.737220    5.306382    3.916992
    157          1           0      -10.405511    5.813837    3.921565
    158          1           0       -9.187637    6.667172    2.879074
 ---------------------------------------------------------------------

 SCF Done:  E(RCAM-B3LYP) =  -4069.84579524     A.U. after   19 cycles

 Excitation energies and oscillator strengths:

 Excited State   1:      Singlet-A      1.6608 eV  746.55 nm  f=0.4045  <S**2>=0.000
     310 -> 316       -0.16205
     312 -> 314        0.68843
     310 <- 316       -0.10397
 This state for optimization and/or second-order correction.
 Total Energy, E(TD-HF/TD-DFT) =  -4069.78476295
 Copying the excited state density for this state as the 1-particle RhoCI density.

 Excited State   2:      Singlet-A      1.7261 eV  718.29 nm  f=0.3545  <S**2>=0.000
     309 -> 315       -0.17535
     311 -> 313        0.68593
     309 <- 315       -0.10549

 Excited State   3:      Singlet-A      2.2189 eV  558.76 nm  f=0.0887  <S**2>=0.000
     310 -> 314        0.63607
     312 -> 316        0.26908

 Excited State   4:      Singlet-A      2.2226 eV  557.84 nm  f=0.1829  <S**2>=0.000
     309 -> 313        0.64316
     311 -> 315        0.25838

 Excited State   5:      Singlet-A      2.9490 eV  420.42 nm  f=0.0000  <S**2>=0.000
     312 -> 313        0.70706

 The electronic state is 1-A.
 Alpha  occ. eigenvalues --  -46.88229 -46.87942 -19.24634 -19.24096 -19.19899
 Alpha  occ. eigenvalues --  -19.19399 -19.19232 -19.18653 -19.18167 -19.17556
 Alpha  occ. eigenvalues --  -14.42642 -14.41849 -14.41606 -14.41392 -14.40126
 Alpha  occ. eigenvalues --  -14.39305 -14.39256 -14.38411 -10.39920 -10.39013
 Alpha  occ. eigenvalues --  -10.35433 -10.35203 -10.34285 -10.33538 -10.31862
 Alpha  occ. eigenvalues --  -10.31654 -10.31562 -10.31134 -10.31111 -10.30866
 Alpha  occ. eigenvalues --  -10.30807 -10.30766 -10.30650 -10.30463 -10.30230
 Alpha  occ. eigenvalues --  -10.30148 -10.30137 -10.29656 -10.29219 -10.29112
 Alpha  occ. eigenvalues --  -10.28854 -10.28821 -10.28439 -10.28226 -10.28220
 Alpha  occ. eigenvalues --  -10.28155 -10.28123 -10.28058 -10.27997 -10.27889
 Alpha  occ. eigenvalues --  -10.27819 -10.27804 -10.27788 -10.27728 -10.27725
 Alpha  occ. eigenvalues --  -10.27719 -10.27578 -10.27574 -10.27467 -10.27462
 Alpha  occ. eigenvalues --  -10.27430 -10.27363 -10.27084 -10.26931 -10.26926
 Alpha  occ. eigenvalues --  -10.26833 -10.26767 -10.26641 -10.26439 -10.26325
 Alpha  occ. eigenvalues --  -10.26319 -10.26311 -10.26284 -10.26283 -10.25957
 Alpha  occ. eigenvalues --  -10.25869 -10.25849 -10.25811 -10.25807 -10.25766
 Alpha  occ. eigenvalues --  -10.25752 -10.25654 -10.25636 -10.25471 -10.24485
 Alpha  occ. eigenvalues --  -10.23689  -3.16825  -3.16637  -1.91705  -1.91549
 Alpha  occ. eigenvalues --   -1.91284  -1.91127  -1.91086  -1.90956  -1.14307
 Alpha  occ. eigenvalues --   -1.13394  -1.11088  -1.09393  -1.08572  -1.07847
 Alpha  occ. eigenvalues --   -1.06539  -1.05773  -1.05152  -1.04718  -1.03910
 Alpha  occ. eigenvalues --   -1.03811  -1.03427  -1.03337  -1.02382  -1.02136
 Alpha  occ. eigenvalues --   -0.92438  -0.92058  -0.89254  -0.89002  -0.88961
 Alpha  occ. eigenvalues --   -0.88937  -0.88498  -0.88370  -0.87728  -0.87708
 Alpha  occ. eigenvalues --   -0.87447  -0.87038  -0.86445  -0.86224  -0.84510
 Alpha  occ. eigenvalues --   -0.84291  -0.83413  -0.82950  -0.82164  -0.82077
 Alpha  occ. eigenvalues --   -0.81544  -0.81458  -0.80890  -0.80354  -0.80298
 Alpha  occ. eigenvalues --   -0.79985  -0.78753  -0.78119  -0.77231  -0.76981
 Alpha  occ. eigenvalues --   -0.76841  -0.76826  -0.75940  -0.75821  -0.75382
 Alpha  occ. eigenvalues --   -0.75024  -0.73157  -0.73082  -0.71960  -0.71581
 Alpha  occ. eigenvalues --   -0.69702  -0.69530  -0.68940  -0.68675  -0.67945
 Alpha  occ. eigenvalues --   -0.67443  -0.67252  -0.66444  -0.65748  -0.65246
 Alpha  occ. eigenvalues --   -0.65217  -0.64914  -0.64571  -0.64571  -0.64362
 Alpha  occ. eigenvalues --   -0.63974  -0.61462  -0.61352  -0.60314  -0.59800
 Alpha  occ. eigenvalues --   -0.59692  -0.59602  -0.59280  -0.59048  -0.58494
 Alpha  occ. eigenvalues --   -0.58344  -0.57741  -0.57474  -0.57313  -0.56898
 Alpha  occ. eigenvalues --   -0.56225  -0.55893  -0.55524  -0.55240  -0.54978
 Alpha  occ. eigenvalues --   -0.54937  -0.54663  -0.54587  -0.53967  -0.53455
 Alpha  occ. eigenvalues --   -0.53359  -0.53195  -0.52959  -0.52867  -0.52839
 Alpha  occ. eigenvalues --   -0.52714  -0.52454  -0.52375  -0.52332  -0.52217
 Alpha  occ. eigenvalues --   -0.52015  -0.51846  -0.51571  -0.51553  -0.51366
 Alpha  occ. eigenvalues --   -0.50976  -0.50522  -0.50406  -0.50257  -0.50103
 Alpha  occ. eigenvalues --   -0.49836  -0.49576  -0.49526  -0.49477  -0.49303
 Alpha  occ. eigenvalues --   -0.49250  -0.49108  -0.49048  -0.48828  -0.48671
 Alpha  occ. eigenvalues --   -0.48531  -0.48429  -0.48343  -0.48109  -0.47993
 Alpha  occ. eigenvalues --   -0.47888  -0.47619  -0.47595  -0.47464  -0.47274
 Alpha  occ. eigenvalues --   -0.47180  -0.47103  -0.46937  -0.46895  -0.46670
 Alpha  occ. eigenvalues --   -0.46524  -0.46205  -0.45895  -0.45738  -0.45610
 Alpha  occ. eigenvalues --   -0.45379  -0.45032  -0.45011  -0.44648  -0.44513
 Alpha  occ. eigenvalues --   -0.44499  -0.44392  -0.44219  -0.44087  -0.44055
 Alpha  occ. eigenvalues --   -0.43854  -0.43662  -0.43376  -0.43353  -0.43334
 Alpha  occ. eigenvalues --   -0.43097  -0.42983  -0.42966  -0.42842  -0.42605
 Alpha  occ. eigenvalues --   -0.42577  -0.42444  -0.42273  -0.41959  -0.41875
 Alpha  occ. eigenvalues --   -0.41796  -0.41661  -0.41495  -0.41460  -0.41267
 Alpha  occ. eigenvalues --   -0.40975  -0.40782  -0.40754  -0.40547  -0.40227
 Alpha  occ. eigenvalues --   -0.40204  -0.39862  -0.39825  -0.39395  -0.39068
 Alpha  occ. eigenvalues --   -0.38590  -0.38114  -0.37942  -0.37742  -0.37275
 Alpha  occ. eigenvalues --   -0.37193  -0.36948  -0.36739  -0.36505  -0.36125
 Alpha  occ. eigenvalues --   -0.35968  -0.35736  -0.34337  -0.34077  -0.33998
 Alpha  occ. eigenvalues --   -0.33811  -0.33473  -0.33134  -0.31625  -0.31225
 Alpha  occ. eigenvalues --   -0.31041  -0.30743  -0.30472  -0.29957  -0.29730
 Alpha  occ. eigenvalues --   -0.29627  -0.29441  -0.29312  -0.24150  -0.24149
 Alpha  occ. eigenvalues --   -0.21507  -0.21101
 Alpha virt. eigenvalues --   -0.09020  -0.08912  -0.01617  -0.01423   0.00249
 Alpha virt. eigenvalues --    0.00622   0.02293   0.02437   0.02519   0.03782
 Alpha virt. eigenvalues --    0.04753   0.05056   0.05171   0.05247   0.06166

 Mulliken charges:
               1
     1  Mg   0.820762
     2  C   -0.060338
     3  C   -0.109663
     4  C   -0.010516
     5  C   -0.097819
     6  N   -0.340021
     7  C   -0.020764
     8  C   -0.061545
     9  C   -0.031280
    10  C    0.010407
    11  C    0.081306
    12  C    0.079413
    13  C   -0.069006
    14  H    0.035641
    15  N   -0.383283
    16  C    0.220896
    17  C   -0.158661
    18  C   -0.040040
    19  C    0.171509
    20  C    0.117514
    21  C    0.010775
    22  O   -0.218764
    23  C    0.055199
    24  N   -0.251753
    25  C   -0.075070
    26  C   -0.004028
    27  C   -0.051283
    28  C    0.088367
    29  C    0.063783
    30  C    0.024267
    31  C    0.002141
    32  N   -0.340287
    33  C    0.098664
    34  C   -0.182126
    35  C    0.104110
    36  C    0.159890
    37  C    0.133481
    38  C   -0.059170
    39  O   -0.207549
    40  C    0.035587
    41  C    0.229317
    42  O   -0.241636
    43  O   -0.360391
    44  C    0.180225
    45  H   -0.026314
    46  H   -0.008936
    47  H   -0.020991
    48  H   -0.002308
    49  H   -0.007403
    50  H    0.013679
    51  H    0.031654
    52  H    0.021081
    53  H   -0.004200
    54  H    0.042794
    55  H    0.020584
    56  H    0.016681
    57  H    0.018532
    58  H    0.045383
    59  H    0.019737
    60  H    0.029354
    61  H    0.051886
    62  H    0.006291
    63  H    0.019234
    64  H    0.002931
    65  H    0.017729
    66  H    0.011123
    67  H    0.020465
    68  H    0.005116
    69  H   -0.001389
    70  H    0.023377
    71  H    0.027917
    72  H    0.019094
    73  H    0.034882
    74  H    0.045584
    75  H   -0.002660
    76  H    0.035995
    77  H    0.050673
    78  H    0.051051
    79  H    0.043108
    80  Mg   0.837733
    81  C   -0.064309
    82  C   -0.101922
    83  C   -0.064696
    84  C   -0.069204
    85  N   -0.258947
    86  C   -0.042791
    87  C    0.004735
    88  C   -0.089104
    89  C    0.049836
    90  C    0.062977
    91  C    0.057713
    92  C   -0.049627
    93  H    0.021366
    94  N   -0.445136
    95  C    0.218450
    96  C   -0.136287
    97  C    0.001329
    98  C    0.123245
    99  C    0.099308
   100  C   -0.029030
   101  O   -0.193761
   102  C    0.055184
   103  N   -0.251894
   104  C    0.025398
   105  C   -0.042204
   106  C    0.006447
   107  C    0.003624
   108  C    0.061061
   109  C    0.040847
   110  C    0.012896
   111  N   -0.354151
   112  C    0.120112
   113  C   -0.140481
   114  C   -0.036319
   115  C    0.156032
   116  C    0.107164
   117  C    0.042629
   118  O   -0.174493
   119  C   -0.012645
   120  C    0.224449
   121  O   -0.232369
   122  O   -0.374545
   123  C    0.182345
   124  H   -0.020921
   125  H    0.005610
   126  H   -0.023840
   127  H    0.019841
   128  H    0.013798
   129  H    0.012078
   130  H    0.027885
   131  H    0.000620
   132  H    0.000782
   133  H    0.001817
   134  H    0.026150
   135  H    0.043942
   136  H    0.040686
   137  H    0.027790
   138  H    0.006466
   139  H    0.030727
   140  H    0.029393
   141  H    0.018264
   142  H    0.021870
   143  H    0.001215
   144  H    0.008283
   145  H    0.023100
   146  H    0.031251
   147  H    0.001522
   148  H    0.002357
   149  H    0.015194
   150  H    0.031715
   151  H    0.007695
   152  H    0.031129
   153  H    0.017680
   154  H    0.040209
   155  H    0.042047
   156  H    0.040543
   157  H    0.036831
   158  H    0.035306
 Sum of Mulliken charges =  -0.00000

 Dipole moment (field-independent basis, Debye):
    X=             -2.1677    Y=              1.6689    Z=              0.3975  Tot=              2.7644
 Quadrupole moment (field-independent basis, Debye-Ang):
   XX=           -306.0102   YY=           -468.5445   ZZ=           -521.1839
   XY=            -19.4139   XZ=             39.2589   YZ=             14.4239

 Normal termination of Gaussian 16 at Wed Sep 15 11:27:45 2021.
