 Gaussian 16, Revision A.03,
 Gaussian 16:  ES64L-G16RevA.03 25-Dec-2016

 ----------------------------------------------------------
 #p cam-b3lyp/Def2SVP td=(nstates=5) density=(transition=1)
 ----------------------------------------------------------

 --------------------------------
 TDDFT excited states in gaussian
 --------------------------------
 Symbolic Z-matrix:
 Charge =  0 Multiplicity = 1

                         Standard orientation:
 ---------------------------------------------------------------------
 Center     Atomic      Atomic             Coordinates (Angstroms)
 Number     Number       Type             X           Y           Z
 ---------------------------------------------------------------------
      1         12           0      -14.465582   -0.022308    0.427250
      2          6           0      -12.369677    1.304739   -1.956024
      3          6           0      -16.476223   -1.420340   -1.966540
      4          6           0      -16.470747   -1.524508    2.875539
      5          6           0      -12.105058    0.587666    2.873077
      6          7           0      -14.233818   -0.187692   -1.722219
      7          6           0      -13.411626    0.573630   -2.557370
      8          6           0      -13.668507    0.259416   -4.033363
      9          6           0      -15.049033   -0.433740   -3.908067
     10          6           0      -15.265207   -0.799629   -2.425326
     11          6           0      -16.192246    0.368925   -4.566764
     12          6           0      -12.570129   -0.636541   -4.639321
     13          6           0      -12.078799   -0.274687   -6.083412
     14          1           0      -11.631057   -1.406522   -6.923294
     15          7           0      -16.216895   -1.220459    0.433137
     16          6           0      -16.941861   -1.611767   -0.639767
     17          6           0      -18.213951   -2.164925   -0.283096
     18          6           0      -18.307063   -2.086703    1.116199
     19          6           0      -16.950005   -1.556865    1.555056
     20          6           0      -19.290165   -2.577276   -1.289454
     21          6           0      -19.521359   -2.525840    2.012242
     22          8           0      -20.502153   -3.084319    1.457403
     23          6           0      -19.621092   -2.230094    3.570515
     24          7           0      -14.174294   -0.679601    2.527228
     25          6           0      -15.187045   -1.125545    3.309646
     26          6           0      -14.841508   -1.122031    4.776662
     27          6           0      -13.430087   -0.496728    4.802533
     28          6           0      -13.221536   -0.132075    3.330487
     29          6           0      -15.897409   -0.422348    5.695333
     30          6           0      -12.328988   -1.446256    5.476808
     31          6           0      -11.895810   -1.023574    6.885362
     32          7           0      -12.637234    0.826209    0.503771
     33          6           0      -11.751906    1.060282    1.578929
     34          6           0      -10.668545    1.944797    1.130038
     35          6           0      -10.935899    2.109688   -0.221878
     36          6           0      -12.048704    1.314536   -0.541697
     37          6           0       -9.525302    2.520983    1.886110
     38          6           0      -10.440647    2.751328   -1.448055
     39          8           0       -9.600587    3.647639   -1.631294
     40          6           0      -11.385074    2.287583   -2.628517
     41          6           0      -12.096851    3.472202   -3.268014
     42          8           0      -12.657659    4.412987   -2.697221
     43          8           0      -11.902301    3.276168   -4.603007
     44          6           0      -12.323601    4.351746   -5.484924
     45          1           0      -17.128443   -1.866007   -2.720372
     46          1           0      -17.044695   -1.876429    3.735365
     47          1           0      -11.323171    0.820720    3.598647
     48          1           0      -13.690295    1.187409   -4.605692
     49          1           0      -14.920235   -1.349675   -4.484678
     50          1           0      -15.957133    1.112329   -5.328424
     51          1           0      -16.642150    0.948021   -3.760471
     52          1           0      -16.939019   -0.278589   -5.025683
     53          1           0      -12.820691   -1.696402   -4.603602
     54          1           0      -11.758751   -0.613246   -3.911443
     55          1           0      -11.258845    0.439538   -6.008685
     56          1           0      -12.914745    0.161946   -6.631682
     57          1           0      -20.173789   -1.996732   -1.025320
     58          1           0      -19.341885   -3.664586   -1.347172
     59          1           0      -18.938156   -2.175404   -2.239512
     60          1           0      -19.085836   -3.039954    4.064836
     61          1           0      -20.680826   -2.278737    3.819826
     62          1           0      -19.335725   -1.185844    3.700675
     63          1           0      -14.790530   -2.158411    5.110703
     64          1           0      -13.347807    0.496496    5.243316
     65          1           0      -15.423687    0.245702    6.414111
     66          1           0      -16.503162   -1.134221    6.255752
     67          1           0      -16.624715    0.093963    5.070155
     68          1           0      -11.393672   -1.461891    4.917457
     69          1           0      -12.668845   -2.481723    5.459836
     70          1           0      -11.758285   -1.907907    7.507821
     71          1           0      -12.662135   -0.389574    7.330815
     72          1           0      -10.969125   -0.450498    6.909894
     73          1           0       -9.664111    2.259385    2.935128
     74          1           0       -9.369744    3.558972    1.591366
     75          1           0       -8.651170    1.939252    1.591603
     76          1           0      -10.851548    1.714006   -3.386915
     77          1           0      -13.303181    4.765199   -5.241622
     78          1           0      -12.335493    4.140611   -6.554197
     79          1           0      -11.611040    5.174816   -5.425172
     80         12           0       14.317128   -0.786618   -0.456066
     81          6           0       14.366409    2.596880    0.355551
     82          6           0       10.961218   -0.687317   -0.737910
     83          6           0       14.339447   -4.150531   -0.786323
     84          6           0       17.672828   -0.910409    0.327353
     85          7           0       12.828195    0.832617   -0.186778
     86          6           0       13.106704    2.170052   -0.063269
     87          6           0       11.859468    2.965965   -0.138329
     88          6           0       10.727126    1.974279   -0.429412
     89          6           0       11.501428    0.587459   -0.485329
     90          6           0        9.503202    1.968002    0.473296
     91          6           0       11.986079    4.172223   -1.231495
     92          6           0       11.857999    5.625071   -0.716629
     93          1           0       11.108865    6.665117   -1.512871
     94          7           0       12.877606   -2.202173   -0.843645
     95          6           0       11.511775   -1.972120   -0.913088
     96          6           0       10.833131   -3.199176   -1.121931
     97          6           0       11.800301   -4.240507   -1.136627
     98          6           0       13.075844   -3.544916   -0.937198
     99          6           0        9.280192   -3.157505   -1.403152
    100          6           0       11.489053   -5.731720   -1.251860
    101          8           0       12.323991   -6.646620   -1.186678
    102          6           0       10.119448   -6.165312   -1.541179
    103          7           0       15.721066   -2.401339   -0.030170
    104          6           0       15.546029   -3.667036   -0.349263
    105          6           0       16.778533   -4.512637    0.043185
    106          6           0       17.865630   -3.376494   -0.105903
    107          6           0       17.032150   -2.108513    0.050264
    108          6           0       16.872783   -5.185870    1.462390
    109          6           0       18.721512   -3.361450   -1.461877
    110          6           0       17.999680   -3.216946   -2.738649
    111          7           0       15.839492    0.541926    0.273927
    112          6           0       17.208672    0.343240    0.539006
    113          6           0       17.788703    1.572523    0.977414
    114          6           0       16.735719    2.465398    0.992533
    115          6           0       15.583938    1.807817    0.448847
    116          6           0       19.104798    1.744289    1.561436
    117          6           0       16.426938    3.812203    1.111652
    118          8           0       17.110304    4.786052    1.444319
    119          6           0       14.868544    3.984060    0.810255
    120          6           0       14.245811    4.321203    2.124635
    121          8           0       14.213673    3.725114    3.180752
    122          8           0       13.697048    5.524255    1.946896
    123          6           0       12.966087    6.094239    3.125754
    124          1           0        9.926096   -0.483362   -1.019559
    125          1           0       14.319060   -5.208482   -1.053484
    126          1           0       18.748797   -0.951829    0.507933
    127          1           0       11.746488    3.397173    0.855580
    128          1           0       10.364622    2.141468   -1.443439
    129          1           0        9.848360    1.172732    1.132937
    130          1           0        8.547720    1.803279   -0.025037
    131          1           0        9.287732    2.834179    1.098332
    132          1           0       11.256196    4.002943   -2.022596
    133          1           0       12.968871    4.237270   -1.699067
    134          1           0       12.872376    6.024518   -0.696122
    135          1           0       11.536571    5.663892    0.323328
    136          1           0        8.788053   -3.845613   -0.716095
    137          1           0        9.318135   -3.609592   -2.394327
    138          1           0        8.749438   -2.218517   -1.245667
    139          1           0        9.424685   -5.796900   -0.787682
    140          1           0       10.096706   -7.229692   -1.308545
    141          1           0        9.785521   -6.001673   -2.566106
    142          1           0       17.012266   -5.177746   -0.788259
    143          1           0       18.555004   -3.576705    0.713982
    144          1           0       16.504886   -4.587982    2.295360
    145          1           0       17.938716   -5.401422    1.544362
    146          1           0       16.307059   -6.117659    1.485386
    147          1           0       19.307926   -4.268314   -1.611609
    148          1           0       19.310363   -2.448053   -1.545411
    149          1           0       17.827870   -2.143402   -2.802845
    150          1           0       17.027076   -3.695030   -2.859087
    151          1           0       18.516785   -3.480240   -3.660766
    152          1           0       18.960144    1.456559    2.603458
    153          1           0       19.505886    2.756751    1.525139
    154          1           0       19.884963    1.183547    1.045480
    155          1           0       14.657870    4.695395    0.011609
    156          1           0       11.912964    5.993243    2.862443
    157          1           0       13.277637    7.126002    3.286972
    158          1           0       13.072942    5.577644    4.080010
 ---------------------------------------------------------------------

 SCF Done:  E(RCAM-B3LYP) =  -4069.80419516     A.U. after   19 cycles

 Excitation energies and oscillator strengths:

 Excited State   1:      Singlet-A      1.7042 eV  727.52 nm  f=0.5753  <S**2>=0.000
     310 -> 316        0.16774
     311 -> 313        0.65751
     312 -> 314        0.19599
     310 <- 316        0.10168
 This state for optimization and/or second-order correction.
 Total Energy, E(TD-HF/TD-DFT) =  -4069.74156708
 Copying the excited state density for this state as the 1-particle RhoCI density.

 Excited State   2:      Singlet-A      1.7096 eV  725.23 nm  f=0.1672  <S**2>=0.000
     309 -> 315       -0.16728
     311 -> 313       -0.19581
     312 -> 314        0.65752
     309 <- 315       -0.10081

 Excited State   3:      Singlet-A      2.1768 eV  569.57 nm  f=0.1385  <S**2>=0.000
     310 -> 313        0.65150
     311 -> 316       -0.26303

 Excited State   4:      Singlet-A      2.2477 eV  551.60 nm  f=0.0929  <S**2>=0.000
     309 -> 314        0.62550
     312 -> 315        0.31548

 Excited State   5:      Singlet-A      2.9824 eV  415.72 nm  f=0.0000  <S**2>=0.000
     312 -> 313        0.70708

 The electronic state is 1-A.
 Alpha  occ. eigenvalues --  -46.89330 -46.89240 -19.26434 -19.25028 -19.20335
 Alpha  occ. eigenvalues --  -19.19742 -19.19058 -19.18661 -19.18520 -19.18199
 Alpha  occ. eigenvalues --  -14.42474 -14.42237 -14.41987 -14.41818 -14.40293
 Alpha  occ. eigenvalues --  -14.39691 -14.39176 -14.38976 -10.40027 -10.38598
 Alpha  occ. eigenvalues --  -10.36734 -10.35067 -10.34825 -10.34143 -10.32268
 Alpha  occ. eigenvalues --  -10.32122 -10.31681 -10.31659 -10.31410 -10.31251
 Alpha  occ. eigenvalues --  -10.31192 -10.31160 -10.30616 -10.30543 -10.30467
 Alpha  occ. eigenvalues --  -10.30274 -10.30096 -10.29779 -10.29740 -10.29095
 Alpha  occ. eigenvalues --  -10.28974 -10.28888 -10.28660 -10.28557 -10.28545
 Alpha  occ. eigenvalues --  -10.28529 -10.28517 -10.28414 -10.28254 -10.28219
 Alpha  occ. eigenvalues --  -10.28144 -10.28083 -10.28082 -10.28044 -10.27983
 Alpha  occ. eigenvalues --  -10.27871 -10.27852 -10.27810 -10.27793 -10.27778
 Alpha  occ. eigenvalues --  -10.27676 -10.27525 -10.27508 -10.27496 -10.27467
 Alpha  occ. eigenvalues --  -10.27455 -10.27359 -10.27143 -10.27053 -10.26977
 Alpha  occ. eigenvalues --  -10.26793 -10.26642 -10.26489 -10.26462 -10.26374
 Alpha  occ. eigenvalues --  -10.26339 -10.26236 -10.26117 -10.26050 -10.26029
 Alpha  occ. eigenvalues --  -10.25823 -10.25796 -10.25575 -10.24728 -10.24656
 Alpha  occ. eigenvalues --  -10.24646  -3.17772  -3.17739  -1.92641  -1.92639
 Alpha  occ. eigenvalues --   -1.92215  -1.92173  -1.92103  -1.92056  -1.16990
 Alpha  occ. eigenvalues --   -1.16908  -1.09119  -1.08675  -1.08550  -1.08432
 Alpha  occ. eigenvalues --   -1.07824  -1.07343  -1.05414  -1.04740  -1.04247
 Alpha  occ. eigenvalues --   -1.04070  -1.03585  -1.03373  -1.02617  -1.02217
 Alpha  occ. eigenvalues --   -0.92201  -0.91488  -0.89212  -0.88938  -0.88902
 Alpha  occ. eigenvalues --   -0.88763  -0.88729  -0.88361  -0.87956  -0.87588
 Alpha  occ. eigenvalues --   -0.87347  -0.87051  -0.86854  -0.86457  -0.84623
 Alpha  occ. eigenvalues --   -0.84380  -0.84283  -0.83960  -0.83059  -0.82574
 Alpha  occ. eigenvalues --   -0.81996  -0.81700  -0.81551  -0.81185  -0.80729
 Alpha  occ. eigenvalues --   -0.80257  -0.78742  -0.78002  -0.77649  -0.77541
 Alpha  occ. eigenvalues --   -0.77372  -0.76811  -0.75956  -0.75932  -0.75360
 Alpha  occ. eigenvalues --   -0.75358  -0.73471  -0.72773  -0.71790  -0.71666
 Alpha  occ. eigenvalues --   -0.69380  -0.69259  -0.69084  -0.69036  -0.67955
 Alpha  occ. eigenvalues --   -0.67757  -0.67315  -0.67197  -0.66192  -0.65744
 Alpha  occ. eigenvalues --   -0.65377  -0.65144  -0.65061  -0.64809  -0.64623
 Alpha  occ. eigenvalues --   -0.63960  -0.62755  -0.62048  -0.60429  -0.60011
 Alpha  occ. eigenvalues --   -0.59913  -0.59661  -0.59298  -0.58988  -0.58671
 Alpha  occ. eigenvalues --   -0.58605  -0.58250  -0.57913  -0.57798  -0.57302
 Alpha  occ. eigenvalues --   -0.56426  -0.56029  -0.55827  -0.55764  -0.55470
 Alpha  occ. eigenvalues --   -0.55414  -0.55082  -0.55040  -0.54820  -0.54693
 Alpha  occ. eigenvalues --   -0.53829  -0.53436  -0.53384  -0.53246  -0.53204
 Alpha  occ. eigenvalues --   -0.52982  -0.52854  -0.52682  -0.52660  -0.52178
 Alpha  occ. eigenvalues --   -0.52076  -0.51890  -0.51654  -0.51422  -0.51243
 Alpha  occ. eigenvalues --   -0.51165  -0.51156  -0.51071  -0.50940  -0.50359
 Alpha  occ. eigenvalues --   -0.50005  -0.49786  -0.49715  -0.49528  -0.49442
 Alpha  occ. eigenvalues --   -0.49397  -0.49191  -0.49119  -0.48977  -0.48574
 Alpha  occ. eigenvalues --   -0.48494  -0.48346  -0.48328  -0.48212  -0.48064
 Alpha  occ. eigenvalues --   -0.47913  -0.47747  -0.47535  -0.47361  -0.47247
 Alpha  occ. eigenvalues --   -0.47104  -0.46926  -0.46827  -0.46655  -0.46644
 Alpha  occ. eigenvalues --   -0.46454  -0.46233  -0.46066  -0.45983  -0.45797
 Alpha  occ. eigenvalues --   -0.45635  -0.45322  -0.45240  -0.44836  -0.44622
 Alpha  occ. eigenvalues --   -0.44501  -0.44465  -0.44181  -0.44105  -0.44046
 Alpha  occ. eigenvalues --   -0.43858  -0.43839  -0.43716  -0.43547  -0.43351
 Alpha  occ. eigenvalues --   -0.43345  -0.43180  -0.43005  -0.42930  -0.42535
 Alpha  occ. eigenvalues --   -0.42513  -0.42490  -0.42211  -0.42188  -0.42105
 Alpha  occ. eigenvalues --   -0.42021  -0.41811  -0.41649  -0.41596  -0.41216
 Alpha  occ. eigenvalues --   -0.41053  -0.40957  -0.40859  -0.40705  -0.40667
 Alpha  occ. eigenvalues --   -0.40151  -0.39779  -0.39515  -0.39424  -0.38924
 Alpha  occ. eigenvalues --   -0.38753  -0.38452  -0.38221  -0.38057  -0.38007
 Alpha  occ. eigenvalues --   -0.37683  -0.37451  -0.37002  -0.36920  -0.36480
 Alpha  occ. eigenvalues --   -0.36355  -0.36109  -0.34937  -0.34862  -0.34466
 Alpha  occ. eigenvalues --   -0.34291  -0.33469  -0.33099  -0.31642  -0.31468
 Alpha  occ. eigenvalues --   -0.31260  -0.31031  -0.30557  -0.30525  -0.30521
 Alpha  occ. eigenvalues --   -0.30445  -0.29975  -0.29905  -0.24266  -0.24006
 Alpha  occ. eigenvalues --   -0.21430  -0.21149
 Alpha virt. eigenvalues --   -0.08969  -0.08646  -0.02087  -0.01608   0.00107
 Alpha virt. eigenvalues --    0.00292   0.01574   0.01912   0.02025   0.02473
 Alpha virt. eigenvalues --    0.04917   0.04981   0.05355   0.06124   0.06524

 Mulliken charges:
               1
     1  Mg  11.999452
     2  C    6.009252
     3  C    5.994800
     4  C    5.990928
     5  C    6.001404
     6  N    7.004574
     7  C    5.989023
     8  C    6.002195
     9  C    5.997299
    10  C    6.009716
    11  C    5.999048
    12  C    5.999992
    13  C    6.000445
    14  H    0.998607
    15  N    6.997153
    16  C    6.011969
    17  C    6.005456
    18  C    6.003935
    19  C    6.013685
    20  C    5.999087
    21  C    6.002809
    22  O    8.005961
    23  C    6.000366
    24  N    6.997772
    25  C    6.011622
    26  C    5.996055
    27  C    6.002557
    28  C    5.990734
    29  C    5.999788
    30  C    6.001010
    31  C    6.000239
    32  N    7.000738
    33  C    5.987539
    34  C    5.993223
    35  C    5.998403
    36  C    5.991047
    37  C    6.001066
    38  C    5.995281
    39  O    7.990751
    40  C    5.999605
    41  C    5.998507
    42  O    7.999523
    43  O    7.999439
    44  C    6.000531
    45  H    1.002944
    46  H    1.001652
    47  H    0.995931
    48  H    1.000567
    49  H    1.001670
    50  H    1.004054
    51  H    1.000352
    52  H    0.999928
    53  H    0.997246
    54  H    1.002053
    55  H    1.001331
    56  H    0.998933
    57  H    1.004553
    58  H    1.005152
    59  H    1.004820
    60  H    1.002903
    61  H    1.003390
    62  H    1.002416
    63  H    1.000637
    64  H    1.001018
    65  H    1.003255
    66  H    0.999610
    67  H    0.999204
    68  H    1.000830
    69  H    0.996515
    70  H    0.998382
    71  H    0.998530
    72  H    1.000605
    73  H    0.995282
    74  H    0.995236
    75  H    0.993782
    76  H    0.997603
    77  H    0.998690
    78  H    0.998453
    79  H    0.999888
    80  Mg  12.003512
    81  C    6.032833
    82  C    5.992935
    83  C    5.966881
    84  C    5.991889
    85  N    7.018963
    86  C    5.963603
    87  C    6.011766
    88  C    5.994433
    89  C    6.024764
    90  C    5.997788
    91  C    6.002330
    92  C    6.000134
    93  H    0.996423
    94  N    6.990552
    95  C    6.040150
    96  C    6.017575
    97  C    6.014694
    98  C    6.039171
    99  C    5.999410
   100  C    6.011792
   101  O    8.028030
   102  C    5.991548
   103  N    6.978300
   104  C    6.040491
   105  C    5.989934
   106  C    6.009253
   107  C    5.979034
   108  C    6.000954
   109  C    6.009915
   110  C    5.999046
   111  N    7.006428
   112  C    5.966147
   113  C    5.972139
   114  C    5.992184
   115  C    5.968025
   116  C    6.004480
   117  C    5.991227
   118  O    7.965870
   119  C    5.997923
   120  C    5.996138
   121  O    7.997713
   122  O    7.998880
   123  C    6.002264
   124  H    1.014239
   125  H    1.000210
   126  H    0.984736
   127  H    1.000475
   128  H    1.003274
   129  H    0.998971
   130  H    1.001729
   131  H    1.013671
   132  H    0.992577
   133  H    1.004812
   134  H    1.005580
   135  H    0.999748
   136  H    1.017928
   137  H    1.015436
   138  H    1.015733
   139  H    1.005002
   140  H    1.013899
   141  H    1.008711
   142  H    0.998345
   143  H    0.994518
   144  H    1.004161
   145  H    1.007139
   146  H    0.993786
   147  H    0.989044
   148  H    1.003308
   149  H    1.007050
   150  H    0.983294
   151  H    0.995307
   152  H    0.979688
   153  H    0.983532
   154  H    0.983505
   155  H    0.993256
   156  H    0.993430
   157  H    0.998381
   158  H    0.998007
 Sum of Mulliken charges = 624.00000

 Dipole moment (field-independent basis, Debye):
    X=            -11.0042    Y=             -7.1126    Z=             -2.5213  Tot=             13.3430
 Quadrupole moment (field-independent basis, Debye-Ang):
   XX=           -158.6301   YY=              8.1819   ZZ=             -1.1381
   XY=            -52.8167   XZ=            -30.4674   YZ=              1.0229

 Normal termination of Gaussian 16 at Thu Sep 23 10:45:23 2021.
