 Gaussian 16, Revision A.03,
 Gaussian 16:  ES64L-G16RevA.03 25-Dec-2016

 -----------------------------------
 #p cam-b3lyp/Def2SVP td=(nstates=5)
 -----------------------------------

 --------------------------------
 TDDFT excited states in gaussian
 --------------------------------
 Symbolic Z-matrix:
 Charge =  0 Multiplicity = 1

                         Standard orientation:
 ---------------------------------------------------------------------
 Center     Atomic      Atomic             Coordinates (Angstroms)
 Number     Number       Type             X           Y           Z
 ---------------------------------------------------------------------
      1         12           0       16.292110   -0.580245    0.351770
      2          6           0       15.593251    2.576062   -1.085335
      3          6           0       17.834726    1.031180    2.985269
      4          6           0       17.203531   -3.613327    1.556490
      5          6           0       14.904882   -2.173181   -2.446008
      6          7           0       16.708199    1.558780    0.743506
      7          6           0       16.147382    2.686533    0.148782
      8          6           0       16.513433    4.003951    0.947424
      9          6           0       17.447381    3.453002    2.057699
     10          6           0       17.389693    1.915487    1.915848
     11          6           0       18.940251    3.952595    2.087351
     12          6           0       15.304878    4.928328    1.386313
     13          6           0       15.338716    6.324571    0.842506
     14          1           0       14.820816    7.459694    1.811923
     15          7           0       17.355977   -1.138808    2.002584
     16          6           0       17.862647   -0.359070    3.022408
     17          6           0       18.537942   -1.208561    3.990933
     18          6           0       18.381825   -2.574914    3.622824
     19          6           0       17.590453   -2.501233    2.339853
     20          6           0       19.163265   -0.693295    5.302855
     21          6           0       18.839222   -3.843789    4.335035
     22          8           0       18.566400   -4.965417    3.959678
     23          6           0       19.632028   -3.859273    5.705875
     24          7           0       16.160853   -2.623858   -0.409772
     25          6           0       16.602631   -3.672884    0.271593
     26          6           0       16.311514   -5.024412   -0.473212
     27          6           0       15.394223   -4.559322   -1.672587
     28          6           0       15.454497   -3.010864   -1.505466
     29          6           0       17.619261   -5.795515   -0.814746
     30          6           0       14.014118   -5.183559   -1.612830
     31          6           0       13.481189   -5.648632   -2.966869
     32          7           0       15.529008   -0.026176   -1.505648
     33          6           0       14.913528   -0.760750   -2.501006
     34          6           0       14.565766    0.149397   -3.548480
     35          6           0       14.757880    1.463205   -3.053781
     36          6           0       15.367349    1.330206   -1.775019
     37          6           0       14.009645   -0.216874   -4.872095
     38          6           0       14.533537    2.892031   -3.334534
     39          8           0       14.158685    3.496277   -4.335169
     40          6           0       15.087788    3.688893   -1.921214
     41          6           0       16.103348    4.633334   -2.268432
     42          8           0       17.288888    4.474411   -2.073476
     43          8           0       15.545198    5.803652   -2.730812
     44          6           0       16.564526    6.794436   -3.157449
     45          1           0       18.221504    1.496844    3.894331
     46          1           0       17.513076   -4.611350    1.871998
     47          1           0       14.414433   -2.748027   -3.235164
     48          1           0       17.212211    4.523620    0.292753
     49          1           0       17.048120    3.683946    3.045345
     50          1           0       19.195743    4.103680    3.136623
     51          1           0       19.006232    4.874522    1.510119
     52          1           0       19.658307    3.249490    1.664820
     53          1           0       15.301891    4.913895    2.476302
     54          1           0       14.398908    4.464266    0.996113
     55          1           0       14.714680    6.386179   -0.050025
     56          1           0       16.385948    6.466331    0.576964
     57          1           0       18.538465   -1.107995    6.093102
     58          1           0       19.004146    0.383083    5.371816
     59          1           0       20.194073   -0.996573    5.490211
     60          1           0       19.038157   -3.316132    6.441797
     61          1           0       20.688876   -3.619052    5.586107
     62          1           0       19.768078   -4.917687    5.925999
     63          1           0       15.698521   -5.715745    0.104713
     64          1           0       15.944997   -4.808185   -2.579893
     65          1           0       17.593165   -6.061713   -1.871802
     66          1           0       17.798544   -6.652785   -0.165372
     67          1           0       18.477931   -5.144403   -0.659316
     68          1           0       13.280078   -4.516227   -1.162408
     69          1           0       13.937803   -6.037594   -0.938060
     70          1           0       14.109241   -5.296068   -3.785072
     71          1           0       12.496617   -5.193493   -3.078024
     72          1           0       13.297508   -6.722761   -2.996134
     73          1           0       13.867328   -1.277246   -5.080331
     74          1           0       14.548069    0.387943   -5.602746
     75          1           0       12.956635    0.045954   -4.768348
     76          1           0       14.248657    4.206217   -1.455224
     77          1           0       17.175540    6.375207   -3.957136
     78          1           0       17.107196    7.074245   -2.254537
     79          1           0       16.127313    7.697355   -3.581904
     80         12           0      -15.945417   -0.749946    0.102445
     81          6           0      -17.916324    1.881911    1.241769
     82          6           0      -13.570712    1.430231   -0.876856
     83          6           0      -14.323593   -3.323415   -1.371468
     84          6           0      -18.614636   -2.854480    0.682099
     85          7           0      -15.804048    1.460438    0.177111
     86          6           0      -16.636422    2.297255    0.875999
     87          6           0      -16.095890    3.676571    0.881056
     88          6           0      -14.737811    3.614474    0.172443
     89          6           0      -14.629974    2.076268   -0.212569
     90          6           0      -14.465245    4.565871   -0.982313
     91          6           0      -16.030526    4.286463    2.394284
     92          6           0      -16.878152    5.543655    2.699666
     93          1           0      -16.336443    6.649042    3.572346
     94          7           0      -14.142160   -0.947123   -0.864830
     95          6           0      -13.284153    0.089439   -1.200396
     96          6           0      -12.179230   -0.423936   -1.925263
     97          6           0      -12.372999   -1.822031   -2.091954
     98          6           0      -13.644764   -2.089012   -1.412275
     99          6           0      -10.986784    0.553590   -2.264314
    100          6           0      -11.458113   -2.750406   -2.888806
    101          8           0      -11.665952   -3.954643   -3.101007
    102          6           0      -10.180557   -2.245188   -3.398837
    103          7           0      -16.454717   -2.772442   -0.537774
    104          6           0      -15.603230   -3.659104   -1.010264
    105          6           0      -16.305761   -5.006545   -1.291294
    106          6           0      -17.427470   -4.890312   -0.185361
    107          6           0      -17.505963   -3.383534    0.038946
    108          6           0      -16.944765   -5.301905   -2.698669
    109          6           0      -17.181777   -5.683079    1.186711
    110          6           0      -15.983777   -5.349880    1.977814
    111          7           0      -17.975259   -0.606706    0.791456
    112          6           0      -18.967901   -1.585592    0.993546
    113          6           0      -20.147430   -0.964239    1.505801
    114          6           0      -19.833129    0.378931    1.563598
    115          6           0      -18.450994    0.530201    1.215136
    116          6           0      -21.456687   -1.574366    1.633399
    117          6           0      -20.273839    1.599731    2.052310
    118          8           0      -21.349164    1.945211    2.552668
    119          6           0      -19.121038    2.673650    1.794017
    120          6           0      -19.647773    3.570115    0.722589
    121          8           0      -20.014265    3.345519   -0.411863
    122          8           0      -19.685958    4.783138    1.276830
    123          6           0      -20.157219    5.896784    0.389926
    124          1           0      -12.793778    2.195011   -0.939214
    125          1           0      -13.695857   -4.145641   -1.719238
    126          1           0      -19.426799   -3.543750    0.921540
    127          1           0      -16.808941    4.255048    0.294981
    128          1           0      -13.949770    3.782411    0.906201
    129          1           0      -14.758014    3.876602   -1.773456
    130          1           0      -13.452426    4.965226   -1.038271
    131          1           0      -15.070991    5.464314   -1.097348
    132          1           0      -14.988634    4.482602    2.645714
    133          1           0      -16.431514    3.615115    3.154043
    134          1           0      -17.739909    5.191419    3.267329
    135          1           0      -17.312239    5.973530    1.797940
    136          1           0      -10.781685    0.487694   -3.332646
    137          1           0      -10.216273    0.008400   -1.719035
    138          1           0      -11.128223    1.621599   -2.098325
    139          1           0      -10.331253   -1.383935   -4.048232
    140          1           0       -9.852526   -2.977313   -4.136352
    141          1           0       -9.403492   -2.100307   -2.647877
    142          1           0      -15.672502   -5.806016   -0.906418
    143          1           0      -18.302049   -5.329328   -0.664849
    144          1           0      -17.460481   -4.465737   -3.169324
    145          1           0      -17.615903   -6.132415   -2.476806
    146          1           0      -16.182465   -5.625413   -3.407924
    147          1           0      -17.096012   -6.761599    1.052027
    148          1           0      -17.914877   -5.399413    1.941771
    149          1           0      -16.287994   -4.454318    2.517775
    150          1           0      -15.055618   -5.101567    1.462168
    151          1           0      -15.656496   -6.050289    2.745496
    152          1           0      -21.870936   -1.500274    0.627203
    153          1           0      -22.135163   -1.087528    2.333347
    154          1           0      -21.425539   -2.588983    2.032001
    155          1           0      -18.797877    3.188117    2.699061
    156          1           0      -19.249228    6.450169    0.149263
    157          1           0      -20.904166    6.492452    0.914176
    158          1           0      -20.588690    5.622756   -0.573213
 ---------------------------------------------------------------------

 SCF Done:  E(RCAM-B3LYP) =  -4069.78771226     A.U. after   19 cycles

 Excitation energies and oscillator strengths:

 Excited State   1:      Singlet-A      1.7047 eV  727.32 nm  f=0.3763  <S**2>=0.000
     310 -> 316        0.17518
     311 -> 313        0.68596
     310 <- 316        0.10613
 This state for optimization and/or second-order correction.
 Total Energy, E(TD-HF/TD-DFT) =  -4069.72506690
 Copying the excited state density for this state as the 1-particle RhoCI density.

 Excited State   2:      Singlet-A      1.7839 eV  695.02 nm  f=0.3719  <S**2>=0.000
     309 -> 315        0.17648
     312 -> 314        0.68521
     309 <- 315        0.10144

 Excited State   3:      Singlet-A      2.1770 eV  569.53 nm  f=0.1373  <S**2>=0.000
     310 -> 313        0.65147
     311 -> 316       -0.26311

 Excited State   4:      Singlet-A      2.2587 eV  548.91 nm  f=0.1144  <S**2>=0.000
     309 -> 314        0.63967
     312 -> 315       -0.28424

 Excited State   5:      Singlet-A      3.0713 eV  403.68 nm  f=0.0000  <S**2>=0.000
     312 -> 313        0.70709

 The electronic state is 1-A.
 Alpha  occ. eigenvalues --  -46.89356 -46.88262 -19.25059 -19.24364 -19.19910
 Alpha  occ. eigenvalues --  -19.19417 -19.19255 -19.19087 -19.18681 -19.18225
 Alpha  occ. eigenvalues --  -14.42300 -14.42015 -14.41843 -14.41791 -14.40369
 Alpha  occ. eigenvalues --  -14.39717 -14.39002 -14.38751 -10.38627 -10.38354
 Alpha  occ. eigenvalues --  -10.36427 -10.36026 -10.35087 -10.34171 -10.32549
 Alpha  occ. eigenvalues --  -10.32006 -10.31713 -10.31439 -10.31300 -10.31300
 Alpha  occ. eigenvalues --  -10.31221 -10.31158 -10.30640 -10.30299 -10.30215
 Alpha  occ. eigenvalues --  -10.30200 -10.30120 -10.29838 -10.29806 -10.29120
 Alpha  occ. eigenvalues --  -10.29001 -10.28893 -10.28743 -10.28685 -10.28684
 Alpha  occ. eigenvalues --  -10.28565 -10.28553 -10.28525 -10.28297 -10.28170
 Alpha  occ. eigenvalues --  -10.28056 -10.28022 -10.27900 -10.27880 -10.27837
 Alpha  occ. eigenvalues --  -10.27815 -10.27814 -10.27697 -10.27636 -10.27534
 Alpha  occ. eigenvalues --  -10.27520 -10.27495 -10.27489 -10.27392 -10.27171
 Alpha  occ. eigenvalues --  -10.27155 -10.26936 -10.26812 -10.26745 -10.26525
 Alpha  occ. eigenvalues --  -10.26514 -10.26479 -10.26397 -10.26364 -10.26278
 Alpha  occ. eigenvalues --  -10.26275 -10.26052 -10.26008 -10.25847 -10.25821
 Alpha  occ. eigenvalues --  -10.25592 -10.25317 -10.25176 -10.24907 -10.24751
 Alpha  occ. eigenvalues --  -10.24672  -3.17765  -3.16792  -1.92668  -1.92199
 Alpha  occ. eigenvalues --   -1.92082  -1.91700  -1.91242  -1.91099  -1.17021
 Alpha  occ. eigenvalues --   -1.15908  -1.11540  -1.09297  -1.09138  -1.08577
 Alpha  occ. eigenvalues --   -1.07465  -1.07373  -1.05438  -1.04273  -1.04117
 Alpha  occ. eigenvalues --   -1.03400  -1.02644  -1.02499  -1.01994  -1.00973
 Alpha  occ. eigenvalues --   -0.92228  -0.91882  -0.89237  -0.89167  -0.88763
 Alpha  occ. eigenvalues --   -0.88470  -0.88387  -0.88074  -0.87981  -0.87615
 Alpha  occ. eigenvalues --   -0.87251  -0.86925  -0.86878  -0.85641  -0.84653
 Alpha  occ. eigenvalues --   -0.84413  -0.84306  -0.83671  -0.83088  -0.82538
 Alpha  occ. eigenvalues --   -0.82022  -0.81578  -0.81069  -0.80756  -0.80751
 Alpha  occ. eigenvalues --   -0.80131  -0.78767  -0.78465  -0.77679  -0.77398
 Alpha  occ. eigenvalues --   -0.76971  -0.76488  -0.75963  -0.75797  -0.75383
 Alpha  occ. eigenvalues --   -0.74751  -0.73497  -0.72277  -0.71694  -0.71334
 Alpha  occ. eigenvalues --   -0.69405  -0.69109  -0.69088  -0.68880  -0.67790
 Alpha  occ. eigenvalues --   -0.67457  -0.67274  -0.67227  -0.65773  -0.65661
 Alpha  occ. eigenvalues --   -0.65406  -0.64836  -0.64834  -0.64620  -0.64385
 Alpha  occ. eigenvalues --   -0.63986  -0.62076  -0.61181  -0.60452  -0.60068
 Alpha  occ. eigenvalues --   -0.59940  -0.59325  -0.59201  -0.58832  -0.58633
 Alpha  occ. eigenvalues --   -0.58277  -0.58060  -0.57940  -0.57843  -0.57040
 Alpha  occ. eigenvalues --   -0.56453  -0.55979  -0.55800  -0.55793  -0.55496
 Alpha  occ. eigenvalues --   -0.55071  -0.54847  -0.54771  -0.54720  -0.54276
 Alpha  occ. eigenvalues --   -0.53729  -0.53407  -0.53273  -0.53268  -0.53241
 Alpha  occ. eigenvalues --   -0.53072  -0.53005  -0.52708  -0.52589  -0.52204
 Alpha  occ. eigenvalues --   -0.52163  -0.51920  -0.51732  -0.51443  -0.51183
 Alpha  occ. eigenvalues --   -0.51106  -0.51050  -0.50948  -0.50622  -0.50382
 Alpha  occ. eigenvalues --   -0.50177  -0.49816  -0.49743  -0.49611  -0.49550
 Alpha  occ. eigenvalues --   -0.49499  -0.49470  -0.49215  -0.49007  -0.48682
 Alpha  occ. eigenvalues --   -0.48576  -0.48520  -0.48369  -0.48100  -0.48088
 Alpha  occ. eigenvalues --   -0.48036  -0.47770  -0.47526  -0.47386  -0.47129
 Alpha  occ. eigenvalues --   -0.46853  -0.46812  -0.46685  -0.46457  -0.46256
 Alpha  occ. eigenvalues --   -0.46251  -0.46032  -0.46009  -0.45829  -0.45560
 Alpha  occ. eigenvalues --   -0.45265  -0.45175  -0.44881  -0.44711  -0.44651
 Alpha  occ. eigenvalues --   -0.44504  -0.44491  -0.44129  -0.44074  -0.44030
 Alpha  occ. eigenvalues --   -0.43966  -0.43740  -0.43602  -0.43379  -0.43320
 Alpha  occ. eigenvalues --   -0.43229  -0.43207  -0.42993  -0.42959  -0.42521
 Alpha  occ. eigenvalues --   -0.42443  -0.42327  -0.42234  -0.42127  -0.42030
 Alpha  occ. eigenvalues --   -0.41843  -0.41620  -0.41543  -0.41208  -0.41085
 Alpha  occ. eigenvalues --   -0.40984  -0.40731  -0.40598  -0.40316  -0.40180
 Alpha  occ. eigenvalues --   -0.40061  -0.39708  -0.39542  -0.39467  -0.38955
 Alpha  occ. eigenvalues --   -0.38718  -0.38081  -0.38042  -0.37710  -0.37697
 Alpha  occ. eigenvalues --   -0.37208  -0.37032  -0.36901  -0.36386  -0.36282
 Alpha  occ. eigenvalues --   -0.36138  -0.35948  -0.34492  -0.34322  -0.34320
 Alpha  occ. eigenvalues --   -0.33878  -0.33495  -0.33116  -0.31689  -0.31512
 Alpha  occ. eigenvalues --   -0.31494  -0.31052  -0.30679  -0.30546  -0.30472
 Alpha  occ. eigenvalues --   -0.30265  -0.30001  -0.28693  -0.24097  -0.24032
 Alpha  occ. eigenvalues --   -0.21456  -0.21347
 Alpha virt. eigenvalues --   -0.08994  -0.08550  -0.01808  -0.01633   0.00012
 Alpha virt. eigenvalues --    0.00266   0.01997   0.02067   0.02447   0.02930
 Alpha virt. eigenvalues --    0.04501   0.05326   0.05361   0.05906   0.06085

 Mulliken charges:
               1
     1  Mg   0.816302
     2  C    0.025854
     3  C   -0.086842
     4  C   -0.055831
     5  C   -0.058753
     6  N   -0.312780
     7  C   -0.055497
     8  C   -0.012775
     9  C   -0.109554
    10  C    0.087988
    11  C    0.070607
    12  C    0.093582
    13  C   -0.080239
    14  H    0.012860
    15  N   -0.426215
    16  C    0.167063
    17  C   -0.153110
    18  C   -0.007849
    19  C    0.162618
    20  C    0.112421
    21  C   -0.007691
    22  O   -0.188077
    23  C    0.041579
    24  N   -0.245183
    25  C    0.014715
    26  C   -0.075052
    27  C   -0.009804
    28  C   -0.002077
    29  C    0.065578
    30  C    0.045613
    31  C    0.000096
    32  N   -0.378373
    33  C    0.150613
    34  C   -0.188288
    35  C    0.001854
    36  C    0.131809
    37  C    0.134323
    38  C    0.077191
    39  O   -0.163604
    40  C   -0.091612
    41  C    0.202891
    42  O   -0.222042
    43  O   -0.341879
    44  C    0.191510
    45  H   -0.034374
    46  H   -0.007024
    47  H   -0.044521
    48  H    0.030936
    49  H    0.006490
    50  H    0.015332
    51  H    0.021339
    52  H    0.028765
    53  H    0.014478
    54  H    0.009556
    55  H    0.043754
    56  H    0.030135
    57  H    0.030520
    58  H    0.009719
    59  H    0.043712
    60  H    0.041091
    61  H    0.033050
    62  H    0.021292
    63  H    0.014112
    64  H    0.009863
    65  H    0.013137
    66  H    0.028895
    67  H    0.019998
    68  H    0.006053
    69  H    0.004064
    70  H    0.022195
    71  H    0.008784
    72  H    0.018189
    73  H   -0.003080
    74  H    0.047740
    75  H    0.022221
    76  H    0.051712
    77  H    0.042379
    78  H    0.032279
    79  H    0.033267
    80  Mg   0.804311
    81  C   -0.001807
    82  C   -0.056847
    83  C   -0.056541
    84  C   -0.102564
    85  N   -0.309900
    86  C   -0.028099
    87  C   -0.016379
    88  C   -0.002641
    89  C   -0.048527
    90  C    0.052463
    91  C    0.041304
    92  C   -0.079833
    93  H    0.019976
    94  N   -0.378218
    95  C    0.181696
    96  C   -0.165928
    97  C   -0.026655
    98  C    0.105853
    99  C    0.128343
   100  C    0.003908
   101  O   -0.216840
   102  C    0.054110
   103  N   -0.227533
   104  C    0.004254
   105  C    0.006905
   106  C   -0.066248
   107  C    0.078664
   108  C    0.091296
   109  C    0.063833
   110  C   -0.038677
   111  N   -0.322720
   112  C    0.102235
   113  C   -0.118878
   114  C    0.060273
   115  C    0.066485
   116  C    0.105469
   117  C    0.014123
   118  O   -0.191352
   119  C   -0.024963
   120  C    0.199659
   121  O   -0.213034
   122  O   -0.318128
   123  C    0.160227
   124  H   -0.030872
   125  H   -0.012912
   126  H   -0.027887
   127  H    0.022325
   128  H    0.007323
   129  H    0.027523
   130  H    0.019951
   131  H    0.018129
   132  H    0.017761
   133  H    0.019198
   134  H    0.036273
   135  H    0.017796
   136  H    0.016347
   137  H    0.039241
   138  H    0.030150
   139  H    0.018256
   140  H    0.019443
   141  H    0.052920
   142  H   -0.008489
   143  H   -0.003719
   144  H    0.027797
   145  H    0.020236
   146  H    0.028572
   147  H    0.010789
   148  H    0.003871
   149  H    0.002569
   150  H    0.016305
   151  H    0.015283
   152  H    0.051124
   153  H    0.031486
   154  H    0.014473
   155  H    0.028945
   156  H    0.030146
   157  H    0.050322
   158  H    0.056252
 Sum of Mulliken charges =  -0.00000

 Dipole moment (field-independent basis, Debye):
    X=              4.6003    Y=             -0.1062    Z=              4.9460  Tot=              6.7555
 Quadrupole moment (field-independent basis, Debye-Ang):
   XX=           -608.2945   YY=           -484.3605   ZZ=           -514.5039
   XY=              6.0162   XZ=             80.6791   YZ=              7.8204

 Normal termination of Gaussian 16 at Thu Sep 16 08:21:18 2021.
