 Gaussian 16, Revision A.03,
 Gaussian 16:  ES64L-G16RevA.03 25-Dec-2016

 -----------------------------------
 #p cam-b3lyp/Def2SVP td=(nstates=5)
 -----------------------------------

 --------------------------------
 TDDFT excited states in gaussian
 --------------------------------
 Symbolic Z-matrix:
 Charge =  0 Multiplicity = 1

                         Standard orientation:
 ---------------------------------------------------------------------
 Center     Atomic      Atomic             Coordinates (Angstroms)
 Number     Number       Type             X           Y           Z
 ---------------------------------------------------------------------
      1         12           0       23.557771    0.479655   -0.410706
      2          6           0       22.940667   -2.639478    0.949347
      3          6           0       20.162442    1.321337    0.186061
      4          6           0       24.207381    3.751274   -1.195999
      5          6           0       26.945122   -0.181691   -0.542937
      6          7           0       21.766738   -0.620854    0.349166
      7          6           0       21.796122   -1.864156    0.945069
      8          6           0       20.454492   -2.256704    1.670035
      9          6           0       19.459515   -1.154364    1.070844
     10          6           0       20.476854   -0.053451    0.433902
     11          6           0       18.351429   -1.594832    0.040052
     12          6           0       20.503348   -2.226407    3.157181
     13          6           0       20.250149   -3.482881    3.967950
     14          1           0       19.657462   -3.272534    5.370531
     15          7           0       22.317508    2.280436   -0.584007
     16          6           0       20.934061    2.341255   -0.331506
     17          6           0       20.446184    3.645989   -0.647557
     18          6           0       21.671529    4.444263   -0.914031
     19          6           0       22.837691    3.507781   -0.898388
     20          6           0       18.998145    4.098015   -0.431727
     21          6           0       21.597880    5.958742   -1.175579
     22          8           0       20.594553    6.666156   -1.170678
     23          6           0       22.877219    6.716062   -1.120205
     24          7           0       25.420699    1.728044   -0.657391
     25          6           0       25.356092    2.973293   -1.148126
     26          6           0       26.770888    3.544961   -1.068802
     27          6           0       27.738754    2.277231   -0.944265
     28          6           0       26.638159    1.146580   -0.720168
     29          6           0       27.108283    4.303583   -2.401103
     30          6           0       28.857843    2.247136    0.176123
     31          6           0       30.331409    2.255501   -0.202227
     32          7           0       24.752311   -1.144513    0.028449
     33          6           0       26.135766   -1.295927   -0.107938
     34          6           0       26.535077   -2.583160    0.373003
     35          6           0       25.317202   -3.183740    0.818705
     36          6           0       24.262425   -2.235882    0.519255
     37          6           0       27.909500   -3.171527    0.432297
     38          6           0       24.706782   -4.330485    1.353090
     39          8           0       25.235007   -5.372107    1.687159
     40          6           0       23.172904   -4.010985    1.539220
     41          6           0       22.392363   -5.157935    1.049400
     42          8           0       21.841892   -5.963475    1.791501
     43          8           0       22.406657   -5.188809   -0.337085
     44          6           0       21.674870   -6.346826   -0.897887
     45          1           0       19.135982    1.680057    0.282444
     46          1           0       24.310380    4.789452   -1.519786
     47          1           0       28.022921   -0.356227   -0.552434
     48          1           0       20.141317   -3.246395    1.339386
     49          1           0       19.007088   -0.651469    1.926295
     50          1           0       18.299005   -2.682997    0.073979
     51          1           0       18.522854   -1.258819   -0.982683
     52          1           0       17.421358   -1.123567    0.355625
     53          1           0       19.709783   -1.548570    3.475245
     54          1           0       21.484659   -1.889667    3.489723
     55          1           0       21.214244   -3.955372    4.153759
     56          1           0       19.551358   -4.170495    3.492072
     57          1           0       18.262265    3.442540    0.033497
     58          1           0       18.711714    4.417490   -1.433418
     59          1           0       19.112871    5.063027    0.060890
     60          1           0       23.466925    6.845835   -2.026663
     61          1           0       23.519014    6.382232   -0.304738
     62          1           0       22.603508    7.744636   -0.882288
     63          1           0       26.908579    4.219412   -0.223357
     64          1           0       28.167877    2.036051   -1.916151
     65          1           0       27.496748    5.280964   -2.114917
     66          1           0       26.277545    4.422515   -3.097826
     67          1           0       27.858539    3.795205   -3.007155
     68          1           0       28.631020    1.345838    0.745182
     69          1           0       28.711599    3.166933    0.744113
     70          1           0       30.843078    1.805807    0.649069
     71          1           0       30.669063    3.289102   -0.281235
     72          1           0       30.673384    1.704112   -1.077447
     73          1           0       27.788283   -4.168179    0.857477
     74          1           0       28.522158   -2.498658    1.031528
     75          1           0       28.401022   -3.302727   -0.531871
     76          1           0       23.050847   -3.974253    2.622268
     77          1           0       22.350151   -7.193872   -1.018297
     78          1           0       21.201612   -5.985093   -1.810701
     79          1           0       20.840257   -6.644688   -0.263858
     80         12           0      -23.629277    0.578778    0.365500
     81          6           0      -22.899831   -2.247621   -1.577216
     82          6           0      -21.896759    2.477195   -1.925483
     83          6           0      -24.302224    3.219408    2.227191
     84          6           0      -25.219876   -1.539142    2.673552
     85          7           0      -22.622575    0.117177   -1.553069
     86          6           0      -22.405198   -1.108433   -2.182864
     87          6           0      -21.893482   -0.964195   -3.669809
     88          6           0      -21.473646    0.492445   -3.629276
     89          6           0      -22.037904    1.096211   -2.277305
     90          6           0      -19.882652    0.620789   -3.569926
     91          6           0      -23.209233   -1.145250   -4.549603
     92          6           0      -23.079051   -2.012031   -5.878453
     93          1           0      -21.704925   -1.829613   -6.470540
     94          7           0      -23.046934    2.489924    0.245730
     95          6           0      -22.355406    3.086342   -0.721317
     96          6           0      -22.203867    4.500562   -0.502925
     97          6           0      -23.038107    4.791059    0.594726
     98          6           0      -23.472260    3.444826    1.127191
     99          6           0      -21.404948    5.434675   -1.335910
    100          6           0      -23.527719    6.119671    1.132998
    101          8           0      -24.455881    6.214472    1.944127
    102          6           0      -22.795970    7.411451    0.758243
    103          7           0      -24.596529    0.778873    2.243407
    104          6           0      -24.782998    2.052514    2.726650
    105          6           0      -25.699333    1.976530    3.946046
    106          6           0      -26.114288    0.427967    4.041312
    107          6           0      -25.331986   -0.170209    2.901783
    108          6           0      -24.986911    2.619017    5.188337
    109          6           0      -27.601386    0.111004    4.019366
    110          6           0      -28.068375   -0.795550    5.200999
    111          7           0      -23.967571   -1.467497    0.533394
    112          6           0      -24.628532   -2.207678    1.563393
    113          6           0      -24.589480   -3.597017    1.275823
    114          6           0      -23.916775   -3.638288    0.042943
    115          6           0      -23.529472   -2.330536   -0.315976
    116          6           0      -25.151494   -4.764582    2.021055
    117          6           0      -23.449999   -4.495253   -0.999504
    118          8           0      -23.471561   -5.694478   -1.148298
    119          6           0      -22.874861   -3.595415   -2.129672
    120          6           0      -21.552547   -4.130189   -2.544955
    121          8           0      -20.501218   -4.105494   -1.911290
    122          8           0      -21.700339   -4.605217   -3.785478
    123          6           0      -20.511683   -5.109109   -4.440879
    124          1           0      -21.499946    3.208991   -2.632029
    125          1           0      -24.481555    4.130649    2.803303
    126          1           0      -25.756327   -2.226482    3.331100
    127          1           0      -21.209995   -1.800674   -3.812264
    128          1           0      -21.902416    1.031378   -4.473486
    129          1           0      -19.387756   -0.350190   -3.542225
    130          1           0      -19.618491    1.179630   -2.672348
    131          1           0      -19.631415    1.189112   -4.465533
    132          1           0      -23.630730   -0.201184   -4.893559
    133          1           0      -23.959685   -1.573379   -3.884538
    134          1           0      -23.698708   -1.592800   -6.671237
    135          1           0      -23.501655   -3.008768   -5.749259
    136          1           0      -22.118837    6.088617   -1.838582
    137          1           0      -20.844941    4.903752   -2.104464
    138          1           0      -20.708721    6.042128   -0.758426
    139          1           0      -23.145162    8.056550    1.564148
    140          1           0      -23.036470    7.784161   -0.238122
    141          1           0      -21.712274    7.423685    0.873117
    142          1           0      -26.626497    2.545288    3.876055
    143          1           0      -25.701993    0.020419    4.964451
    144          1           0      -25.734358    3.260675    5.655056
    145          1           0      -24.069386    3.154920    4.945116
    146          1           0      -24.866735    1.893561    5.993796
    147          1           0      -27.949188   -0.343764    3.092362
    148          1           0      -28.075071    1.066407    4.249426
    149          1           0      -27.256809   -0.950551    5.912126
    150          1           0      -28.254769   -1.818372    4.874221
    151          1           0      -28.919797   -0.358768    5.723328
    152          1           0      -26.214420   -4.663628    1.800011
    153          1           0      -24.842991   -4.646944    3.059615
    154          1           0      -24.829425   -5.718765    1.606409
    155          1           0      -23.546878   -3.791988   -2.966113
    156          1           0      -20.030899   -5.860230   -3.813545
    157          1           0      -19.708926   -4.393330   -4.621103
    158          1           0      -20.850431   -5.561275   -5.373199
 ---------------------------------------------------------------------

 SCF Done:  E(RCAM-B3LYP) =  -4069.82137920     A.U. after   18 cycles

 Excitation energies and oscillator strengths:

 Excited State   1:      Singlet-A      1.7131 eV  723.74 nm  f=0.3682  <S**2>=0.000
     309 -> 315       -0.17415
     311 -> 313        0.68608
     309 <- 315       -0.10487
 This state for optimization and/or second-order correction.
 Total Energy, E(TD-HF/TD-DFT) =  -4069.75842422
 Copying the excited state density for this state as the 1-particle RhoCI density.

 Excited State   2:      Singlet-A      1.7258 eV  718.40 nm  f=0.3947  <S**2>=0.000
     310 -> 316       -0.16123
     312 -> 314        0.68750

 Excited State   3:      Singlet-A      2.1719 eV  570.87 nm  f=0.1595  <S**2>=0.000
     309 -> 313        0.65198
     311 -> 315        0.25355

 Excited State   4:      Singlet-A      2.2841 eV  542.80 nm  f=0.1220  <S**2>=0.000
     310 -> 314        0.63702
     312 -> 316        0.28302

 Excited State   5:      Singlet-A      2.8769 eV  430.97 nm  f=0.0000  <S**2>=0.000
     312 -> 313        0.70710

 The electronic state is 1-A.
 Alpha  occ. eigenvalues --  -46.90508 -46.87765 -19.25256 -19.25147 -19.19916
 Alpha  occ. eigenvalues --  -19.19851 -19.19137 -19.18790 -19.18326 -19.17401
 Alpha  occ. eigenvalues --  -14.43513 -14.42237 -14.42018 -14.41616 -14.40218
 Alpha  occ. eigenvalues --  -14.40075 -14.39898 -14.38465 -10.39150 -10.38310
 Alpha  occ. eigenvalues --  -10.36232 -10.35301 -10.34214 -10.33150 -10.33133
 Alpha  occ. eigenvalues --  -10.32099 -10.31901 -10.31709 -10.31696 -10.31536
 Alpha  occ. eigenvalues --  -10.31363 -10.31009 -10.30851 -10.30677 -10.30624
 Alpha  occ. eigenvalues --  -10.30445 -10.30444 -10.30153 -10.30112 -10.29859
 Alpha  occ. eigenvalues --  -10.29448 -10.29118 -10.29062 -10.29005 -10.28909
 Alpha  occ. eigenvalues --  -10.28733 -10.28698 -10.28543 -10.28462 -10.28436
 Alpha  occ. eigenvalues --  -10.28336 -10.28316 -10.28292 -10.28285 -10.28222
 Alpha  occ. eigenvalues --  -10.27975 -10.27920 -10.27825 -10.27546 -10.27525
 Alpha  occ. eigenvalues --  -10.27521 -10.27487 -10.27360 -10.27142 -10.27092
 Alpha  occ. eigenvalues --  -10.27071 -10.27054 -10.27009 -10.26858 -10.26692
 Alpha  occ. eigenvalues --  -10.26628 -10.26530 -10.26271 -10.26220 -10.26203
 Alpha  occ. eigenvalues --  -10.26159 -10.26076 -10.26028 -10.25923 -10.25884
 Alpha  occ. eigenvalues --  -10.25795 -10.25705 -10.25441 -10.25419 -10.24935
 Alpha  occ. eigenvalues --  -10.23580  -3.18719  -3.16474  -1.93647  -1.93150
 Alpha  occ. eigenvalues --   -1.93021  -1.91384  -1.90909  -1.90805  -1.17097
 Alpha  occ. eigenvalues --   -1.15560  -1.10353  -1.10085  -1.09794  -1.09365
 Alpha  occ. eigenvalues --   -1.07504  -1.07081  -1.04981  -1.04845  -1.04082
 Alpha  occ. eigenvalues --   -1.03910  -1.02918  -1.02596  -1.02340  -1.01763
 Alpha  occ. eigenvalues --   -0.92648  -0.92612  -0.89640  -0.89528  -0.89405
 Alpha  occ. eigenvalues --   -0.88479  -0.88418  -0.88219  -0.87973  -0.87721
 Alpha  occ. eigenvalues --   -0.87200  -0.87029  -0.86632  -0.85843  -0.84541
 Alpha  occ. eigenvalues --   -0.83952  -0.83869  -0.83523  -0.82921  -0.82350
 Alpha  occ. eigenvalues --   -0.82255  -0.81840  -0.81268  -0.80913  -0.80777
 Alpha  occ. eigenvalues --   -0.80375  -0.78903  -0.77861  -0.77420  -0.77212
 Alpha  occ. eigenvalues --   -0.77013  -0.76762  -0.76245  -0.75597  -0.75552
 Alpha  occ. eigenvalues --   -0.74975  -0.73529  -0.73099  -0.72309  -0.71401
 Alpha  occ. eigenvalues --   -0.69420  -0.69182  -0.69020  -0.68867  -0.68018
 Alpha  occ. eigenvalues --   -0.67604  -0.67387  -0.67157  -0.65660  -0.65498
 Alpha  occ. eigenvalues --   -0.65411  -0.65275  -0.65240  -0.65011  -0.64835
 Alpha  occ. eigenvalues --   -0.64501  -0.63031  -0.62471  -0.60785  -0.60278
 Alpha  occ. eigenvalues --   -0.59775  -0.59590  -0.59484  -0.59136  -0.59093
 Alpha  occ. eigenvalues --   -0.58625  -0.57819  -0.57761  -0.57297  -0.57012
 Alpha  occ. eigenvalues --   -0.56638  -0.56579  -0.56000  -0.55660  -0.55472
 Alpha  occ. eigenvalues --   -0.55325  -0.54834  -0.54457  -0.53871  -0.53820
 Alpha  occ. eigenvalues --   -0.53547  -0.53534  -0.53259  -0.53161  -0.52852
 Alpha  occ. eigenvalues --   -0.52809  -0.52591  -0.52538  -0.52507  -0.52151
 Alpha  occ. eigenvalues --   -0.52119  -0.51872  -0.51768  -0.51352  -0.51311
 Alpha  occ. eigenvalues --   -0.51031  -0.50959  -0.50731  -0.50408  -0.50403
 Alpha  occ. eigenvalues --   -0.50296  -0.50235  -0.49978  -0.49738  -0.49634
 Alpha  occ. eigenvalues --   -0.49519  -0.49257  -0.49170  -0.48896  -0.48671
 Alpha  occ. eigenvalues --   -0.48630  -0.48518  -0.48413  -0.48334  -0.47972
 Alpha  occ. eigenvalues --   -0.47895  -0.47822  -0.47672  -0.47535  -0.47197
 Alpha  occ. eigenvalues --   -0.47174  -0.47036  -0.46737  -0.46730  -0.46607
 Alpha  occ. eigenvalues --   -0.46558  -0.46391  -0.46152  -0.46074  -0.46015
 Alpha  occ. eigenvalues --   -0.45861  -0.45711  -0.45333  -0.45270  -0.45210
 Alpha  occ. eigenvalues --   -0.45059  -0.44703  -0.44696  -0.44550  -0.44548
 Alpha  occ. eigenvalues --   -0.44445  -0.44286  -0.44143  -0.43749  -0.43689
 Alpha  occ. eigenvalues --   -0.43657  -0.43657  -0.43078  -0.43004  -0.42845
 Alpha  occ. eigenvalues --   -0.42780  -0.42610  -0.42449  -0.42342  -0.42251
 Alpha  occ. eigenvalues --   -0.41935  -0.41619  -0.41570  -0.41524  -0.41299
 Alpha  occ. eigenvalues --   -0.41111  -0.40811  -0.40507  -0.40373  -0.40059
 Alpha  occ. eigenvalues --   -0.39991  -0.39734  -0.39730  -0.39487  -0.38807
 Alpha  occ. eigenvalues --   -0.38373  -0.38271  -0.37838  -0.37625  -0.37433
 Alpha  occ. eigenvalues --   -0.37413  -0.37236  -0.36906  -0.36805  -0.36464
 Alpha  occ. eigenvalues --   -0.36306  -0.35917  -0.34511  -0.34340  -0.34235
 Alpha  occ. eigenvalues --   -0.33841  -0.33356  -0.32804  -0.32261  -0.31785
 Alpha  occ. eigenvalues --   -0.31387  -0.31247  -0.30895  -0.30549  -0.30213
 Alpha  occ. eigenvalues --   -0.29681  -0.29604  -0.29261  -0.24637  -0.24118
 Alpha  occ. eigenvalues --   -0.22177  -0.21053
 Alpha virt. eigenvalues --   -0.09749  -0.08579  -0.02360  -0.01693  -0.00001
 Alpha virt. eigenvalues --    0.00525   0.02193   0.02317   0.02818   0.03416
 Alpha virt. eigenvalues --    0.04487   0.05248   0.05571   0.05823   0.05886

 Mulliken charges:
               1
     1  Mg   0.796959
     2  C    0.074182
     3  C   -0.043123
     4  C   -0.054838
     5  C   -0.052395
     6  N   -0.300178
     7  C   -0.060076
     8  C   -0.022657
     9  C   -0.080345
    10  C    0.066991
    11  C    0.078396
    12  C    0.079026
    13  C   -0.093775
    14  H    0.008109
    15  N   -0.374613
    16  C    0.119171
    17  C   -0.139293
    18  C   -0.092391
    19  C    0.150518
    20  C    0.136727
    21  C    0.043161
    22  O   -0.209358
    23  C    0.005528
    24  N   -0.267874
    25  C    0.091583
    26  C   -0.078100
    27  C   -0.006937
    28  C   -0.004258
    29  C    0.049029
    30  C    0.036113
    31  C    0.003122
    32  N   -0.332673
    33  C    0.107747
    34  C   -0.158934
    35  C    0.031412
    36  C    0.039545
    37  C    0.122499
    38  C   -0.007849
    39  O   -0.164686
    40  C    0.009194
    41  C    0.181786
    42  O   -0.214844
    43  O   -0.355685
    44  C    0.174524
    45  H   -0.038483
    46  H   -0.042479
    47  H   -0.028614
    48  H    0.009899
    49  H    0.015628
    50  H    0.021464
    51  H    0.026835
    52  H    0.021370
    53  H    0.016748
    54  H    0.018212
    55  H    0.047023
    56  H    0.036490
    57  H    0.034176
    58  H    0.033151
    59  H    0.040574
    60  H    0.045888
    61  H    0.034664
    62  H    0.021614
    63  H    0.028681
    64  H    0.005432
    65  H    0.013831
    66  H    0.019595
    67  H    0.009808
    68  H    0.018873
    69  H    0.003654
    70  H    0.014584
    71  H    0.015965
    72  H    0.017381
    73  H    0.039010
    74  H    0.023828
    75  H    0.024090
    76  H    0.036642
    77  H    0.051300
    78  H    0.034188
    79  H    0.038536
    80  Mg   0.840690
    81  C    0.028139
    82  C   -0.106857
    83  C   -0.066771
    84  C   -0.071319
    85  N   -0.281548
    86  C   -0.102071
    87  C   -0.000399
    88  C   -0.045997
    89  C    0.075589
    90  C    0.067044
    91  C    0.037845
    92  C   -0.060920
    93  H    0.017393
    94  N   -0.375441
    95  C    0.135953
    96  C   -0.158167
    97  C   -0.029507
    98  C    0.112175
    99  C    0.127602
   100  C    0.018915
   101  O   -0.213663
   102  C    0.015288
   103  N   -0.316307
   104  C    0.098085
   105  C   -0.060687
   106  C   -0.001789
   107  C    0.049110
   108  C    0.056780
   109  C    0.053023
   110  C   -0.019158
   111  N   -0.321811
   112  C    0.076452
   113  C   -0.187198
   114  C    0.016447
   115  C    0.096307
   116  C    0.134230
   117  C    0.001230
   118  O   -0.166773
   119  C   -0.002501
   120  C    0.159844
   121  O   -0.226897
   122  O   -0.302931
   123  C    0.183673
   124  H   -0.025734
   125  H    0.002377
   126  H   -0.035530
   127  H    0.026780
   128  H    0.014458
   129  H    0.029584
   130  H    0.022753
   131  H    0.018139
   132  H    0.007145
   133  H    0.019941
   134  H    0.019465
   135  H    0.040688
   136  H    0.029961
   137  H    0.017931
   138  H    0.035622
   139  H    0.033399
   140  H    0.043092
   141  H    0.031304
   142  H    0.017413
   143  H    0.009763
   144  H    0.005329
   145  H    0.040354
   146  H    0.003596
   147  H    0.024241
   148  H    0.003367
   149  H    0.001202
   150  H    0.016280
   151  H    0.023404
   152  H    0.031486
   153  H    0.031573
   154  H    0.036707
   155  H    0.038104
   156  H    0.036748
   157  H    0.027806
   158  H    0.038150
 Sum of Mulliken charges =  -0.00000

 Dipole moment (field-independent basis, Debye):
    X=              0.4459    Y=              8.0287    Z=             -4.8880  Tot=              9.4102
 Quadrupole moment (field-independent basis, Debye-Ang):
   XX=           -427.1791   YY=           -576.5726   ZZ=           -489.1270
   XY=              0.6731   XZ=            -34.4405   YZ=             12.7242

 Normal termination of Gaussian 16 at Thu Sep 16 04:17:53 2021.
