 Gaussian 16, Revision A.03,
 Gaussian 16:  ES64L-G16RevA.03 25-Dec-2016

 -----------------------------------
 #p cam-b3lyp/Def2SVP td=(nstates=5)
 -----------------------------------

 --------------------------------
 TDDFT excited states in gaussian
 --------------------------------
 Symbolic Z-matrix:
 Charge =  0 Multiplicity = 1

                         Standard orientation:
 ---------------------------------------------------------------------
 Center     Atomic      Atomic             Coordinates (Angstroms)
 Number     Number       Type             X           Y           Z
 ---------------------------------------------------------------------
      1         12           0      -17.866746   -0.781189    0.084411
      2          6           0      -17.256326    2.710704   -0.451343
      3          6           0      -17.449394   -0.212717    3.459939
      4          6           0      -17.801812   -4.025166    0.468602
      5          6           0      -18.025935   -1.114376   -3.361467
      6          7           0      -17.112426    1.054541    1.367526
      7          6           0      -17.070354    2.334645    0.885155
      8          6           0      -17.021240    3.333649    2.072159
      9          6           0      -17.021435    2.393359    3.349330
     10          6           0      -17.183177    0.954051    2.737611
     11          6           0      -15.757267    2.442400    4.306758
     12          6           0      -18.184770    4.359647    2.120478
     13          6           0      -17.846522    5.779208    2.407689
     14          1           0      -16.493425    6.233224    3.077158
     15          7           0      -17.641274   -2.021751    1.765384
     16          6           0      -17.615924   -1.625652    3.102344
     17          6           0      -17.475884   -2.824497    3.951023
     18          6           0      -17.697135   -3.950314    3.068072
     19          6           0      -17.713936   -3.366558    1.706667
     20          6           0      -17.242243   -2.835152    5.431399
     21          6           0      -17.848891   -5.460537    3.366463
     22          8           0      -18.334914   -6.300491    2.579982
     23          6           0      -17.554966   -5.915152    4.739419
     24          7           0      -17.847795   -2.277826   -1.237285
     25          6           0      -17.748880   -3.577730   -0.792068
     26          6           0      -18.002917   -4.586859   -1.945999
     27          6           0      -18.444898   -3.597970   -3.113751
     28          6           0      -18.104747   -2.231178   -2.545327
     29          6           0      -16.828302   -5.565821   -2.356101
     30          6           0      -19.897781   -3.657984   -3.558020
     31          6           0      -20.134807   -4.150784   -5.000946
     32          7           0      -17.876818    0.520087   -1.581552
     33          6           0      -17.919856    0.227720   -2.924238
     34          6           0      -17.765410    1.458292   -3.711075
     35          6           0      -17.564240    2.441418   -2.758516
     36          6           0      -17.636648    1.834020   -1.485048
     37          6           0      -17.740538    1.632061   -5.193807
     38          6           0      -17.361428    3.840564   -2.640350
     39          8           0      -17.374077    4.774341   -3.492068
     40          6           0      -17.154389    4.074869   -1.204033
     41          6           0      -15.874149    4.833677   -0.981328
     42          8           0      -14.784007    4.397437   -1.129377
     43          8           0      -16.144692    6.055563   -0.522776
     44          6           0      -15.124404    7.048247   -0.532564
     45          1           0      -17.320062   -0.124483    4.540803
     46          1           0      -17.838565   -5.117115    0.445925
     47          1           0      -17.999438   -1.241449   -4.444969
     48          1           0      -16.077975    3.871165    1.968232
     49          1           0      -17.899961    2.598393    3.960354
     50          1           0      -15.042333    3.237102    4.095486
     51          1           0      -15.202677    1.517992    4.139054
     52          1           0      -16.071031    2.472846    5.350620
     53          1           0      -18.927181    4.122509    2.883406
     54          1           0      -18.728634    4.424675    1.178535
     55          1           0      -18.562701    6.190345    3.119779
     56          1           0      -17.936642    6.327455    1.470332
     57          1           0      -16.360776   -3.436129    5.653816
     58          1           0      -18.114893   -3.315426    5.874038
     59          1           0      -17.273036   -1.828635    5.849902
     60          1           0      -16.499814   -5.719010    4.930158
     61          1           0      -17.678712   -6.997582    4.716054
     62          1           0      -18.275801   -5.532514    5.461462
     63          1           0      -18.875066   -5.163926   -1.637015
     64          1           0      -17.823593   -3.836608   -3.976904
     65          1           0      -15.957131   -5.390403   -1.725934
     66          1           0      -16.604794   -5.543599   -3.423397
     67          1           0      -17.192910   -6.582251   -2.206813
     68          1           0      -20.503417   -2.771279   -3.370244
     69          1           0      -20.382824   -4.406825   -2.932749
     70          1           0      -20.861280   -3.600252   -5.598317
     71          1           0      -20.664168   -5.100580   -4.920390
     72          1           0      -19.244419   -4.223470   -5.624006
     73          1           0      -18.162994    0.777654   -5.723375
     74          1           0      -16.711622    1.622766   -5.553162
     75          1           0      -18.162282    2.616701   -5.395212
     76          1           0      -18.002063    4.676413   -0.876918
     77          1           0      -15.005293    7.350142   -1.574083
     78          1           0      -14.160128    6.619333   -0.259569
     79          1           0      -15.427030    7.930164    0.032633
     80         12           0       17.746207   -0.740444    0.312131
     81          6           0       15.672706    2.065277    0.477988
     82          6           0       20.455130    1.485563    0.279640
     83          6           0       19.828804   -3.260494   -0.402798
     84          6           0       15.031090   -2.612561   -0.671037
     85          7           0       18.066825    1.574297    0.481245
     86          6           0       17.014544    2.435149    0.473036
     87          6           0       17.522348    3.931299    0.494935
     88          6           0       19.085707    3.712737    0.170501
     89          6           0       19.235209    2.184957    0.264078
     90          6           0       19.314302    4.129131   -1.325948
     91          6           0       17.319423    4.473515    1.957422
     92          6           0       17.866406    5.891557    2.276451
     93          1           0       18.635027    6.357663    3.477001
     94          7           0       19.830445   -0.869899    0.191258
     95          6           0       20.812132    0.133959    0.238709
     96          6           0       22.062102   -0.479812    0.072036
     97          6           0       21.920409   -1.861002    0.062916
     98          6           0       20.483185   -2.051490   -0.042325
     99          6           0       23.312189    0.335759    0.127892
    100          6           0       22.989415   -3.000065   -0.020421
    101          8           0       22.737544   -4.200188   -0.006094
    102          6           0       24.489985   -2.715835    0.088398
    103          7           0       17.453453   -2.608898   -0.539990
    104          6           0       18.461942   -3.507625   -0.589788
    105          6           0       17.995864   -4.942955   -0.902787
    106          6           0       16.476139   -4.708995   -1.127426
    107          6           0       16.252811   -3.283343   -0.655793
    108          6           0       18.821266   -5.666094   -2.018315
    109          6           0       15.497628   -5.735633   -0.493927
    110          6           0       15.295671   -5.639584    0.958785
    111          7           0       15.734995   -0.428424    0.050127
    112          6           0       14.777183   -1.239857   -0.334276
    113          6           0       13.457685   -0.603836   -0.263315
    114          6           0       13.817395    0.739870    0.074840
    115          6           0       15.189705    0.808279    0.215291
    116          6           0       12.145709   -1.221391   -0.120411
    117          6           0       13.243450    2.043817    0.357559
    118          8           0       12.089300    2.392647    0.461074
    119          6           0       14.463177    2.952066    0.554974
    120          6           0       14.450544    4.139043   -0.413964
    121          8           0       14.770475    4.073277   -1.572354
    122          8           0       13.950561    5.245796    0.229586
    123          6           0       13.915132    6.441671   -0.643461
    124          1           0       21.290550    2.176928    0.401423
    125          1           0       20.460881   -4.150768   -0.432192
    126          1           0       14.346360   -3.439057   -0.868931
    127          1           0       17.073098    4.537003   -0.292495
    128          1           0       19.766379    4.260653    0.823287
    129          1           0       19.457608    3.319250   -2.040532
    130          1           0       20.296023    4.581419   -1.468648
    131          1           0       18.534483    4.774577   -1.729648
    132          1           0       17.757729    3.741705    2.635442
    133          1           0       16.250962    4.420803    2.168246
    134          1           0       17.004417    6.541021    2.121106
    135          1           0       18.587699    6.007860    1.468500
    136          1           0       23.170475    1.411495    0.235256
    137          1           0       23.950274    0.024075   -0.700165
    138          1           0       23.787548    0.009655    1.053390
    139          1           0       24.894977   -2.162037   -0.758661
    140          1           0       25.103564   -3.589148    0.310210
    141          1           0       24.622183   -2.128408    0.997191
    142          1           0       18.222241   -5.375323    0.071448
    143          1           0       16.370050   -4.698323   -2.212201
    144          1           0       19.848491   -5.303715   -2.040605
    145          1           0       18.367298   -5.462795   -2.988559
    146          1           0       18.892504   -6.742410   -1.860206
    147          1           0       15.985087   -6.676856   -0.746110
    148          1           0       14.555535   -5.731561   -1.042488
    149          1           0       14.544903   -4.878528    1.170894
    150          1           0       16.237814   -5.455885    1.474867
    151          1           0       14.860780   -6.550956    1.370193
    152          1           0       12.346125   -2.194099    0.329404
    153          1           0       11.571306   -1.487156   -1.007981
    154          1           0       11.557238   -0.553356    0.507612
    155          1           0       14.443791    3.311590    1.584320
    156          1           0       13.038281    7.032638   -0.379575
    157          1           0       13.703952    6.260672   -1.697592
    158          1           0       14.787477    7.072742   -0.476708
 ---------------------------------------------------------------------

 SCF Done:  E(RCAM-B3LYP) =  -4069.82132851     A.U. after   18 cycles

 Excitation energies and oscillator strengths:

 Excited State   1:      Singlet-A      1.7200 eV  720.83 nm  f=0.4207  <S**2>=0.000
     309 -> 315        0.17638
     311 -> 313        0.68704
     309 <- 315        0.10598
 This state for optimization and/or second-order correction.
 Total Energy, E(TD-HF/TD-DFT) =  -4069.75811869
 Copying the excited state density for this state as the 1-particle RhoCI density.

 Excited State   2:      Singlet-A      1.7450 eV  710.52 nm  f=0.3918  <S**2>=0.000
     310 -> 316       -0.18612
     312 -> 314        0.68384
     310 <- 316       -0.10700

 Excited State   3:      Singlet-A      2.2103 eV  560.94 nm  f=0.1280  <S**2>=0.000
     309 -> 313        0.65015
     311 -> 315       -0.26631

 Excited State   4:      Singlet-A      2.2617 eV  548.20 nm  f=0.1161  <S**2>=0.000
     310 -> 314        0.64503
     312 -> 316        0.27674

 Excited State   5:      Singlet-A      3.0406 eV  407.76 nm  f=0.0000  <S**2>=0.000
     312 -> 313        0.70710

 The electronic state is 1-A.
 Alpha  occ. eigenvalues --  -46.88878 -46.88693 -19.25770 -19.24962 -19.20399
 Alpha  occ. eigenvalues --  -19.19614 -19.19421 -19.18991 -19.18819 -19.18517
 Alpha  occ. eigenvalues --  -14.42231 -14.42022 -14.41586 -14.41047 -14.39662
 Alpha  occ. eigenvalues --  -14.39526 -14.39132 -14.39124 -10.39765 -10.39008
 Alpha  occ. eigenvalues --  -10.36156 -10.34928 -10.34674 -10.34495 -10.31798
 Alpha  occ. eigenvalues --  -10.31666 -10.31465 -10.31063 -10.30995 -10.30922
 Alpha  occ. eigenvalues --  -10.30617 -10.30562 -10.30516 -10.30346 -10.30124
 Alpha  occ. eigenvalues --  -10.29948 -10.29666 -10.29636 -10.29604 -10.29516
 Alpha  occ. eigenvalues --  -10.29263 -10.28724 -10.28717 -10.28687 -10.28663
 Alpha  occ. eigenvalues --  -10.28545 -10.28381 -10.28349 -10.28335 -10.28230
 Alpha  occ. eigenvalues --  -10.28161 -10.28063 -10.27948 -10.27724 -10.27631
 Alpha  occ. eigenvalues --  -10.27584 -10.27531 -10.27492 -10.27483 -10.27412
 Alpha  occ. eigenvalues --  -10.27261 -10.27156 -10.27087 -10.27023 -10.27022
 Alpha  occ. eigenvalues --  -10.26964 -10.26947 -10.26732 -10.26698 -10.26437
 Alpha  occ. eigenvalues --  -10.26340 -10.26178 -10.26178 -10.25977 -10.25976
 Alpha  occ. eigenvalues --  -10.25878 -10.25862 -10.25821 -10.25550 -10.25420
 Alpha  occ. eigenvalues --  -10.25273 -10.25258 -10.25158 -10.25150 -10.25116
 Alpha  occ. eigenvalues --  -10.24281  -3.17455  -3.17256  -1.92338  -1.92143
 Alpha  occ. eigenvalues --   -1.91925  -1.91754  -1.91725  -1.91544  -1.18581
 Alpha  occ. eigenvalues --   -1.16817  -1.10387  -1.10284  -1.09670  -1.08754
 Alpha  occ. eigenvalues --   -1.08277  -1.08049  -1.04957  -1.04798  -1.03769
 Alpha  occ. eigenvalues --   -1.03738  -1.03335  -1.02498  -1.02428  -1.01752
 Alpha  occ. eigenvalues --   -0.93808  -0.93538  -0.89422  -0.89097  -0.88551
 Alpha  occ. eigenvalues --   -0.88511  -0.88340  -0.88235  -0.87706  -0.87471
 Alpha  occ. eigenvalues --   -0.87209  -0.86850  -0.86254  -0.86185  -0.84520
 Alpha  occ. eigenvalues --   -0.84054  -0.83611  -0.83493  -0.82591  -0.82391
 Alpha  occ. eigenvalues --   -0.82028  -0.81683  -0.81526  -0.80913  -0.80475
 Alpha  occ. eigenvalues --   -0.80399  -0.78499  -0.78270  -0.77678  -0.77582
 Alpha  occ. eigenvalues --   -0.77126  -0.76570  -0.76326  -0.76140  -0.75168
 Alpha  occ. eigenvalues --   -0.74850  -0.73142  -0.72468  -0.71787  -0.71459
 Alpha  occ. eigenvalues --   -0.70038  -0.69370  -0.69149  -0.68943  -0.68343
 Alpha  occ. eigenvalues --   -0.67459  -0.66993  -0.66220  -0.65890  -0.65358
 Alpha  occ. eigenvalues --   -0.64884  -0.64816  -0.64815  -0.64440  -0.64427
 Alpha  occ. eigenvalues --   -0.63997  -0.62995  -0.62474  -0.60300  -0.60058
 Alpha  occ. eigenvalues --   -0.59830  -0.59435  -0.59365  -0.59304  -0.59104
 Alpha  occ. eigenvalues --   -0.58620  -0.58229  -0.58180  -0.57724  -0.57337
 Alpha  occ. eigenvalues --   -0.56539  -0.56458  -0.56077  -0.55714  -0.55491
 Alpha  occ. eigenvalues --   -0.55222  -0.55140  -0.54883  -0.54582  -0.54001
 Alpha  occ. eigenvalues --   -0.53722  -0.53396  -0.53236  -0.53216  -0.53126
 Alpha  occ. eigenvalues --   -0.52986  -0.52765  -0.52676  -0.52535  -0.52372
 Alpha  occ. eigenvalues --   -0.52082  -0.51618  -0.51551  -0.51454  -0.51117
 Alpha  occ. eigenvalues --   -0.51084  -0.51002  -0.50586  -0.50273  -0.50048
 Alpha  occ. eigenvalues --   -0.50003  -0.49908  -0.49850  -0.49616  -0.49441
 Alpha  occ. eigenvalues --   -0.49221  -0.49207  -0.49055  -0.48961  -0.48807
 Alpha  occ. eigenvalues --   -0.48720  -0.48546  -0.48484  -0.48301  -0.48204
 Alpha  occ. eigenvalues --   -0.47888  -0.47676  -0.47485  -0.47384  -0.47082
 Alpha  occ. eigenvalues --   -0.46878  -0.46746  -0.46646  -0.46179  -0.46103
 Alpha  occ. eigenvalues --   -0.46081  -0.46018  -0.45986  -0.45771  -0.45722
 Alpha  occ. eigenvalues --   -0.45355  -0.45250  -0.45063  -0.44955  -0.44753
 Alpha  occ. eigenvalues --   -0.44721  -0.44507  -0.44415  -0.44413  -0.44195
 Alpha  occ. eigenvalues --   -0.44066  -0.43841  -0.43654  -0.43609  -0.43411
 Alpha  occ. eigenvalues --   -0.43324  -0.43231  -0.43000  -0.42888  -0.42654
 Alpha  occ. eigenvalues --   -0.42574  -0.42559  -0.42391  -0.42379  -0.42118
 Alpha  occ. eigenvalues --   -0.41835  -0.41822  -0.41645  -0.41597  -0.41399
 Alpha  occ. eigenvalues --   -0.41140  -0.40933  -0.40758  -0.40241  -0.40237
 Alpha  occ. eigenvalues --   -0.40051  -0.39652  -0.39597  -0.39089  -0.38828
 Alpha  occ. eigenvalues --   -0.38463  -0.38154  -0.37878  -0.37834  -0.37734
 Alpha  occ. eigenvalues --   -0.37312  -0.36914  -0.36701  -0.36491  -0.36344
 Alpha  occ. eigenvalues --   -0.36229  -0.35818  -0.34912  -0.34641  -0.34256
 Alpha  occ. eigenvalues --   -0.34092  -0.33148  -0.32872  -0.31563  -0.31429
 Alpha  occ. eigenvalues --   -0.31407  -0.31078  -0.30792  -0.30730  -0.30566
 Alpha  occ. eigenvalues --   -0.30039  -0.29450  -0.29167  -0.24081  -0.23778
 Alpha  occ. eigenvalues --   -0.21273  -0.21060
 Alpha virt. eigenvalues --   -0.08903  -0.08370  -0.01439  -0.01316  -0.00156
 Alpha virt. eigenvalues --    0.00449   0.01911   0.01961   0.02394   0.02570
 Alpha virt. eigenvalues --    0.05163   0.05308   0.05557   0.06151   0.06305

 Mulliken charges:
               1
     1  Mg   0.831090
     2  C   -0.003467
     3  C   -0.022622
     4  C   -0.061412
     5  C   -0.094173
     6  N   -0.252751
     7  C   -0.054164
     8  C    0.021051
     9  C   -0.061054
    10  C    0.018220
    11  C    0.057379
    12  C    0.048966
    13  C   -0.081527
    14  H    0.000706
    15  N   -0.364177
    16  C    0.090929
    17  C   -0.170509
    18  C   -0.041471
    19  C    0.129276
    20  C    0.140611
    21  C    0.009628
    22  O   -0.229779
    23  C    0.054911
    24  N   -0.351641
    25  C    0.076933
    26  C   -0.074947
    27  C   -0.035819
    28  C    0.084616
    29  C    0.075279
    30  C    0.058356
    31  C   -0.010512
    32  N   -0.321560
    33  C    0.100473
    34  C   -0.161323
    35  C   -0.007585
    36  C    0.104550
    37  C    0.130300
    38  C    0.045003
    39  O   -0.216244
    40  C    0.039321
    41  C    0.154824
    42  O   -0.173564
    43  O   -0.300116
    44  C    0.179677
    45  H   -0.038459
    46  H   -0.005615
    47  H   -0.029192
    48  H    0.021657
    49  H    0.016273
    50  H    0.019383
    51  H    0.019408
    52  H    0.018295
    53  H    0.008869
    54  H    0.007744
    55  H    0.022165
    56  H    0.037176
    57  H    0.036410
    58  H    0.019885
    59  H    0.011628
    60  H    0.032340
    61  H    0.020434
    62  H    0.044992
    63  H    0.021345
    64  H    0.000803
    65  H    0.029754
    66  H    0.014100
    67  H    0.016415
    68  H    0.016388
    69  H   -0.002409
    70  H    0.007246
    71  H    0.010536
    72  H    0.017276
    73  H    0.008781
    74  H    0.034217
    75  H    0.049453
    76  H    0.040228
    77  H    0.029072
    78  H    0.038833
    79  H    0.042889
    80  Mg   0.838611
    81  C    0.003037
    82  C   -0.061061
    83  C   -0.104760
    84  C   -0.054732
    85  N   -0.218640
    86  C   -0.092786
    87  C   -0.042350
    88  C   -0.061284
    89  C    0.010977
    90  C    0.050369
    91  C    0.024656
    92  C   -0.040706
    93  H    0.041576
    94  N   -0.391161
    95  C    0.155122
    96  C   -0.142618
    97  C   -0.042391
    98  C    0.127154
    99  C    0.119217
   100  C    0.040000
   101  O   -0.203585
   102  C    0.039551
   103  N   -0.333278
   104  C    0.048210
   105  C   -0.057736
   106  C    0.015425
   107  C   -0.039431
   108  C    0.082147
   109  C    0.031334
   110  C    0.039681
   111  N   -0.320464
   112  C    0.146503
   113  C   -0.155168
   114  C   -0.024210
   115  C    0.123348
   116  C    0.118387
   117  C    0.036035
   118  O   -0.148989
   119  C   -0.004665
   120  C    0.202131
   121  O   -0.198421
   122  O   -0.329908
   123  C    0.164251
   124  H   -0.038369
   125  H   -0.000508
   126  H   -0.043672
   127  H    0.025034
   128  H    0.023738
   129  H    0.021441
   130  H    0.003537
   131  H    0.029325
   132  H    0.011263
   133  H    0.008517
   134  H    0.027386
   135  H    0.016227
   136  H    0.020637
   137  H    0.026100
   138  H    0.028265
   139  H    0.036696
   140  H    0.028196
   141  H    0.021096
   142  H    0.014631
   143  H    0.015020
   144  H    0.028211
   145  H    0.010052
   146  H    0.017413
   147  H   -0.003794
   148  H    0.009921
   149  H    0.011563
   150  H    0.012312
   151  H    0.011277
   152  H    0.009254
   153  H    0.018092
   154  H    0.040698
   155  H    0.048845
   156  H    0.031889
   157  H    0.052122
   158  H    0.038209
 Sum of Mulliken charges =  -0.00000

 Dipole moment (field-independent basis, Debye):
    X=              2.3277    Y=              0.6899    Z=              3.2095  Tot=              4.0243
 Quadrupole moment (field-independent basis, Debye-Ang):
   XX=           -333.2509   YY=           -499.2598   ZZ=           -493.1968
   XY=             32.8435   XZ=            -18.9363   YZ=             26.2209

 Normal termination of Gaussian 16 at Thu Sep  2 16:16:17 2021.
