 Gaussian 16, Revision A.03,
 Gaussian 16:  ES64L-G16RevA.03 25-Dec-2016

 -----------------------------------
 #p cam-b3lyp/Def2SVP td=(nstates=5)
 -----------------------------------

 --------------------------------
 TDDFT excited states in gaussian
 --------------------------------
 Symbolic Z-matrix:
 Charge =  0 Multiplicity = 1

                         Standard orientation:
 ---------------------------------------------------------------------
 Center     Atomic      Atomic             Coordinates (Angstroms)
 Number     Number       Type             X           Y           Z
 ---------------------------------------------------------------------
      1         12           0       27.781763   -0.570325    0.289238
      2          6           0       26.037170    2.279123    1.307093
      3          6           0       28.405548    1.107330   -2.725856
      4          6           0       28.995816   -3.388522   -1.045986
      5          6           0       26.218768   -2.345187    2.789281
      6          7           0       27.367901    1.553247   -0.609972
      7          6           0       26.579800    2.452476    0.037109
      8          6           0       26.388908    3.753519   -0.839051
      9          6           0       26.960471    3.237426   -2.254707
     10          6           0       27.578477    1.877465   -1.888928
     11          6           0       25.725776    2.971143   -3.187241
     12          6           0       27.314773    4.869148   -0.228977
     13          6           0       27.409234    6.217179   -0.994289
     14          1           0       28.622840    7.041240   -1.306439
     15          7           0       28.748117   -0.983833   -1.519237
     16          6           0       28.962010   -0.173307   -2.646619
     17          6           0       29.629109   -0.944576   -3.609450
     18          6           0       29.975266   -2.179816   -3.078224
     19          6           0       29.240942   -2.225081   -1.824552
     20          6           0       30.039574   -0.332540   -4.908652
     21          6           0       30.782251   -3.370118   -3.693969
     22          8           0       31.037831   -4.419027   -3.112240
     23          6           0       31.521920   -3.246162   -5.028833
     24          7           0       27.515944   -2.574802    0.752215
     25          6           0       28.246840   -3.526935    0.130544
     26          6           0       28.202386   -4.897691    0.833697
     27          6           0       27.200101   -4.598699    1.982955
     28          6           0       27.037696   -3.089807    1.942122
     29          6           0       27.920902   -6.107822   -0.117601
     30          6           0       27.549689   -5.150093    3.392402
     31          6           0       28.604799   -4.441828    4.130975
     32          7           0       26.483353   -0.157958    1.823860
     33          6           0       25.947635   -0.936003    2.735586
     34          6           0       25.161517   -0.175763    3.712667
     35          6           0       25.202232    1.135128    3.138914
     36          6           0       25.970733    1.092232    1.992090
     37          6           0       24.821906   -0.519755    5.087224
     38          6           0       24.750711    2.497838    3.359758
     39          8           0       24.160467    2.992338    4.293323
     40          6           0       25.233202    3.255455    2.116842
     41          6           0       24.073590    3.931141    1.377475
     42          8           0       23.307086    3.357341    0.648250
     43          8           0       24.012940    5.255298    1.740757
     44          6           0       22.917534    5.981167    1.057543
     45          1           0       28.703840    1.683332   -3.603346
     46          1           0       29.555603   -4.280052   -1.337168
     47          1           0       25.973983   -3.092465    3.546097
     48          1           0       25.340592    4.030233   -0.954005
     49          1           0       27.659347    3.920525   -2.739067
     50          1           0       25.462116    1.928304   -3.360574
     51          1           0       25.953758    3.204962   -4.227461
     52          1           0       24.815402    3.480756   -2.872272
     53          1           0       28.307188    4.434757   -0.111567
     54          1           0       26.977187    5.034743    0.794472
     55          1           0       26.659606    6.842309   -0.508251
     56          1           0       27.069941    5.904547   -1.981059
     57          1           0       29.727690    0.700612   -5.064034
     58          1           0       29.774130   -1.030388   -5.703966
     59          1           0       31.127562   -0.302861   -4.843403
     60          1           0       30.861100   -3.142037   -5.889469
     61          1           0       32.272129   -4.016844   -5.206572
     62          1           0       32.147539   -2.357106   -4.947384
     63          1           0       29.240190   -4.914520    1.165362
     64          1           0       26.260614   -5.022694    1.628415
     65          1           0       28.296948   -5.911120   -1.121046
     66          1           0       26.844606   -6.269427   -0.182872
     67          1           0       28.414644   -7.023957    0.207125
     68          1           0       27.872394   -6.162184    3.150235
     69          1           0       26.638001   -5.260501    3.979861
     70          1           0       28.175136   -3.577869    4.637743
     71          1           0       29.432499   -4.175085    3.474102
     72          1           0       29.005464   -5.044771    4.946396
     73          1           0       25.585160   -1.237560    5.388653
     74          1           0       23.897496   -1.057014    5.299756
     75          1           0       24.839528    0.411995    5.651593
     76          1           0       25.952348    4.006077    2.446363
     77          1           0       22.520175    6.727633    1.745032
     78          1           0       22.010069    5.408996    0.863439
     79          1           0       23.289115    6.516803    0.184579
     80         12           0      -27.535987   -0.707804   -0.055195
     81          6           0      -25.618822    2.225649   -1.005622
     82          6           0      -29.271271    1.369456    1.954450
     83          6           0      -29.170224   -3.311761    0.811675
     84          6           0      -25.331860   -2.682352   -1.999379
     85          7           0      -27.435822    1.657635    0.390016
     86          6           0      -26.659928    2.597412   -0.177136
     87          6           0      -27.117908    4.001786    0.260541
     88          6           0      -27.964633    3.551990    1.540882
     89          6           0      -28.292671    2.145966    1.259725
     90          6           0      -27.454688    3.944316    2.917473
     91          6           0      -27.902088    4.648340   -0.894424
     92          6           0      -27.869161    6.204532   -0.851773
     93          1           0      -26.881600    7.032755    0.093575
     94          7           0      -29.089536   -0.967619    1.204037
     95          6           0      -29.641337   -0.011549    2.035052
     96          6           0      -30.656118   -0.663465    2.857278
     97          6           0      -30.692695   -2.027920    2.477628
     98          6           0      -29.610753   -2.136597    1.458370
     99          6           0      -31.455114    0.017969    3.877181
    100          6           0      -31.671106   -3.218500    2.968844
    101          8           0      -31.686498   -4.285844    2.419352
    102          6           0      -32.828667   -2.955442    3.948690
    103          7           0      -27.095116   -2.746723   -0.332380
    104          6           0      -28.043653   -3.613631    0.012931
    105          6           0      -27.807652   -5.018872   -0.471707
    106          6           0      -26.851254   -4.711975   -1.649926
    107          6           0      -26.286319   -3.325069   -1.186781
    108          6           0      -27.125873   -5.981943    0.608012
    109          6           0      -27.501425   -4.711442   -3.096835
    110          6           0      -28.730543   -5.618268   -3.395935
    111          7           0      -25.780442   -0.380630   -1.161500
    112          6           0      -25.032882   -1.207607   -1.933521
    113          6           0      -24.088718   -0.507910   -2.680573
    114          6           0      -24.264242    0.792108   -2.300819
    115          6           0      -25.304458    0.869263   -1.395912
    116          6           0      -23.148105   -1.103224   -3.724704
    117          6           0      -23.739672    2.137775   -2.577843
    118          8           0      -22.749480    2.541538   -3.169058
    119          6           0      -24.699243    3.117402   -1.771203
    120          6           0      -23.857729    3.991536   -0.972877
    121          8           0      -23.294464    3.713068    0.090468
    122          8           0      -23.586708    5.074009   -1.731576
    123          6           0      -22.466581    5.844485   -1.221904
    124          1           0      -29.701781    2.006493    2.729985
    125          1           0      -29.724602   -4.184646    1.161073
    126          1           0      -24.740165   -3.320510   -2.658728
    127          1           0      -26.282822    4.601723    0.622433
    128          1           0      -28.904551    4.098328    1.475248
    129          1           0      -28.106439    4.668497    3.405293
    130          1           0      -26.453057    4.367054    2.841496
    131          1           0      -27.313139    3.102885    3.595787
    132          1           0      -28.953253    4.397308   -0.750782
    133          1           0      -27.628556    4.275206   -1.881193
    134          1           0      -28.869267    6.626667   -0.748220
    135          1           0      -27.737015    6.449780   -1.905479
    136          1           0      -31.527824    1.088325    3.685604
    137          1           0      -30.941686   -0.181324    4.817962
    138          1           0      -32.484229   -0.335345    3.945548
    139          1           0      -33.607363   -2.307323    3.546672
    140          1           0      -32.338033   -2.637095    4.868752
    141          1           0      -33.280697   -3.901241    4.248557
    142          1           0      -28.813767   -5.361408   -0.712396
    143          1           0      -26.012070   -5.404494   -1.710704
    144          1           0      -27.739382   -6.877974    0.516832
    145          1           0      -27.174669   -5.615117    1.633874
    146          1           0      -26.093825   -6.265624    0.405409
    147          1           0      -26.718688   -4.907030   -3.828377
    148          1           0      -27.909021   -3.700878   -3.129164
    149          1           0      -29.654533   -5.104775   -3.131210
    150          1           0      -28.504546   -6.533027   -2.846879
    151          1           0      -28.773063   -5.923168   -4.440986
    152          1           0      -23.689991   -1.962680   -4.120125
    153          1           0      -22.227425   -1.499879   -3.297782
    154          1           0      -22.960690   -0.345787   -4.485587
    155          1           0      -25.255452    3.684794   -2.518453
    156          1           0      -22.221012    6.709701   -1.837033
    157          1           0      -21.584559    5.281166   -0.916811
    158          1           0      -22.736020    6.328704   -0.282637
 ---------------------------------------------------------------------

 SCF Done:  E(RCAM-B3LYP) =  -4069.79975353     A.U. after   18 cycles

 Excitation energies and oscillator strengths:

 Excited State   1:      Singlet-A      1.7450 eV  710.49 nm  f=0.3904  <S**2>=0.000
     309 -> 315       -0.18606
     312 -> 313        0.68385
     309 <- 315       -0.10699
 This state for optimization and/or second-order correction.
 Total Energy, E(TD-HF/TD-DFT) =  -4069.73562429
 Copying the excited state density for this state as the 1-particle RhoCI density.

 Excited State   2:      Singlet-A      1.8346 eV  675.81 nm  f=0.3715  <S**2>=0.000
     310 -> 316       -0.18806
     311 -> 314        0.68158
     310 <- 316       -0.10395

 Excited State   3:      Singlet-A      2.2402 eV  553.45 nm  f=0.1564  <S**2>=0.000
     310 -> 314        0.65518
     311 -> 316        0.25326

 Excited State   4:      Singlet-A      2.2617 eV  548.19 nm  f=0.1161  <S**2>=0.000
     309 -> 313        0.64505
     312 -> 315        0.27667

 Excited State   5:      Singlet-A      3.3166 eV  373.83 nm  f=0.0000  <S**2>=0.000
     312 -> 314        0.70710

 The electronic state is 1-A.
 Alpha  occ. eigenvalues --  -46.89349 -46.88687 -19.25765 -19.24876 -19.20513
 Alpha  occ. eigenvalues --  -19.20393 -19.19415 -19.18846 -19.18815 -19.18748
 Alpha  occ. eigenvalues --  -14.42225 -14.41468 -14.41117 -14.41042 -14.39940
 Alpha  occ. eigenvalues --  -14.39127 -14.39119 -14.38630 -10.39760 -10.38198
 Alpha  occ. eigenvalues --  -10.36966 -10.36150 -10.34802 -10.34490 -10.31792
 Alpha  occ. eigenvalues --  -10.31235 -10.31057 -10.30782 -10.30720 -10.30612
 Alpha  occ. eigenvalues --  -10.30608 -10.30556 -10.30512 -10.30340 -10.29942
 Alpha  occ. eigenvalues --  -10.29630 -10.29599 -10.29589 -10.29573 -10.29414
 Alpha  occ. eigenvalues --  -10.29190 -10.28679 -10.28656 -10.28538 -10.28487
 Alpha  occ. eigenvalues --  -10.28396 -10.28376 -10.27953 -10.27942 -10.27823
 Alpha  occ. eigenvalues --  -10.27719 -10.27693 -10.27625 -10.27579 -10.27512
 Alpha  occ. eigenvalues --  -10.27493 -10.27487 -10.27469 -10.27406 -10.27355
 Alpha  occ. eigenvalues --  -10.27282 -10.27255 -10.27249 -10.27114 -10.27109
 Alpha  occ. eigenvalues --  -10.27081 -10.27016 -10.26940 -10.26487 -10.26333
 Alpha  occ. eigenvalues --  -10.26201 -10.26174 -10.26070 -10.25976 -10.25972
 Alpha  occ. eigenvalues --  -10.25971 -10.25814 -10.25528 -10.25455 -10.25355
 Alpha  occ. eigenvalues --  -10.25270 -10.25252 -10.25209 -10.25111 -10.24276
 Alpha  occ. eigenvalues --  -10.23706  -3.17849  -3.17250  -1.92750  -1.92322
 Alpha  occ. eigenvalues --   -1.92138  -1.92134  -1.91719  -1.91538  -1.16812
 Alpha  occ. eigenvalues --   -1.16469  -1.12596  -1.10380  -1.10280  -1.09438
 Alpha  occ. eigenvalues --   -1.08749  -1.06618  -1.05770  -1.05188  -1.04952
 Alpha  occ. eigenvalues --   -1.04622  -1.03763  -1.03398  -1.03329  -1.02422
 Alpha  occ. eigenvalues --   -0.93803  -0.92330  -0.89416  -0.89155  -0.88731
 Alpha  occ. eigenvalues --   -0.88546  -0.88228  -0.88093  -0.87508  -0.87465
 Alpha  occ. eigenvalues --   -0.87203  -0.86889  -0.86180  -0.85574  -0.84356
 Alpha  occ. eigenvalues --   -0.84048  -0.83606  -0.83089  -0.82385  -0.82366
 Alpha  occ. eigenvalues --   -0.81927  -0.81520  -0.80907  -0.80715  -0.80393
 Alpha  occ. eigenvalues --   -0.80079  -0.78591  -0.78493  -0.77576  -0.76823
 Alpha  occ. eigenvalues --   -0.76621  -0.76565  -0.76134  -0.75696  -0.75247
 Alpha  occ. eigenvalues --   -0.74843  -0.72740  -0.72463  -0.71781  -0.71646
 Alpha  occ. eigenvalues --   -0.70032  -0.69647  -0.69144  -0.68747  -0.68337
 Alpha  occ. eigenvalues --   -0.67563  -0.66987  -0.66754  -0.65428  -0.65352
 Alpha  occ. eigenvalues --   -0.65056  -0.64809  -0.64652  -0.64422  -0.63992
 Alpha  occ. eigenvalues --   -0.63668  -0.62469  -0.61789  -0.60798  -0.60052
 Alpha  occ. eigenvalues --   -0.59490  -0.59429  -0.59359  -0.59226  -0.58614
 Alpha  occ. eigenvalues --   -0.58391  -0.58223  -0.57902  -0.57462  -0.57331
 Alpha  occ. eigenvalues --   -0.56533  -0.56523  -0.55709  -0.55486  -0.55461
 Alpha  occ. eigenvalues --   -0.55216  -0.55172  -0.54611  -0.54577  -0.54027
 Alpha  occ. eigenvalues --   -0.53995  -0.53770  -0.53593  -0.53230  -0.53120
 Alpha  occ. eigenvalues --   -0.52942  -0.52856  -0.52671  -0.52528  -0.52257
 Alpha  occ. eigenvalues --   -0.52076  -0.51660  -0.51276  -0.51143  -0.51112
 Alpha  occ. eigenvalues --   -0.50996  -0.50641  -0.50581  -0.50447  -0.50267
 Alpha  occ. eigenvalues --   -0.50021  -0.49903  -0.49694  -0.49610  -0.49436
 Alpha  occ. eigenvalues --   -0.49200  -0.49069  -0.48955  -0.48903  -0.48802
 Alpha  occ. eigenvalues --   -0.48752  -0.48596  -0.48478  -0.48280  -0.47889
 Alpha  occ. eigenvalues --   -0.47883  -0.47488  -0.47480  -0.47377  -0.47076
 Alpha  occ. eigenvalues --   -0.47032  -0.46718  -0.46640  -0.46193  -0.46097
 Alpha  occ. eigenvalues --   -0.45982  -0.45744  -0.45717  -0.45421  -0.45350
 Alpha  occ. eigenvalues --   -0.45057  -0.44950  -0.44919  -0.44715  -0.44631
 Alpha  occ. eigenvalues --   -0.44407  -0.44361  -0.44310  -0.44189  -0.44060
 Alpha  occ. eigenvalues --   -0.44046  -0.43884  -0.43836  -0.43789  -0.43648
 Alpha  occ. eigenvalues --   -0.43318  -0.43292  -0.43238  -0.43225  -0.42948
 Alpha  occ. eigenvalues --   -0.42882  -0.42642  -0.42554  -0.42462  -0.42385
 Alpha  occ. eigenvalues --   -0.42373  -0.42241  -0.42060  -0.41829  -0.41640
 Alpha  occ. eigenvalues --   -0.41400  -0.41339  -0.40752  -0.40389  -0.40235
 Alpha  occ. eigenvalues --   -0.39720  -0.39592  -0.39319  -0.38823  -0.38589
 Alpha  occ. eigenvalues --   -0.38456  -0.38238  -0.38067  -0.37827  -0.37728
 Alpha  occ. eigenvalues --   -0.37434  -0.37306  -0.36695  -0.36586  -0.36338
 Alpha  occ. eigenvalues --   -0.35907  -0.35634  -0.34907  -0.34250  -0.34157
 Alpha  occ. eigenvalues --   -0.33708  -0.33143  -0.32465  -0.31916  -0.31509
 Alpha  occ. eigenvalues --   -0.31423  -0.31072  -0.30788  -0.30593  -0.30352
 Alpha  occ. eigenvalues --   -0.30033  -0.29463  -0.29162  -0.23773  -0.23360
 Alpha  occ. eigenvalues --   -0.21351  -0.21055
 Alpha virt. eigenvalues --   -0.08365  -0.08241  -0.01310  -0.01064   0.00455
 Alpha virt. eigenvalues --    0.00580   0.01918   0.02434   0.02576   0.02757
 Alpha virt. eigenvalues --    0.04216   0.05169   0.05564   0.05734   0.05895

 Mulliken charges:
               1
     1  Mg   0.838602
     2  C    0.003056
     3  C   -0.061062
     4  C   -0.104763
     5  C   -0.054734
     6  N   -0.218646
     7  C   -0.092778
     8  C   -0.042344
     9  C   -0.061312
    10  C    0.011002
    11  C    0.050367
    12  C    0.024654
    13  C   -0.040715
    14  H    0.041594
    15  N   -0.391168
    16  C    0.155144
    17  C   -0.142603
    18  C   -0.042402
    19  C    0.127178
    20  C    0.119217
    21  C    0.040015
    22  O   -0.203585
    23  C    0.039546
    24  N   -0.333273
    25  C    0.048226
    26  C   -0.057738
    27  C    0.015373
    28  C   -0.039427
    29  C    0.082152
    30  C    0.031367
    31  C    0.039681
    32  N   -0.320462
    33  C    0.146498
    34  C   -0.155199
    35  C   -0.024211
    36  C    0.123351
    37  C    0.118394
    38  C    0.036043
    39  O   -0.149038
    40  C   -0.004681
    41  C    0.202102
    42  O   -0.198408
    43  O   -0.329902
    44  C    0.164255
    45  H   -0.038351
    46  H   -0.000503
    47  H   -0.043696
    48  H    0.025032
    49  H    0.023751
    50  H    0.021446
    51  H    0.003556
    52  H    0.029335
    53  H    0.011265
    54  H    0.008510
    55  H    0.027388
    56  H    0.016235
    57  H    0.020648
    58  H    0.026116
    59  H    0.028273
    60  H    0.036709
    61  H    0.028203
    62  H    0.021099
    63  H    0.014634
    64  H    0.015020
    65  H    0.028222
    66  H    0.010056
    67  H    0.017413
    68  H   -0.003794
    69  H    0.009899
    70  H    0.011552
    71  H    0.012323
    72  H    0.011266
    73  H    0.009248
    74  H    0.018043
    75  H    0.040671
    76  H    0.048848
    77  H    0.031871
    78  H    0.052118
    79  H    0.038232
    80  Mg   0.824227
    81  C    0.010064
    82  C   -0.058330
    83  C   -0.077505
    84  C   -0.071134
    85  N   -0.187793
    86  C   -0.104805
    87  C   -0.021626
    88  C   -0.035996
    89  C   -0.028531
    90  C    0.088085
    91  C    0.049004
    92  C   -0.037969
    93  H    0.035310
    94  N   -0.382888
    95  C    0.143314
    96  C   -0.137999
    97  C   -0.053140
    98  C    0.096495
    99  C    0.105621
   100  C    0.029681
   101  O   -0.167274
   102  C    0.040803
   103  N   -0.248102
   104  C    0.043886
   105  C   -0.049669
   106  C   -0.064506
   107  C    0.033772
   108  C    0.074632
   109  C    0.034646
   110  C    0.005243
   111  N   -0.317537
   112  C    0.075661
   113  C   -0.206285
   114  C    0.001052
   115  C    0.122216
   116  C    0.136331
   117  C    0.060776
   118  O   -0.161552
   119  C   -0.025096
   120  C    0.186397
   121  O   -0.243526
   122  O   -0.299430
   123  C    0.194932
   124  H   -0.035358
   125  H   -0.014031
   126  H   -0.022074
   127  H    0.018019
   128  H   -0.009356
   129  H    0.017780
   130  H    0.020705
   131  H    0.014769
   132  H    0.007785
   133  H    0.024747
   134  H    0.015698
   135  H    0.014648
   136  H    0.021421
   137  H    0.041751
   138  H    0.018428
   139  H    0.065181
   140  H    0.023192
   141  H    0.023997
   142  H    0.019500
   143  H   -0.009332
   144  H    0.020089
   145  H    0.023949
   146  H    0.021315
   147  H    0.012419
   148  H    0.003380
   149  H    0.029272
   150  H    0.014356
   151  H    0.015683
   152  H    0.005771
   153  H    0.029858
   154  H    0.032434
   155  H    0.043033
   156  H    0.030130
   157  H    0.042740
   158  H    0.006648
 Sum of Mulliken charges =  -0.00000

 Dipole moment (field-independent basis, Debye):
    X=             -3.3576    Y=              1.0005    Z=             -1.2018  Tot=              3.7038
 Quadrupole moment (field-independent basis, Debye-Ang):
   XX=            -91.4810   YY=           -482.0937   ZZ=           -497.1613
   XY=            -11.5734   XZ=           -138.5663   YZ=            -14.0217

 Normal termination of Gaussian 16 at Tue Aug 31 21:50:02 2021.
