 Gaussian 16, Revision A.03,
 Gaussian 16:  ES64L-G16RevA.03 25-Dec-2016

 -----------------------------------
 #p cam-b3lyp/Def2SVP td=(nstates=5)
 -----------------------------------

 --------------------------------
 TDDFT excited states in gaussian
 --------------------------------
 Symbolic Z-matrix:
 Charge =  0 Multiplicity = 1

                         Standard orientation:
 ---------------------------------------------------------------------
 Center     Atomic      Atomic             Coordinates (Angstroms)
 Number     Number       Type             X           Y           Z
 ---------------------------------------------------------------------
      1         12           0       31.383446    0.480472   -0.343667
      2          6           0       29.112586   -2.010860    0.428348
      3          6           0       28.931037    2.881957    0.557101
      4          6           0       33.726629    2.974252   -0.524564
      5          6           0       33.895881   -1.853637   -0.754297
      6          7           0       29.237546    0.392108    0.275711
      7          6           0       28.561202   -0.758260    0.623528
      8          6           0       27.174260   -0.497172    1.322001
      9          6           0       26.961223    1.054496    0.988680
     10          6           0       28.447008    1.534723    0.525529
     11          6           0       25.857027    1.474413   -0.054787
     12          6           0       27.137322   -0.772231    2.784152
     13          6           0       26.201994   -1.821757    3.353220
     14          1           0       25.725401   -1.589395    4.796004
     15          7           0       31.309164    2.660758   -0.115782
     16          6           0       30.158800    3.404969    0.207009
     17          6           0       30.463478    4.799875    0.166394
     18          6           0       31.939737    4.851050   -0.000229
     19          6           0       32.422648    3.451936   -0.215759
     20          6           0       29.469683    5.907900    0.530230
     21          6           0       32.702225    6.187077    0.033267
     22          8           0       32.233132    7.306413    0.218103
     23          6           0       34.181761    6.116316    0.172094
     24          7           0       33.636336    0.557741   -0.435004
     25          6           0       34.277343    1.709201   -0.677678
     26          6           0       35.770555    1.408478   -0.556728
     27          6           0       35.902586   -0.177599   -0.719027
     28          6           0       34.356898   -0.561739   -0.662615
     29          6           0       36.544349    2.098586   -1.735440
     30          6           0       36.759321   -1.007806    0.322750
     31          6           0       38.030585   -1.720050   -0.114529
     32          7           0       31.496534   -1.578711   -0.275260
     33          6           0       32.591207   -2.418990   -0.501308
     34          6           0       32.210712   -3.782426   -0.291576
     35          6           0       30.834863   -3.707642    0.087916
     36          6           0       30.469963   -2.306509    0.022106
     37          6           0       33.052231   -5.014103   -0.407978
     38          6           0       29.674325   -4.424591    0.423089
     39          8           0       29.542911   -5.627523    0.529320
     40          6           0       28.539309   -3.374391    0.736657
     41          6           0       27.300132   -3.811817    0.075023
     42          8           0       26.359025   -4.317845    0.675757
     43          8           0       27.383639   -3.589577   -1.291408
     44          6           0       26.184177   -4.049153   -2.027001
     45          1           0       28.250595    3.709388    0.766733
     46          1           0       34.387929    3.834549   -0.650388
     47          1           0       34.712381   -2.572723   -0.846207
     48          1           0       26.403068   -1.084465    0.824764
     49          1           0       26.793706    1.553695    1.943734
     50          1           0       25.230094    0.599219   -0.225058
     51          1           0       26.245737    1.847986   -1.002218
     52          1           0       25.304025    2.302654    0.386706
     53          1           0       26.809503    0.152761    3.260910
     54          1           0       28.123533   -1.081196    3.128938
     55          1           0       26.751242   -2.761558    3.401709
     56          1           0       25.275949   -1.926867    2.788442
     57          1           0       28.469823    5.675819    0.896318
     58          1           0       29.462078    6.509060   -0.378638
     59          1           0       30.050064    6.551253    1.190786
     60          1           0       34.805841    6.074552   -0.719557
     61          1           0       34.493231    5.347387    0.879247
     62          1           0       34.484599    7.066907    0.612720
     63          1           0       36.192908    1.735040    0.393848
     64          1           0       36.197466   -0.427139   -1.737679
     65          1           0       37.375293    2.643617   -1.287606
     66          1           0       35.951340    2.769643   -2.358109
     67          1           0       36.944314    1.389506   -2.460604
     68          1           0       36.051064   -1.734155    0.720749
     69          1           0       37.090698   -0.275906    1.060678
     70          1           0       38.168218   -2.521430    0.611821
     71          1           0       38.871830   -1.034220   -0.011918
     72          1           0       38.080328   -2.196457   -1.093073
     73          1           0       32.391292   -5.849089   -0.174006
     74          1           0       33.889943   -4.897756    0.278960
     75          1           0       33.457926   -5.207806   -1.401113
     76          1           0       28.387282   -3.478232    1.811527
     77          1           0       26.309423   -5.086711   -2.336477
     78          1           0       26.035913   -3.329515   -2.832105
     79          1           0       25.281139   -3.964677   -1.423114
     80         12           0      -31.644340    0.164019    0.354414
     81          6           0      -29.233886   -1.551887   -1.587727
     82          6           0      -32.145911    2.229204   -2.267169
     83          6           0      -33.762059    1.796257    2.243694
     84          6           0      -30.411779   -1.653707    3.190699
     85          7           0      -30.709061    0.409474   -1.711718
     86          6           0      -29.947922   -0.577166   -2.315855
     87          6           0      -29.929913   -0.275512   -3.775477
     88          6           0      -30.364568    1.186892   -3.876800
     89          6           0      -31.158741    1.327680   -2.554087
     90          6           0      -29.115823    2.146234   -3.878803
     91          6           0      -30.826796   -1.232673   -4.730478
     92          6           0      -30.267827   -1.732749   -6.097714
     93          1           0      -29.648009   -0.657666   -7.036587
     94          7           0      -32.789827    1.823901   -0.005726
     95          6           0      -32.856575    2.487109   -1.122318
     96          6           0      -33.780955    3.618383   -0.932496
     97          6           0      -34.451211    3.412684    0.311364
     98          6           0      -33.654657    2.316745    0.932708
     99          6           0      -34.066935    4.826270   -1.897189
    100          6           0      -35.659780    4.103781    0.941928
    101          8           0      -36.063389    3.890909    2.101214
    102          6           0      -36.260842    5.224398    0.235246
    103          7           0      -31.892517    0.170326    2.520979
    104          6           0      -32.963799    0.893102    3.039370
    105          6           0      -33.191558    0.462359    4.539648
    106          6           0      -32.203372   -0.716061    4.725089
    107          6           0      -31.470294   -0.778790    3.383239
    108          6           0      -33.082807    1.630605    5.519927
    109          6           0      -32.815551   -2.050838    5.219486
    110          6           0      -32.007282   -2.877456    6.246695
    111          7           0      -30.141421   -1.285122    0.778151
    112          6           0      -29.722740   -1.887148    1.960507
    113          6           0      -28.765208   -2.914176    1.637541
    114          6           0      -28.505538   -2.776412    0.273159
    115          6           0      -29.372781   -1.775354   -0.244911
    116          6           0      -28.221451   -3.869545    2.510392
    117          6           0      -27.760568   -3.315902   -0.873998
    118          8           0      -26.963272   -4.233382   -0.987706
    119          6           0      -28.237545   -2.539965   -2.145137
    120          6           0      -27.005999   -1.927577   -2.788191
    121          8           0      -26.383455   -0.908758   -2.590575
    122          8           0      -26.767768   -2.795790   -3.814160
    123          6           0      -25.842885   -2.358660   -4.887004
    124          1           0      -32.383098    2.849930   -3.134154
    125          1           0      -34.616054    2.225794    2.771440
    126          1           0      -30.186026   -2.364922    3.987405
    127          1           0      -28.960127   -0.352279   -4.267760
    128          1           0      -31.096691    1.354740   -4.666313
    129          1           0      -29.255919    3.052447   -4.467117
    130          1           0      -28.240960    1.712597   -4.363856
    131          1           0      -28.987850    2.439171   -2.837293
    132          1           0      -31.815139   -0.791424   -4.854952
    133          1           0      -31.090202   -2.142013   -4.189000
    134          1           0      -31.173287   -2.068466   -6.604523
    135          1           0      -29.568634   -2.505456   -5.778011
    136          1           0      -35.055491    4.833811   -2.355760
    137          1           0      -33.308953    4.790960   -2.680199
    138          1           0      -34.085326    5.806723   -1.421222
    139          1           0      -36.539167    4.940779   -0.780082
    140          1           0      -35.577570    6.073122    0.202554
    141          1           0      -37.225890    5.410714    0.705472
    142          1           0      -34.177747   -0.001159    4.569802
    143          1           0      -31.376298   -0.423882    5.371855
    144          1           0      -32.045580    1.729835    5.841640
    145          1           0      -33.629618    1.492782    6.452176
    146          1           0      -33.225730    2.563551    4.975686
    147          1           0      -33.135746   -2.716393    4.418003
    148          1           0      -33.787941   -1.884021    5.684822
    149          1           0      -31.497983   -3.626835    5.640594
    150          1           0      -32.762552   -3.385784    6.846949
    151          1           0      -31.316962   -2.232166    6.789288
    152          1           0      -27.269917   -4.345399    2.274300
    153          1           0      -28.997824   -4.616937    2.676954
    154          1           0      -28.024107   -3.330965    3.436556
    155          1           0      -28.743496   -3.220562   -2.829653
    156          1           0      -26.333057   -2.663045   -5.811319
    157          1           0      -24.850691   -2.809187   -4.881223
    158          1           0      -25.753665   -1.272649   -4.881458
 ---------------------------------------------------------------------

 SCF Done:  E(RCAM-B3LYP) =  -4069.79035738     A.U. after   18 cycles

 Excitation energies and oscillator strengths:

 Excited State   1:      Singlet-A      1.7132 eV  723.72 nm  f=0.3777  <S**2>=0.000
     309 -> 315        0.17423
     311 -> 313        0.68636
     309 <- 315        0.10491
 This state for optimization and/or second-order correction.
 Total Energy, E(TD-HF/TD-DFT) =  -4069.72740016
 Copying the excited state density for this state as the 1-particle RhoCI density.

 Excited State   2:      Singlet-A      1.7330 eV  715.44 nm  f=0.3875  <S**2>=0.000
     310 -> 316       -0.19056
     312 -> 314        0.68153
     310 <- 316       -0.10758

 Excited State   3:      Singlet-A      2.1719 eV  570.86 nm  f=0.1595  <S**2>=0.000
     309 -> 313        0.65198
     311 -> 315       -0.25356

 Excited State   4:      Singlet-A      2.2617 eV  548.20 nm  f=0.0687  <S**2>=0.000
     310 -> 314        0.62177
     312 -> 316        0.32227

 Excited State   5:      Singlet-A      2.9052 eV  426.76 nm  f=0.0000  <S**2>=0.000
     312 -> 313        0.70711

 The electronic state is 1-A.
 Alpha  occ. eigenvalues --  -46.90498 -46.89366 -19.25138 -19.24355 -19.20027
 Alpha  occ. eigenvalues --  -19.19842 -19.19254 -19.19126 -19.18677 -19.18317
 Alpha  occ. eigenvalues --  -14.43503 -14.42008 -14.41773 -14.41421 -14.40064
 Alpha  occ. eigenvalues --  -14.39888 -14.39854 -14.38951 -10.39228 -10.39141
 Alpha  occ. eigenvalues --  -10.35520 -10.35290 -10.34811 -10.34205 -10.33123
 Alpha  occ. eigenvalues --  -10.32089 -10.31699 -10.31694 -10.31686 -10.31527
 Alpha  occ. eigenvalues --  -10.31449 -10.30841 -10.30809 -10.30746 -10.30434
 Alpha  occ. eigenvalues --  -10.30336 -10.30142 -10.30038 -10.29983 -10.29862
 Alpha  occ. eigenvalues --  -10.29848 -10.29539 -10.29450 -10.29438 -10.29108
 Alpha  occ. eigenvalues --  -10.28723 -10.28688 -10.28532 -10.28452 -10.28306
 Alpha  occ. eigenvalues --  -10.28282 -10.28276 -10.28212 -10.28208 -10.27914
 Alpha  occ. eigenvalues --  -10.27911 -10.27893 -10.27707 -10.27663 -10.27578
 Alpha  occ. eigenvalues --  -10.27528 -10.27477 -10.27477 -10.27350 -10.27350
 Alpha  occ. eigenvalues --  -10.27311 -10.27178 -10.27044 -10.26999 -10.26846
 Alpha  occ. eigenvalues --  -10.26685 -10.26536 -10.26368 -10.26261 -10.26201
 Alpha  occ. eigenvalues --  -10.26192 -10.26066 -10.26046 -10.25914 -10.25799
 Alpha  occ. eigenvalues --  -10.25709 -10.25623 -10.25429 -10.25252 -10.24925
 Alpha  occ. eigenvalues --  -10.24792  -3.18709  -3.17753  -1.93637  -1.93140
 Alpha  occ. eigenvalues --   -1.93011  -1.92651  -1.92210  -1.92045  -1.16111
 Alpha  occ. eigenvalues --   -1.15551  -1.10074  -1.09784  -1.09586  -1.09360
 Alpha  occ. eigenvalues --   -1.07755  -1.07495  -1.05148  -1.04834  -1.04072
 Alpha  occ. eigenvalues --   -1.03935  -1.03050  -1.02586  -1.02064  -1.01752
 Alpha  occ. eigenvalues --   -0.92762  -0.92602  -0.89518  -0.89395  -0.88876
 Alpha  occ. eigenvalues --   -0.88472  -0.88209  -0.87980  -0.87710  -0.87557
 Alpha  occ. eigenvalues --   -0.87189  -0.87122  -0.86880  -0.85833  -0.84531
 Alpha  occ. eigenvalues --   -0.84227  -0.83859  -0.83587  -0.82911  -0.82727
 Alpha  occ. eigenvalues --   -0.82463  -0.82244  -0.81497  -0.80903  -0.80767
 Alpha  occ. eigenvalues --   -0.80591  -0.78382  -0.77851  -0.77445  -0.77202
 Alpha  occ. eigenvalues --   -0.77028  -0.77003  -0.76236  -0.75856  -0.75542
 Alpha  occ. eigenvalues --   -0.75113  -0.73519  -0.72503  -0.72299  -0.71812
 Alpha  occ. eigenvalues --   -0.69410  -0.69010  -0.68892  -0.68748  -0.68008
 Alpha  occ. eigenvalues --   -0.67693  -0.67361  -0.67147  -0.65649  -0.65488
 Alpha  occ. eigenvalues --   -0.65471  -0.65305  -0.65265  -0.65043  -0.64825
 Alpha  occ. eigenvalues --   -0.64323  -0.63022  -0.61933  -0.60477  -0.60267
 Alpha  occ. eigenvalues --   -0.59765  -0.59599  -0.59474  -0.59229  -0.59083
 Alpha  occ. eigenvalues --   -0.58314  -0.57938  -0.57808  -0.57495  -0.57002
 Alpha  occ. eigenvalues --   -0.56568  -0.56148  -0.55990  -0.55892  -0.55462
 Alpha  occ. eigenvalues --   -0.55198  -0.54825  -0.54458  -0.53861  -0.53693
 Alpha  occ. eigenvalues --   -0.53562  -0.53537  -0.53249  -0.53241  -0.53219
 Alpha  occ. eigenvalues --   -0.52944  -0.52842  -0.52799  -0.52497  -0.52423
 Alpha  occ. eigenvalues --   -0.52116  -0.52109  -0.51861  -0.51679  -0.51564
 Alpha  occ. eigenvalues --   -0.51342  -0.51198  -0.50949  -0.50794  -0.50408
 Alpha  occ. eigenvalues --   -0.50392  -0.50225  -0.49972  -0.49727  -0.49603
 Alpha  occ. eigenvalues --   -0.49509  -0.49354  -0.49159  -0.48978  -0.48886
 Alpha  occ. eigenvalues --   -0.48832  -0.48661  -0.48324  -0.48171  -0.47962
 Alpha  occ. eigenvalues --   -0.47811  -0.47656  -0.47385  -0.47187  -0.47127
 Alpha  occ. eigenvalues --   -0.47026  -0.46889  -0.46720  -0.46643  -0.46597
 Alpha  occ. eigenvalues --   -0.46250  -0.46141  -0.46005  -0.45914  -0.45850
 Alpha  occ. eigenvalues --   -0.45700  -0.45544  -0.45323  -0.45201  -0.45027
 Alpha  occ. eigenvalues --   -0.44922  -0.44686  -0.44686  -0.44537  -0.44347
 Alpha  occ. eigenvalues --   -0.44133  -0.44042  -0.43843  -0.43739  -0.43679
 Alpha  occ. eigenvalues --   -0.43647  -0.43013  -0.42993  -0.42961  -0.42770
 Alpha  occ. eigenvalues --   -0.42716  -0.42440  -0.42300  -0.42242  -0.42157
 Alpha  occ. eigenvalues --   -0.41911  -0.41608  -0.41535  -0.41514  -0.41289
 Alpha  occ. eigenvalues --   -0.41234  -0.40862  -0.40547  -0.40498  -0.40242
 Alpha  occ. eigenvalues --   -0.39981  -0.39849  -0.39724  -0.39607  -0.39477
 Alpha  occ. eigenvalues --   -0.38769  -0.38363  -0.37828  -0.37660  -0.37423
 Alpha  occ. eigenvalues --   -0.37389  -0.37227  -0.36796  -0.36519  -0.36444
 Alpha  occ. eigenvalues --   -0.35924  -0.35907  -0.34659  -0.34502  -0.34330
 Alpha  occ. eigenvalues --   -0.33894  -0.33346  -0.33097  -0.31775  -0.31683
 Alpha  occ. eigenvalues --   -0.31235  -0.31166  -0.30554  -0.30540  -0.30458
 Alpha  occ. eigenvalues --   -0.30203  -0.29594  -0.29253  -0.24627  -0.23964
 Alpha  occ. eigenvalues --   -0.22166  -0.20965
 Alpha virt. eigenvalues --   -0.09739  -0.08273  -0.02350  -0.02054  -0.00132
 Alpha virt. eigenvalues --    0.00009   0.01758   0.02203   0.02325   0.02327
 Alpha virt. eigenvalues --    0.04498   0.05200   0.05258   0.05785   0.05832

 Mulliken charges:
               1
     1  Mg   0.796959
     2  C    0.074186
     3  C   -0.043128
     4  C   -0.054824
     5  C   -0.052395
     6  N   -0.300196
     7  C   -0.060064
     8  C   -0.022677
     9  C   -0.080344
    10  C    0.067008
    11  C    0.078398
    12  C    0.079031
    13  C   -0.093766
    14  H    0.008097
    15  N   -0.374610
    16  C    0.119170
    17  C   -0.139286
    18  C   -0.092384
    19  C    0.150504
    20  C    0.136727
    21  C    0.043172
    22  O   -0.209333
    23  C    0.005519
    24  N   -0.267858
    25  C    0.091563
    26  C   -0.078095
    27  C   -0.006947
    28  C   -0.004256
    29  C    0.049033
    30  C    0.036116
    31  C    0.003124
    32  N   -0.332679
    33  C    0.107744
    34  C   -0.158950
    35  C    0.031412
    36  C    0.039559
    37  C    0.122501
    38  C   -0.007855
    39  O   -0.164703
    40  C    0.009177
    41  C    0.181789
    42  O   -0.214855
    43  O   -0.355675
    44  C    0.174526
    45  H   -0.038473
    46  H   -0.042467
    47  H   -0.028621
    48  H    0.009899
    49  H    0.015628
    50  H    0.021452
    51  H    0.026844
    52  H    0.021375
    53  H    0.016749
    54  H    0.018212
    55  H    0.047015
    56  H    0.036483
    57  H    0.034181
    58  H    0.033171
    59  H    0.040584
    60  H    0.045892
    61  H    0.034659
    62  H    0.021629
    63  H    0.028683
    64  H    0.005434
    65  H    0.013832
    66  H    0.019603
    67  H    0.009804
    68  H    0.018866
    69  H    0.003653
    70  H    0.014577
    71  H    0.015966
    72  H    0.017378
    73  H    0.039001
    74  H    0.023822
    75  H    0.024083
    76  H    0.036637
    77  H    0.051294
    78  H    0.034191
    79  H    0.038529
    80  Mg   0.808081
    81  C   -0.037946
    82  C   -0.089791
    83  C   -0.052998
    84  C   -0.086822
    85  N   -0.255061
    86  C    0.011416
    87  C   -0.052146
    88  C   -0.029232
    89  C   -0.033336
    90  C    0.087632
    91  C    0.015893
    92  C   -0.056949
    93  H    0.015480
    94  N   -0.338753
    95  C    0.178092
    96  C   -0.150810
    97  C   -0.029503
    98  C    0.090562
    99  C    0.102829
   100  C    0.020445
   101  O   -0.219864
   102  C    0.059536
   103  N   -0.286781
   104  C    0.009227
   105  C   -0.007538
   106  C   -0.009743
   107  C    0.041921
   108  C    0.096747
   109  C    0.007910
   110  C    0.017130
   111  N   -0.353020
   112  C    0.116907
   113  C   -0.178602
   114  C    0.026952
   115  C    0.138488
   116  C    0.109208
   117  C    0.030112
   118  O   -0.162846
   119  C   -0.011625
   120  C    0.215704
   121  O   -0.195414
   122  O   -0.342975
   123  C    0.168217
   124  H   -0.039321
   125  H   -0.000876
   126  H   -0.036908
   127  H    0.001997
   128  H   -0.005759
   129  H    0.006473
   130  H    0.024719
   131  H    0.035955
   132  H   -0.001572
   133  H   -0.000262
   134  H    0.042177
   135  H    0.049211
   136  H    0.021991
   137  H    0.018329
   138  H    0.019677
   139  H    0.017022
   140  H    0.053763
   141  H    0.028151
   142  H    0.011539
   143  H    0.009127
   144  H   -0.005878
   145  H    0.023808
   146  H    0.026161
   147  H   -0.000020
   148  H   -0.001191
   149  H    0.023407
   150  H    0.015940
   151  H    0.024090
   152  H    0.035011
   153  H    0.030450
   154  H    0.016870
   155  H    0.051178
   156  H    0.029857
   157  H    0.045939
   158  H    0.042208
 Sum of Mulliken charges =  -0.00000

 Dipole moment (field-independent basis, Debye):
    X=             -1.2603    Y=              3.5847    Z=             -4.2559  Tot=              5.7054
 Quadrupole moment (field-independent basis, Debye-Ang):
   XX=           -119.1712   YY=           -572.4144   ZZ=           -478.4467
   XY=             36.7508   XZ=              9.1446   YZ=             -6.2583

 Normal termination of Gaussian 16 at Thu Sep 16 03:27:57 2021.
