 Gaussian 16, Revision A.03,
 Gaussian 16:  ES64L-G16RevA.03 25-Dec-2016

 -----------------------------------
 #p cam-b3lyp/Def2SVP td=(nstates=5)
 -----------------------------------

 --------------------------------
 TDDFT excited states in gaussian
 --------------------------------
 Symbolic Z-matrix:
 Charge =  0 Multiplicity = 1

                         Standard orientation:
 ---------------------------------------------------------------------
 Center     Atomic      Atomic             Coordinates (Angstroms)
 Number     Number       Type             X           Y           Z
 ---------------------------------------------------------------------
      1         12           0      -25.023211   -0.640464   -0.387927
      2          6           0      -26.117734    2.052688    1.452334
      3          6           0      -23.758057    1.615694   -2.747529
      4          6           0      -23.998437   -3.225562   -2.301429
      5          6           0      -26.595429   -2.763170    1.742685
      6          7           0      -25.197888    1.609231   -0.723058
      7          6           0      -25.493551    2.498105    0.317974
      8          6           0      -25.021037    3.932037    0.006878
      9          6           0      -24.370827    3.722222   -1.410110
     10          6           0      -24.375921    2.231012   -1.669440
     11          6           0      -25.075004    4.503221   -2.512435
     12          6           0      -24.050837    4.661252    1.002377
     13          6           0      -24.639306    5.947146    1.801042
     14          1           0      -23.824257    7.208478    1.498992
     15          7           0      -24.130939   -0.801495   -2.271236
     16          6           0      -23.570344    0.248645   -3.016141
     17          6           0      -22.733246   -0.258893   -4.108227
     18          6           0      -22.832038   -1.753440   -4.076319
     19          6           0      -23.626931   -2.021684   -2.811949
     20          6           0      -21.988157    0.643034   -5.067358
     21          6           0      -22.287026   -2.775398   -4.958168
     22          8           0      -22.589372   -3.964854   -4.781944
     23          6           0      -21.402743   -2.455385   -6.150623
     24          7           0      -25.346111   -2.618214   -0.308399
     25          6           0      -24.711479   -3.560100   -1.139233
     26          6           0      -24.900122   -5.069650   -0.704812
     27          6           0      -25.794589   -4.841555    0.620491
     28          6           0      -25.901671   -3.301632    0.695456
     29          6           0      -25.612459   -5.998288   -1.807287
     30          6           0      -25.127202   -5.478964    1.887443
     31          6           0      -26.019111   -6.127904    2.899044
     32          7           0      -26.240130   -0.380231    1.236799
     33          6           0      -26.779905   -1.371368    2.061554
     34          6           0      -27.370738   -0.800273    3.223354
     35          6           0      -27.038445    0.596134    3.066439
     36          6           0      -26.431664    0.760585    1.814825
     37          6           0      -28.029793   -1.420310    4.383189
     38          6           0      -27.254572    1.890102    3.634091
     39          8           0      -27.761650    2.313412    4.678735
     40          6           0      -26.778247    2.911838    2.504424
     41          6           0      -27.952676    3.701513    2.048301
     42          8           0      -28.610580    3.545367    1.095996
     43          8           0      -28.137226    4.808559    2.873303
     44          6           0      -28.816203    5.927975    2.254401
     45          1           0      -23.289218    2.325123   -3.432667
     46          1           0      -23.666082   -4.143771   -2.790058
     47          1           0      -26.971507   -3.446067    2.507273
     48          1           0      -25.898198    4.565802   -0.119103
     49          1           0      -23.357747    4.123122   -1.452786
     50          1           0      -25.535510    3.796191   -3.201949
     51          1           0      -24.249833    5.020168   -3.000803
     52          1           0      -25.775686    5.268595   -2.179418
     53          1           0      -23.173752    4.979925    0.438556
     54          1           0      -23.725406    3.992018    1.798944
     55          1           0      -24.452044    5.673385    2.839504
     56          1           0      -25.690075    6.099372    1.555448
     57          1           0      -22.737703    1.079210   -5.728845
     58          1           0      -21.300310    0.025294   -5.642685
     59          1           0      -21.523241    1.502377   -4.583675
     60          1           0      -21.431039   -3.345493   -6.779454
     61          1           0      -20.381061   -2.185125   -5.881705
     62          1           0      -21.774217   -1.722391   -6.866470
     63          1           0      -23.948788   -5.476716   -0.363770
     64          1           0      -26.778496   -5.310608    0.597317
     65          1           0      -26.290316   -6.680802   -1.294237
     66          1           0      -24.974571   -6.700290   -2.342929
     67          1           0      -26.159005   -5.426674   -2.557649
     68          1           0      -24.463773   -4.802113    2.425561
     69          1           0      -24.484924   -6.323788    1.639483
     70          1           0      -25.941609   -5.490146    3.779444
     71          1           0      -25.740633   -7.078806    3.353296
     72          1           0      -27.044439   -6.146591    2.528201
     73          1           0      -27.628543   -2.426453    4.507817
     74          1           0      -29.075733   -1.490085    4.084699
     75          1           0      -27.986917   -0.724159    5.221041
     76          1           0      -26.033807    3.596355    2.910282
     77          1           0      -29.862457    5.624302    2.245655
     78          1           0      -28.427922    5.978874    1.237301
     79          1           0      -28.702294    6.840479    2.840302
     80         12           0       25.083801   -0.630142    0.521074
     81          6           0       25.928461    2.426683   -1.225563
     82          6           0       25.118229    1.150001    3.216865
     83          6           0       24.591918   -3.559352    1.949474
     84          6           0       25.891667   -2.548496   -2.458341
     85          7           0       25.370604    1.617140    0.902197
     86          6           0       25.707275    2.685747    0.097474
     87          6           0       25.844114    3.922076    0.910886
     88          6           0       26.060827    3.387103    2.349797
     89          6           0       25.529150    1.946153    2.165468
     90          6           0       27.534991    3.374591    2.810208
     91          6           0       24.513739    4.733597    0.861231
     92          6           0       24.648983    6.292898    0.661490
     93          1           0       23.417714    7.132345    0.134868
     94          7           0       24.827039   -1.112434    2.437180
     95          6           0       24.757029   -0.249340    3.415371
     96          6           0       24.401421   -0.965405    4.625939
     97          6           0       24.139551   -2.284951    4.187867
     98          6           0       24.549011   -2.356549    2.811470
     99          6           0       24.206949   -0.219553    5.958565
    100          6           0       23.603041   -3.412253    5.025336
    101          8           0       23.452563   -4.496955    4.547693
    102          6           0       23.166008   -3.135379    6.426845
    103          7           0       25.518543   -2.816842   -0.160146
    104          6           0       25.039619   -3.757321    0.651498
    105          6           0       24.926302   -5.072310   -0.023826
    106          6           0       25.554282   -4.738485   -1.414009
    107          6           0       25.692661   -3.239126   -1.391781
    108          6           0       25.514226   -6.330219    0.711197
    109          6           0       24.660045   -5.292911   -2.590805
    110          6           0       25.123027   -6.545485   -3.385880
    111          7           0       25.740270   -0.259593   -1.370733
    112          6           0       25.956786   -1.073399   -2.505144
    113          6           0       26.321484   -0.222859   -3.656938
    114          6           0       26.293578    1.084037   -3.188878
    115          6           0       25.996208    1.046757   -1.837108
    116          6           0       26.792043   -0.743181   -5.036766
    117          6           0       26.505100    2.496197   -3.642785
    118          8           0       26.755214    3.004570   -4.710101
    119          6           0       26.443937    3.425541   -2.329271
    120          6           0       25.685836    4.601679   -2.551514
    121          8           0       24.474312    4.660730   -2.298997
    122          8           0       26.357439    5.684395   -3.110688
    123          6           0       25.664642    7.007402   -3.182443
    124          1           0       25.052954    1.638607    4.190627
    125          1           0       24.366133   -4.524477    2.407532
    126          1           0       26.128371   -3.109216   -3.363892
    127          1           0       26.756776    4.449955    0.633078
    128          1           0       25.534311    3.910394    3.147712
    129          1           0       27.665095    4.003134    3.691679
    130          1           0       28.127751    3.763324    1.982706
    131          1           0       27.936328    2.383731    3.024722
    132          1           0       24.043749    4.551038    1.827781
    133          1           0       23.909116    4.263103    0.086147
    134          1           0       25.510535    6.467579    0.017610
    135          1           0       24.893009    6.630591    1.669424
    136          1           0       23.156713   -0.294002    6.243605
    137          1           0       24.540449    0.817414    5.978567
    138          1           0       24.692806   -0.764785    6.767235
    139          1           0       22.338622   -2.427798    6.473489
    140          1           0       23.883112   -2.631410    7.074730
    141          1           0       22.782341   -4.058709    6.861572
    142          1           0       23.865516   -5.273176   -0.173840
    143          1           0       26.579693   -5.107628   -1.442893
    144          1           0       25.820744   -5.988625    1.699317
    145          1           0       26.287608   -6.897733    0.192397
    146          1           0       24.719664   -7.069820    0.811429
    147          1           0       24.553546   -4.515776   -3.348145
    148          1           0       23.648174   -5.297821   -2.185614
    149          1           0       24.289516   -7.237773   -3.503489
    150          1           0       25.955713   -7.018600   -2.865124
    151          1           0       25.444785   -6.266159   -4.389867
    152          1           0       26.274488   -1.682456   -5.229666
    153          1           0       27.848549   -1.005567   -4.976851
    154          1           0       26.597825   -0.025413   -5.834090
    155          1           0       27.465290    3.702298   -2.069501
    156          1           0       25.437550    7.386035   -2.184864
    157          1           0       24.870717    7.003421   -3.928317
    158          1           0       26.423617    7.736446   -3.465981
 ---------------------------------------------------------------------

 SCF Done:  E(RCAM-B3LYP) =  -4069.76949877     A.U. after   19 cycles

 Excitation energies and oscillator strengths:

 Excited State   1:      Singlet-A      1.6721 eV  741.48 nm  f=0.4064  <S**2>=0.000
     309 -> 315       -0.15723
     312 -> 313        0.68851
 This state for optimization and/or second-order correction.
 Total Energy, E(TD-HF/TD-DFT) =  -4069.70804927
 Copying the excited state density for this state as the 1-particle RhoCI density.

 Excited State   2:      Singlet-A      1.7382 eV  713.31 nm  f=0.3816  <S**2>=0.000
     310 -> 316       -0.16386
     311 -> 314        0.68894
     310 <- 316       -0.10277

 Excited State   3:      Singlet-A      2.1720 eV  570.83 nm  f=0.2245  <S**2>=0.000
     310 -> 314        0.67447
     311 -> 316        0.20180

 Excited State   4:      Singlet-A      2.1913 eV  565.80 nm  f=0.1282  <S**2>=0.000
     309 -> 313        0.64537
     312 -> 315        0.25767

 Excited State   5:      Singlet-A      3.1765 eV  390.31 nm  f=0.0000  <S**2>=0.000
     311 -> 313        0.70711

 The electronic state is 1-A.
 Alpha  occ. eigenvalues --  -46.89470 -46.87940 -19.24001 -19.22182 -19.19671
 Alpha  occ. eigenvalues --  -19.19598 -19.19288 -19.18868 -19.18560 -19.17964
 Alpha  occ. eigenvalues --  -14.42572 -14.42008 -14.41790 -14.40283 -14.40201
 Alpha  occ. eigenvalues --  -14.39853 -14.39802 -14.38595 -10.38547 -10.38120
 Alpha  occ. eigenvalues --  -10.35986 -10.35344 -10.35161 -10.34217 -10.31841
 Alpha  occ. eigenvalues --  -10.31649 -10.31299 -10.31169 -10.31061 -10.31052
 Alpha  occ. eigenvalues --  -10.31044 -10.30772 -10.30631 -10.30626 -10.30480
 Alpha  occ. eigenvalues --  -10.30291 -10.30068 -10.30054 -10.29868 -10.29542
 Alpha  occ. eigenvalues --  -10.29402 -10.29345 -10.29300 -10.29250 -10.28975
 Alpha  occ. eigenvalues --  -10.28741 -10.28570 -10.28275 -10.28267 -10.28263
 Alpha  occ. eigenvalues --  -10.28216 -10.28136 -10.28032 -10.27937 -10.27871
 Alpha  occ. eigenvalues --  -10.27764 -10.27725 -10.27623 -10.27482 -10.27322
 Alpha  occ. eigenvalues --  -10.27293 -10.27192 -10.27174 -10.27170 -10.26834
 Alpha  occ. eigenvalues --  -10.26553 -10.26550 -10.26503 -10.26494 -10.26469
 Alpha  occ. eigenvalues --  -10.26385 -10.26320 -10.26311 -10.26199 -10.26078
 Alpha  occ. eigenvalues --  -10.25994 -10.25951 -10.25891 -10.25835 -10.25757
 Alpha  occ. eigenvalues --  -10.25737 -10.25562 -10.25471 -10.25337 -10.25131
 Alpha  occ. eigenvalues --  -10.24500  -3.17994  -3.16701  -1.92881  -1.92456
 Alpha  occ. eigenvalues --   -1.92293  -1.91571  -1.91167  -1.91019  -1.16789
 Alpha  occ. eigenvalues --   -1.14214  -1.12197  -1.10879  -1.09573  -1.08129
 Alpha  occ. eigenvalues --   -1.07731  -1.06439  -1.05686  -1.04986  -1.04912
 Alpha  occ. eigenvalues --   -1.04646  -1.03446  -1.02078  -1.01015  -1.00639
 Alpha  occ. eigenvalues --   -0.92603  -0.91286  -0.89287  -0.89200  -0.88899
 Alpha  occ. eigenvalues --   -0.88632  -0.88514  -0.88021  -0.87827  -0.87666
 Alpha  occ. eigenvalues --   -0.87363  -0.87215  -0.86689  -0.85223  -0.84373
 Alpha  occ. eigenvalues --   -0.84238  -0.83477  -0.83085  -0.82420  -0.82169
 Alpha  occ. eigenvalues --   -0.82045  -0.81906  -0.80984  -0.80881  -0.80433
 Alpha  occ. eigenvalues --   -0.80239  -0.78798  -0.78791  -0.77418  -0.77153
 Alpha  occ. eigenvalues --   -0.76728  -0.76708  -0.76250  -0.75435  -0.75275
 Alpha  occ. eigenvalues --   -0.75247  -0.73081  -0.72804  -0.71703  -0.71130
 Alpha  occ. eigenvalues --   -0.69343  -0.69245  -0.68812  -0.68706  -0.67965
 Alpha  occ. eigenvalues --   -0.67960  -0.67565  -0.67367  -0.66139  -0.65686
 Alpha  occ. eigenvalues --   -0.65651  -0.65318  -0.65011  -0.65003  -0.64252
 Alpha  occ. eigenvalues --   -0.63901  -0.61467  -0.61072  -0.60872  -0.60202
 Alpha  occ. eigenvalues --   -0.60134  -0.59416  -0.59091  -0.59014  -0.58474
 Alpha  occ. eigenvalues --   -0.58309  -0.58081  -0.57710  -0.57598  -0.57209
 Alpha  occ. eigenvalues --   -0.56579  -0.56519  -0.55773  -0.55589  -0.55535
 Alpha  occ. eigenvalues --   -0.55300  -0.54037  -0.53941  -0.53902  -0.53642
 Alpha  occ. eigenvalues --   -0.53420  -0.53279  -0.53063  -0.53009  -0.52685
 Alpha  occ. eigenvalues --   -0.52667  -0.52459  -0.52293  -0.52167  -0.52011
 Alpha  occ. eigenvalues --   -0.51879  -0.51617  -0.51378  -0.51343  -0.51203
 Alpha  occ. eigenvalues --   -0.50769  -0.50577  -0.50572  -0.50268  -0.50140
 Alpha  occ. eigenvalues --   -0.50115  -0.50019  -0.49884  -0.49803  -0.49731
 Alpha  occ. eigenvalues --   -0.49637  -0.49587  -0.49303  -0.48981  -0.48863
 Alpha  occ. eigenvalues --   -0.48768  -0.48602  -0.48550  -0.48336  -0.48092
 Alpha  occ. eigenvalues --   -0.48033  -0.47968  -0.47805  -0.47583  -0.47469
 Alpha  occ. eigenvalues --   -0.47293  -0.46964  -0.46846  -0.46503  -0.46459
 Alpha  occ. eigenvalues --   -0.46261  -0.46156  -0.46008  -0.45813  -0.45558
 Alpha  occ. eigenvalues --   -0.45431  -0.45416  -0.45289  -0.44989  -0.44948
 Alpha  occ. eigenvalues --   -0.44808  -0.44649  -0.44579  -0.44493  -0.44173
 Alpha  occ. eigenvalues --   -0.44046  -0.43677  -0.43528  -0.43467  -0.43361
 Alpha  occ. eigenvalues --   -0.43347  -0.43073  -0.43019  -0.42923  -0.42776
 Alpha  occ. eigenvalues --   -0.42693  -0.42523  -0.42244  -0.41996  -0.41903
 Alpha  occ. eigenvalues --   -0.41666  -0.41432  -0.41328  -0.41190  -0.41070
 Alpha  occ. eigenvalues --   -0.41037  -0.40661  -0.40649  -0.40394  -0.40223
 Alpha  occ. eigenvalues --   -0.40146  -0.39922  -0.39904  -0.39881  -0.39077
 Alpha  occ. eigenvalues --   -0.38723  -0.38353  -0.37833  -0.37699  -0.37691
 Alpha  occ. eigenvalues --   -0.37086  -0.37066  -0.36549  -0.36133  -0.36088
 Alpha  occ. eigenvalues --   -0.35757  -0.34932  -0.34470  -0.34097  -0.33622
 Alpha  occ. eigenvalues --   -0.33197  -0.33082  -0.32635  -0.31873  -0.31558
 Alpha  occ. eigenvalues --   -0.31555  -0.31446  -0.31126  -0.30770  -0.30043
 Alpha  occ. eigenvalues --   -0.29790  -0.29707  -0.29287  -0.24391  -0.23562
 Alpha  occ. eigenvalues --   -0.21650  -0.21477
 Alpha virt. eigenvalues --   -0.09297  -0.09098  -0.02186  -0.00380  -0.00250
 Alpha virt. eigenvalues --    0.00910   0.01928   0.02290   0.02403   0.02633
 Alpha virt. eigenvalues --    0.04505   0.05107   0.05127   0.05340   0.06161

 Mulliken charges:
               1
     1  Mg   0.826020
     2  C    0.028265
     3  C   -0.094166
     4  C   -0.058301
     5  C   -0.101668
     6  N   -0.299888
     7  C   -0.077952
     8  C    0.037524
     9  C   -0.089641
    10  C    0.070700
    11  C    0.065641
    12  C    0.032586
    13  C   -0.092734
    14  H    0.019542
    15  N   -0.403867
    16  C    0.188358
    17  C   -0.166131
    18  C    0.012011
    19  C    0.173226
    20  C    0.129752
    21  C   -0.020937
    22  O   -0.222341
    23  C    0.027940
    24  N   -0.333173
    25  C    0.018319
    26  C    0.006435
    27  C   -0.041500
    28  C    0.114565
    29  C    0.047028
    30  C    0.002770
    31  C   -0.000915
    32  N   -0.324962
    33  C    0.108876
    34  C   -0.169635
    35  C    0.001137
    36  C    0.102011
    37  C    0.151108
    38  C    0.020483
    39  O   -0.181753
    40  C   -0.047739
    41  C    0.190046
    42  O   -0.156553
    43  O   -0.359271
    44  C    0.189243
    45  H   -0.036574
    46  H   -0.001665
    47  H   -0.045783
    48  H    0.009254
    49  H    0.006936
    50  H    0.028684
    51  H    0.005727
    52  H    0.024041
    53  H    0.019495
    54  H    0.016443
    55  H    0.052507
    56  H    0.038965
    57  H    0.034345
    58  H    0.012957
    59  H    0.031453
    60  H    0.024691
    61  H    0.050733
    62  H    0.032357
    63  H    0.025046
    64  H    0.015894
    65  H    0.012297
    66  H    0.024147
    67  H    0.035874
    68  H    0.008783
    69  H    0.005449
    70  H    0.005619
    71  H    0.014986
    72  H    0.015309
    73  H    0.020595
    74  H    0.030236
    75  H    0.042912
    76  H    0.023837
    77  H    0.031512
    78  H    0.021532
    79  H    0.040941
    80  Mg   0.836460
    81  C   -0.017244
    82  C   -0.043198
    83  C   -0.045042
    84  C   -0.101704
    85  N   -0.239113
    86  C   -0.040163
    87  C   -0.024263
    88  C   -0.084547
    89  C    0.050329
    90  C    0.081897
    91  C    0.071420
    92  C   -0.043335
    93  H    0.034213
    94  N   -0.366937
    95  C    0.065578
    96  C   -0.128881
    97  C   -0.029958
    98  C    0.104897
    99  C    0.110679
   100  C    0.002106
   101  O   -0.168070
   102  C    0.040329
   103  N   -0.199806
   104  C   -0.011533
   105  C   -0.045248
   106  C    0.011803
   107  C    0.027153
   108  C    0.070642
   109  C    0.014206
   110  C    0.026936
   111  N   -0.397685
   112  C    0.109387
   113  C   -0.209692
   114  C   -0.008124
   115  C    0.122797
   116  C    0.119314
   117  C    0.086577
   118  O   -0.138063
   119  C   -0.010403
   120  C    0.199154
   121  O   -0.246429
   122  O   -0.357435
   123  C    0.195814
   124  H   -0.050852
   125  H   -0.004300
   126  H   -0.024469
   127  H   -0.003096
   128  H    0.009582
   129  H    0.019459
   130  H    0.006415
   131  H    0.023231
   132  H    0.001082
   133  H    0.050099
   134  H    0.026216
   135  H    0.014082
   136  H    0.026296
   137  H    0.029689
   138  H    0.019840
   139  H    0.028378
   140  H    0.022329
   141  H    0.029397
   142  H    0.020263
   143  H    0.004809
   144  H    0.029008
   145  H    0.015521
   146  H    0.009546
   147  H   -0.002231
   148  H   -0.009416
   149  H    0.017890
   150  H    0.014485
   151  H    0.016692
   152  H    0.008481
   153  H    0.029976
   154  H    0.038352
   155  H    0.050239
   156  H    0.028689
   157  H    0.055442
   158  H    0.024062
 Sum of Mulliken charges =  -0.00000

 Dipole moment (field-independent basis, Debye):
    X=              5.1233    Y=             -0.2078    Z=              2.0347  Tot=              5.5165
 Quadrupole moment (field-independent basis, Debye-Ang):
   XX=           -724.8067   YY=           -476.9328   ZZ=           -516.1871
   XY=             29.6200   XZ=            204.1845   YZ=             -1.0747

 Normal termination of Gaussian 16 at Thu Sep 16 09:27:40 2021.
