 Gaussian 16, Revision A.03,
 Gaussian 16:  ES64L-G16RevA.03 25-Dec-2016

 ----------------------------------------------------------
 #p cam-b3lyp/Def2SVP td=(nstates=5) density=(transition=1)
 ----------------------------------------------------------

 --------------------------------
 TDDFT excited states in gaussian
 --------------------------------
 Symbolic Z-matrix:
 Charge =  0 Multiplicity = 1

                         Standard orientation:
 ---------------------------------------------------------------------
 Center     Atomic      Atomic             Coordinates (Angstroms)
 Number     Number       Type             X           Y           Z
 ---------------------------------------------------------------------
      1         12           0       27.739964    0.397508    0.032000
      2          6           0       24.333920    0.871790   -0.691963
      3          6           0       27.139518    1.506916    3.230566
      4          6           0       30.727755   -0.780602    0.826172
      5          6           0       28.166959   -0.972477   -3.217410
      6          7           0       25.913353    0.855218    1.186858
      7          6           0       24.592590    0.999034    0.688856
      8          6           0       23.709825    1.732701    1.612156
      9          6           0       24.674026    2.017861    2.843335
     10          6           0       26.015010    1.459913    2.393293
     11          6           0       24.643238    3.499103    3.291658
     12          6           0       22.547531    0.941125    2.129268
     13          6           0       22.799031   -0.545594    2.421803
     14          1           0       22.093866   -1.276945    3.629718
     15          7           0       28.847973    0.383060    1.789704
     16          6           0       28.459546    0.994491    2.925018
     17          6           0       29.553662    0.951188    3.862566
     18          6           0       30.641921    0.359282    3.175261
     19          6           0       30.127053   -0.026001    1.851434
     20          6           0       29.510124    1.417781    5.292833
     21          6           0       32.051183    0.167203    3.734806
     22          8           0       32.330915    0.519603    4.863978
     23          6           0       33.201940   -0.541141    3.083545
     24          7           0       29.128939   -0.931289   -0.942728
     25          6           0       30.353370   -1.235314   -0.410098
     26          6           0       31.307180   -1.854628   -1.483964
     27          6           0       30.322879   -2.165864   -2.651834
     28          6           0       29.144194   -1.297984   -2.268833
     29          6           0       32.455129   -0.934386   -1.964673
     30          6           0       29.730398   -3.652973   -2.695197
     31          6           0       29.735771   -4.339105   -4.013090
     32          7           0       26.618028    0.106134   -1.625408
     33          6           0       26.976705   -0.263607   -2.862284
     34          6           0       25.921030    0.161084   -3.857304
     35          6           0       24.890538    0.661774   -2.999494
     36          6           0       25.304469    0.470600   -1.650870
     37          6           0       25.892653    0.055955   -5.375332
     38          6           0       23.527998    1.110173   -3.011053
     39          8           0       22.750359    1.266737   -3.939121
     40          6           0       23.127207    1.293530   -1.491701
     41          6           0       22.067096    0.255415   -1.187396
     42          8           0       22.199201   -0.922630   -1.134967
     43          8           0       20.904936    0.920808   -0.859739
     44          6           0       19.878928    0.057499   -0.266164
     45          1           0       26.986991    2.040405    4.170886
     46          1           0       31.776285   -1.019025    1.012237
     47          1           0       28.417721   -1.282705   -4.233926
     48          1           0       23.341198    2.613075    1.085710
     49          1           0       24.519918    1.396874    3.725731
     50          1           0       24.517970    3.375296    4.367482
     51          1           0       23.791678    3.963440    2.794198
     52          1           0       25.586768    4.017135    3.118763
     53          1           0       21.622825    1.098784    1.573509
     54          1           0       22.159296    1.276415    3.091266
     55          1           0       23.881780   -0.629333    2.521265
     56          1           0       22.541746   -1.008871    1.469129
     57          1           0       29.958907    0.680319    5.959124
     58          1           0       28.486990    1.674786    5.566872
     59          1           0       30.121505    2.320492    5.293161
     60          1           0       33.070953   -1.612948    2.938156
     61          1           0       33.953926   -0.480538    3.870419
     62          1           0       33.644548    0.023325    2.262132
     63          1           0       31.757177   -2.747670   -1.050472
     64          1           0       30.708189   -1.880681   -3.631107
     65          1           0       32.270881   -0.666305   -3.004847
     66          1           0       33.432587   -1.324752   -1.681790
     67          1           0       32.402589    0.001002   -1.408697
     68          1           0       28.724394   -3.685780   -2.277525
     69          1           0       30.370700   -4.205195   -2.007115
     70          1           0       30.259937   -5.294390   -3.994294
     71          1           0       30.144988   -3.730190   -4.819562
     72          1           0       28.728546   -4.599685   -4.337072
     73          1           0       25.015678   -0.541310   -5.624969
     74          1           0       26.877648   -0.278660   -5.703112
     75          1           0       25.664510    1.060802   -5.730535
     76          1           0       22.778662    2.302953   -1.274489
     77          1           0       20.297110   -0.782805    0.287843
     78          1           0       19.318261   -0.298123   -1.130678
     79          1           0       19.198395    0.727332    0.258779
     80         12           0      -26.678848   -0.784320    0.316778
     81          6           0      -27.703986    2.565708   -0.423352
     82          6           0      -24.170127   -0.479795   -2.008623
     83          6           0      -25.931834   -4.065569    0.605213
     84          6           0      -29.808844   -1.224250    1.882327
     85          7           0      -26.033814    0.865002   -1.028748
     86          6           0      -26.528296    2.174401   -1.136152
     87          6           0      -25.659578    2.952720   -2.090739
     88          6           0      -24.932376    1.800237   -2.903779
     89          6           0      -25.100024    0.594336   -1.933245
     90          6           0      -25.704274    1.603386   -4.257028
     91          6           0      -24.747011    4.026638   -1.399900
     92          6           0      -24.770549    5.264930   -2.145130
     93          1           0      -24.171906    6.540281   -1.364213
     94          7           0      -25.106837   -1.977121   -0.496630
     95          6           0      -24.169722   -1.654526   -1.396099
     96          6           0      -23.267293   -2.753440   -1.553649
     97          6           0      -23.753140   -3.820046   -0.826891
     98          6           0      -25.008333   -3.303119   -0.109106
     99          6           0      -22.094120   -2.724702   -2.584154
    100          6           0      -23.141767   -5.222934   -0.633155
    101          8           0      -23.742351   -6.037747    0.020556
    102          6           0      -21.769404   -5.549554   -1.173189
    103          7           0      -27.878610   -2.458630    0.901864
    104          6           0      -27.248292   -3.689707    1.045920
    105          6           0      -28.081575   -4.619395    1.866739
    106          6           0      -29.326879   -3.703402    2.302806
    107          6           0      -28.972246   -2.354851    1.721911
    108          6           0      -28.421460   -5.885432    1.155475
    109          6           0      -29.680589   -3.623645    3.888230
    110          6           0      -31.008967   -4.096587    4.329909
    111          7           0      -28.414482    0.392112    0.732719
    112          6           0      -29.581244    0.038166    1.371954
    113          6           0      -30.455331    1.286820    1.470307
    114          6           0      -29.711642    2.329041    0.881294
    115          6           0      -28.499241    1.720874    0.400894
    116          6           0      -31.864592    1.316495    2.077462
    117          6           0      -29.821224    3.697296    0.474676
    118          8           0      -30.735136    4.530255    0.668972
    119          6           0      -28.612003    3.875773   -0.532404
    120          6           0      -27.962417    5.241866   -0.158059
    121          8           0      -26.920705    5.286054    0.521741
    122          8           0      -28.644413    6.253148   -0.749630
    123          6           0      -28.129585    7.559697   -0.212991
    124          1           0      -23.245919   -0.325961   -2.570194
    125          1           0      -25.701521   -5.126426    0.729031
    126          1           0      -30.752365   -1.234801    2.431736
    127          1           0      -26.345029    3.424169   -2.794643
    128          1           0      -23.895931    2.053401   -3.124076
    129          1           0      -26.662183    1.096514   -4.143113
    130          1           0      -25.055181    1.078985   -4.957012
    131          1           0      -25.890838    2.582587   -4.698617
    132          1           0      -23.721031    3.681115   -1.528920
    133          1           0      -24.973332    4.134080   -0.338816
    134          1           0      -25.792868    5.607086   -2.306938
    135          1           0      -24.214313    5.100371   -3.068293
    136          1           0      -21.225657   -2.956202   -1.967549
    137          1           0      -21.919905   -1.757403   -3.055169
    138          1           0      -22.287433   -3.438488   -3.384818
    139          1           0      -21.537656   -6.603227   -1.017335
    140          1           0      -21.218524   -4.870421   -0.522562
    141          1           0      -21.748223   -5.278836   -2.228784
    142          1           0      -27.439188   -4.814585    2.725628
    143          1           0      -30.203482   -4.116378    1.804310
    144          1           0      -27.843285   -6.649145    1.674082
    145          1           0      -28.048313   -5.912650    0.131810
    146          1           0      -29.481920   -6.136289    1.121995
    147          1           0      -29.675872   -2.547999    4.064264
    148          1           0      -28.848420   -4.066356    4.433963
    149          1           0      -31.594043   -3.283740    4.759318
    150          1           0      -30.650515   -4.715455    5.151766
    151          1           0      -31.508293   -4.728678    3.594315
    152          1           0      -32.546834    1.172819    1.240353
    153          1           0      -32.087394    2.262593    2.570685
    154          1           0      -31.935959    0.544094    2.843270
    155          1           0      -29.104788    3.902552   -1.503321
    156          1           0      -28.442359    7.793022    0.804637
    157          1           0      -28.363348    8.428912   -0.826885
    158          1           0      -27.043452    7.491420   -0.277466
 ---------------------------------------------------------------------

 SCF Done:  E(RCAM-B3LYP) =  -4069.76947532     A.U. after   17 cycles

 Excitation energies and oscillator strengths:

 Excited State   1:      Singlet-A      1.6651 eV  744.61 nm  f=0.3749  <S**2>=0.000
     309 -> 316       -0.17251
     311 -> 313        0.68783
     309 <- 316       -0.10780
 This state for optimization and/or second-order correction.
 Total Energy, E(TD-HF/TD-DFT) =  -4069.70828419
 Copying the excited state density for this state as the 1-particle RhoCI density.

 Excited State   2:      Singlet-A      1.7188 eV  721.36 nm  f=0.3552  <S**2>=0.000
     310 -> 315       -0.18754
     312 -> 314        0.68233
     310 <- 315       -0.10714

 Excited State   3:      Singlet-A      2.2662 eV  547.11 nm  f=0.1011  <S**2>=0.000
     309 -> 313        0.62923
     311 -> 316        0.31016

 Excited State   4:      Singlet-A      2.2689 eV  546.46 nm  f=0.0057  <S**2>=0.000
     310 -> 314        0.54882
     312 -> 315        0.43683

 Excited State   5:      Singlet-A      2.9295 eV  423.23 nm  f=0.0000  <S**2>=0.000
     312 -> 313        0.70711

 The electronic state is 1-A.
 Alpha  occ. eigenvalues --  -46.89418 -46.88598 -19.26146 -19.24625 -19.20448
 Alpha  occ. eigenvalues --  -19.19744 -19.19474 -19.19142 -19.18735 -19.18265
 Alpha  occ. eigenvalues --  -14.42392 -14.42255 -14.41903 -14.41901 -14.39612
 Alpha  occ. eigenvalues --  -14.39551 -14.39353 -14.39140 -10.39707 -10.39264
 Alpha  occ. eigenvalues --  -10.35663 -10.35011 -10.34894 -10.34621 -10.31522
 Alpha  occ. eigenvalues --  -10.31458 -10.31360 -10.31295 -10.31227 -10.31193
 Alpha  occ. eigenvalues --  -10.30963 -10.30915 -10.30835 -10.30674 -10.30600
 Alpha  occ. eigenvalues --  -10.30486 -10.30468 -10.29966 -10.29335 -10.29161
 Alpha  occ. eigenvalues --  -10.28991 -10.28956 -10.28755 -10.28733 -10.28649
 Alpha  occ. eigenvalues --  -10.28604 -10.28533 -10.28525 -10.28352 -10.28308
 Alpha  occ. eigenvalues --  -10.28143 -10.28141 -10.28099 -10.28093 -10.28065
 Alpha  occ. eigenvalues --  -10.28028 -10.27839 -10.27793 -10.27761 -10.27452
 Alpha  occ. eigenvalues --  -10.27356 -10.27339 -10.27058 -10.27003 -10.26921
 Alpha  occ. eigenvalues --  -10.26768 -10.26639 -10.26578 -10.26525 -10.26506
 Alpha  occ. eigenvalues --  -10.26408 -10.26407 -10.26374 -10.26278 -10.26236
 Alpha  occ. eigenvalues --  -10.26021 -10.25939 -10.25866 -10.25529 -10.25505
 Alpha  occ. eigenvalues --  -10.25387 -10.25347 -10.25147 -10.25088 -10.25013
 Alpha  occ. eigenvalues --  -10.24917  -3.17755  -3.17243  -1.92652  -1.92197
 Alpha  occ. eigenvalues --   -1.92104  -1.92057  -1.91703  -1.91561  -1.17286
 Alpha  occ. eigenvalues --   -1.16030  -1.11725  -1.10425  -1.09969  -1.08981
 Alpha  occ. eigenvalues --   -1.07835  -1.07114  -1.04601  -1.04069  -1.04011
 Alpha  occ. eigenvalues --   -1.03356  -1.03018  -1.02688  -1.02645  -1.01420
 Alpha  occ. eigenvalues --   -0.93202  -0.91205  -0.89887  -0.89448  -0.88922
 Alpha  occ. eigenvalues --   -0.88674  -0.88404  -0.88176  -0.87543  -0.87490
 Alpha  occ. eigenvalues --   -0.87234  -0.86353  -0.85823  -0.85457  -0.84763
 Alpha  occ. eigenvalues --   -0.84396  -0.84187  -0.83769  -0.82732  -0.82594
 Alpha  occ. eigenvalues --   -0.82499  -0.81709  -0.80894  -0.80660  -0.80533
 Alpha  occ. eigenvalues --   -0.80442  -0.78200  -0.77965  -0.77526  -0.77526
 Alpha  occ. eigenvalues --   -0.76866  -0.76520  -0.76066  -0.75455  -0.75153
 Alpha  occ. eigenvalues --   -0.74909  -0.72722  -0.72154  -0.71709  -0.71422
 Alpha  occ. eigenvalues --   -0.69649  -0.68829  -0.68783  -0.68702  -0.67851
 Alpha  occ. eigenvalues --   -0.67398  -0.67104  -0.66355  -0.65884  -0.65098
 Alpha  occ. eigenvalues --   -0.65093  -0.64944  -0.64558  -0.64418  -0.64398
 Alpha  occ. eigenvalues --   -0.64281  -0.62121  -0.62023  -0.60024  -0.59904
 Alpha  occ. eigenvalues --   -0.59434  -0.59098  -0.59086  -0.58960  -0.58417
 Alpha  occ. eigenvalues --   -0.58220  -0.58156  -0.57402  -0.57399  -0.57078
 Alpha  occ. eigenvalues --   -0.56580  -0.56124  -0.55966  -0.55539  -0.55438
 Alpha  occ. eigenvalues --   -0.55120  -0.55042  -0.54623  -0.54306  -0.54092
 Alpha  occ. eigenvalues --   -0.53990  -0.53958  -0.53532  -0.53061  -0.52951
 Alpha  occ. eigenvalues --   -0.52872  -0.52727  -0.52574  -0.52437  -0.52390
 Alpha  occ. eigenvalues --   -0.52303  -0.52143  -0.51894  -0.51637  -0.51442
 Alpha  occ. eigenvalues --   -0.51236  -0.51179  -0.50948  -0.50536  -0.50401
 Alpha  occ. eigenvalues --   -0.50198  -0.50151  -0.50107  -0.49624  -0.49496
 Alpha  occ. eigenvalues --   -0.49424  -0.49270  -0.49100  -0.48957  -0.48915
 Alpha  occ. eigenvalues --   -0.48786  -0.48633  -0.48616  -0.48383  -0.48182
 Alpha  occ. eigenvalues --   -0.47982  -0.47827  -0.47573  -0.47415  -0.47216
 Alpha  occ. eigenvalues --   -0.47124  -0.46922  -0.46799  -0.46601  -0.46528
 Alpha  occ. eigenvalues --   -0.46396  -0.46215  -0.46075  -0.46022  -0.45900
 Alpha  occ. eigenvalues --   -0.45831  -0.45521  -0.45367  -0.45247  -0.44693
 Alpha  occ. eigenvalues --   -0.44618  -0.44525  -0.44390  -0.44333  -0.44069
 Alpha  occ. eigenvalues --   -0.44067  -0.43922  -0.43730  -0.43619  -0.43439
 Alpha  occ. eigenvalues --   -0.43249  -0.43139  -0.43009  -0.42824  -0.42823
 Alpha  occ. eigenvalues --   -0.42541  -0.42399  -0.42348  -0.42216  -0.42146
 Alpha  occ. eigenvalues --   -0.41985  -0.41919  -0.41899  -0.41449  -0.41136
 Alpha  occ. eigenvalues --   -0.41112  -0.40791  -0.40764  -0.40419  -0.40208
 Alpha  occ. eigenvalues --   -0.39841  -0.39825  -0.39172  -0.38828  -0.38534
 Alpha  occ. eigenvalues --   -0.38474  -0.37898  -0.37853  -0.37352  -0.37252
 Alpha  occ. eigenvalues --   -0.37069  -0.37056  -0.36939  -0.36462  -0.36131
 Alpha  occ. eigenvalues --   -0.35784  -0.35124  -0.34771  -0.34247  -0.33980
 Alpha  occ. eigenvalues --   -0.33808  -0.33082  -0.33043  -0.31718  -0.31396
 Alpha  occ. eigenvalues --   -0.31385  -0.31120  -0.30614  -0.30554  -0.30063
 Alpha  occ. eigenvalues --   -0.29921  -0.29672  -0.29319  -0.24328  -0.24239
 Alpha  occ. eigenvalues --   -0.21065  -0.20189
 Alpha virt. eigenvalues --   -0.08798  -0.07560  -0.02496  -0.01807   0.00020
 Alpha virt. eigenvalues --    0.00199   0.01362   0.01828   0.02414   0.02506
 Alpha virt. eigenvalues --    0.04877   0.05032   0.05411   0.05470   0.05871

 Mulliken charges:
               1
     1  Mg  11.997947
     2  C    5.964885
     3  C    6.016009
     4  C    6.028592
     5  C    5.986500
     6  N    6.993966
     7  C    6.045362
     8  C    5.984145
     9  C    6.009458
    10  C    5.968096
    11  C    6.002220
    12  C    5.995877
    13  C    5.992997
    14  H    1.009784
    15  N    7.012879
    16  C    5.950631
    17  C    5.977638
    18  C    5.994327
    19  C    5.948227
    20  C    6.004826
    21  C    5.989316
    22  O    7.980609
    23  C    6.004525
    24  N    7.003413
    25  C    5.963293
    26  C    6.007068
    27  C    5.994382
    28  C    6.024922
    29  C    5.999914
    30  C    5.991494
    31  C    5.999833
    32  N    6.994923
    33  C    6.042375
    34  C    6.039887
    35  C    5.995172
    36  C    6.045126
    37  C    5.997261
    38  C    6.013920
    39  O    8.026153
    40  C    6.002563
    41  C    6.002800
    42  O    8.003521
    43  O    8.002078
    44  C    5.998227
    45  H    0.987307
    46  H    0.992312
    47  H    1.011886
    48  H    1.002576
    49  H    1.002113
    50  H    0.999767
    51  H    0.986453
    52  H    1.002150
    53  H    0.996941
    54  H    1.009921
    55  H    1.010526
    56  H    0.992985
    57  H    0.981794
    58  H    0.980254
    59  H    0.980290
    60  H    0.988850
    61  H    0.988308
    62  H    0.988180
    63  H    0.999829
    64  H    0.999867
    65  H    0.986360
    66  H    0.999527
    67  H    1.004799
    68  H    0.999134
    69  H    1.015367
    70  H    1.005727
    71  H    1.000526
    72  H    0.996691
    73  H    1.020507
    74  H    1.019680
    75  H    1.020979
    76  H    1.010144
    77  H    1.004101
    78  H    1.001510
    79  H    1.005498
    80  Mg  12.000020
    81  C    5.999895
    82  C    5.999973
    83  C    6.000178
    84  C    6.000000
    85  N    6.999934
    86  C    6.000142
    87  C    5.999973
    88  C    6.000059
    89  C    5.999889
    90  C    6.000039
    91  C    5.999990
    92  C    6.000006
    93  H    0.999993
    94  N    7.000027
    95  C    5.999853
    96  C    5.999894
    97  C    5.999969
    98  C    5.999754
    99  C    6.000025
   100  C    5.999936
   101  O    7.999900
   102  C    6.000012
   103  N    7.000041
   104  C    5.999814
   105  C    6.000052
   106  C    5.999947
   107  C    6.000090
   108  C    6.000004
   109  C    5.999989
   110  C    5.999982
   111  N    7.000014
   112  C    6.000157
   113  C    6.000210
   114  C    5.999988
   115  C    6.000171
   116  C    5.999962
   117  C    6.000073
   118  O    8.000154
   119  C    5.999987
   120  C    6.000014
   121  O    8.000038
   122  O    8.000000
   123  C    5.999989
   124  H    0.999927
   125  H    0.999976
   126  H    1.000057
   127  H    0.999981
   128  H    0.999948
   129  H    0.999969
   130  H    0.999974
   131  H    0.999928
   132  H    1.000028
   133  H    0.999989
   134  H    0.999992
   135  H    1.000003
   136  H    0.999902
   137  H    0.999894
   138  H    0.999903
   139  H    0.999922
   140  H    0.999966
   141  H    0.999954
   142  H    1.000006
   143  H    1.000040
   144  H    1.000000
   145  H    1.000010
   146  H    0.999965
   147  H    0.999975
   148  H    1.000056
   149  H    1.000004
   150  H    1.000044
   151  H    1.000026
   152  H    1.000115
   153  H    1.000108
   154  H    1.000104
   155  H    1.000037
   156  H    1.000020
   157  H    1.000026
   158  H    1.000011
 Sum of Mulliken charges = 624.00000

 Dipole moment (field-independent basis, Debye):
    X=             -6.3289    Y=             -0.8794    Z=             -8.8267  Tot=             10.8968
 Quadrupole moment (field-independent basis, Debye-Ang):
   XX=           -343.9983   YY=             -0.4130   ZZ=              0.3371
   XY=            -28.3605   XZ=           -247.5482   YZ=             -5.1298

 Normal termination of Gaussian 16 at Tue Sep 21 20:06:44 2021.
