 Gaussian 16, Revision A.03,
 Gaussian 16:  ES64L-G16RevA.03 25-Dec-2016

 ----------------------------------------------------------
 #p cam-b3lyp/Def2SVP td=(nstates=5) density=(transition=1)
 ----------------------------------------------------------

 --------------------------------
 TDDFT excited states in gaussian
 --------------------------------
 Symbolic Z-matrix:
 Charge =  0 Multiplicity = 1

                         Standard orientation:
 ---------------------------------------------------------------------
 Center     Atomic      Atomic             Coordinates (Angstroms)
 Number     Number       Type             X           Y           Z
 ---------------------------------------------------------------------
      1         12           0      -13.447853    0.664097    0.271443
      2          6           0      -12.395762   -2.121366   -1.717449
      3          6           0      -15.346373   -1.472889    2.174813
      4          6           0      -14.852231    3.267836    1.901192
      5          6           0      -12.265327    2.750632   -2.314937
      6          7           0      -13.796616   -1.531825    0.216052
      7          6           0      -13.226535   -2.505324   -0.619340
      8          6           0      -13.676374   -3.870028   -0.164459
      9          6           0      -14.968126   -3.532682    0.693240
     10          6           0      -14.729228   -2.029201    1.019912
     11          6           0      -16.226189   -3.764498   -0.217473
     12          6           0      -12.554722   -4.717145    0.533846
     13          6           0      -12.579481   -6.080927    0.055543
     14          1           0      -11.274238   -6.952612    0.417801
     15          7           0      -14.772989    0.768157    1.941417
     16          6           0      -15.404304   -0.216683    2.591668
     17          6           0      -16.104561    0.330005    3.713089
     18          6           0      -16.002075    1.704223    3.659283
     19          6           0      -15.102888    2.012096    2.453209
     20          6           0      -17.000001   -0.548861    4.643079
     21          6           0      -16.546017    2.758557    4.645139
     22          8           0      -16.378956    3.927094    4.403118
     23          6           0      -17.197871    2.340670    5.942118
     24          7           0      -13.761331    2.697338   -0.322467
     25          6           0      -14.262550    3.580748    0.627254
     26          6           0      -14.004810    4.995991    0.223421
     27          6           0      -13.149832    4.839277   -1.127295
     28          6           0      -12.982922    3.342831   -1.248052
     29          6           0      -15.249049    5.811233    0.116088
     30          6           0      -11.732271    5.631768   -1.213986
     31          6           0      -11.566489    6.648218   -2.273555
     32          7           0      -12.472440    0.437908   -1.617164
     33          6           0      -12.078560    1.398413   -2.521333
     34          6           0      -11.355011    0.691539   -3.665731
     35          6           0      -11.354412   -0.679000   -3.337314
     36          6           0      -12.093158   -0.786407   -2.107158
     37          6           0      -10.793154    1.397321   -4.907391
     38          6           0      -11.019716   -1.963255   -3.874099
     39          8           0      -10.420621   -2.269899   -4.929495
     40          6           0      -11.820469   -2.965821   -2.945695
     41          6           0      -10.822479   -4.119813   -2.628480
     42          8           0      -10.227849   -4.164457   -1.535930
     43          8           0      -10.817845   -5.016612   -3.645091
     44          6           0       -9.707137   -6.002626   -3.412274
     45          1           0      -15.769514   -2.155479    2.915227
     46          1           0      -15.279654    4.127576    2.422681
     47          1           0      -11.780689    3.315532   -3.113816
     48          1           0      -14.039163   -4.373880   -1.060062
     49          1           0      -15.047866   -4.171761    1.571909
     50          1           0      -16.366734   -2.991253   -0.972341
     51          1           0      -17.104470   -3.866752    0.418501
     52          1           0      -16.115354   -4.720415   -0.729898
     53          1           0      -12.855011   -4.816682    1.577200
     54          1           0      -11.579078   -4.234574    0.471338
     55          1           0      -12.532656   -6.116743   -1.032995
     56          1           0      -13.469374   -6.555490    0.469776
     57          1           0      -16.595440   -0.341512    5.633715
     58          1           0      -16.926094   -1.622569    4.471140
     59          1           0      -18.047389   -0.276928    4.512869
     60          1           0      -17.593990    3.209126    6.468520
     61          1           0      -16.303145    1.913899    6.395261
     62          1           0      -17.976324    1.613793    5.710437
     63          1           0      -13.368920    5.358805    1.031171
     64          1           0      -13.774675    5.221100   -1.934304
     65          1           0      -15.191316    6.502427    0.955977
     66          1           0      -16.154384    5.233902    0.302978
     67          1           0      -15.387441    6.336459   -0.829222
     68          1           0      -11.041495    4.826972   -1.465298
     69          1           0      -11.494234    5.991194   -0.213749
     70          1           0      -10.778977    6.365209   -2.971521
     71          1           0      -11.170421    7.432168   -1.628973
     72          1           0      -12.511993    6.979963   -2.704754
     73          1           0      -11.579226    1.336519   -5.659217
     74          1           0       -9.889225    0.920373   -5.286131
     75          1           0      -10.515905    2.416870   -4.639416
     76          1           0      -12.639913   -3.289809   -3.585834
     77          1           0       -8.704769   -5.616980   -3.597665
     78          1           0       -9.799780   -6.934198   -3.969621
     79          1           0       -9.813683   -6.319148   -2.374504
     80         12           0       13.832872    0.604615    0.119235
     81          6           0       11.545355   -1.991091    0.688744
     82          6           0       16.368702   -1.711905    0.359038
     83          6           0       15.967870    3.069721   -0.387436
     84          6           0       11.127315    2.845060    0.063875
     85          7           0       13.874819   -1.592655    0.397939
     86          6           0       12.833173   -2.489176    0.637179
     87          6           0       13.266145   -4.001254    0.496403
     88          6           0       14.770394   -3.816686    0.550023
     89          6           0       15.047929   -2.262158    0.419016
     90          6           0       15.346168   -4.276070    1.967312
     91          6           0       12.801244   -4.400081   -0.974251
     92          6           0       12.145606   -5.838462   -1.162120
     93          1           0       12.775014   -6.812554   -0.199282
     94          7           0       15.832778    0.677061    0.152021
     95          6           0       16.696557   -0.328025    0.265130
     96          6           0       18.065246    0.102624    0.156009
     97          6           0       17.991801    1.452556   -0.240817
     98          6           0       16.531576    1.821670   -0.114936
     99          6           0       19.268268   -0.748455    0.337966
    100          6           0       19.062011    2.377714   -0.782484
    101          8           0       18.803585    3.457122   -1.326999
    102          6           0       20.540647    2.041877   -0.569316
    103          7           0       13.557351    2.699119   -0.078988
    104          6           0       14.668231    3.459956   -0.357424
    105          6           0       14.210003    4.876794   -0.696492
    106          6           0       12.606131    4.797160   -0.672785
    107          6           0       12.375764    3.365149   -0.267059
    108          6           0       14.904008    5.905273    0.264869
    109          6           0       11.877036    5.218200   -1.939100
    110          6           0       10.761449    6.282789   -1.697665
    111          7           0       11.769988    0.466797    0.354583
    112          6           0       10.771884    1.490814    0.326112
    113          6           0        9.488805    0.936878    0.573798
    114          6           0        9.766364   -0.433064    0.716791
    115          6           0       11.159162   -0.634368    0.623884
    116          6           0        8.140629    1.580515    0.624698
    117          6           0        9.188800   -1.720280    0.936930
    118          8           0        8.055448   -2.088254    1.139051
    119          6           0       10.324107   -2.775554    0.813454
    120          6           0       10.238052   -3.712121    1.963408
    121          8           0       10.502174   -3.481043    3.139960
    122          8           0        9.866387   -4.897130    1.469431
    123          6           0        9.795013   -6.003023    2.401238
    124          1           0       17.250378   -2.350607    0.275964
    125          1           0       16.726495    3.841468   -0.540149
    126          1           0       10.252517    3.494898   -0.007014
    127          1           0       12.681186   -4.530336    1.248095
    128          1           0       15.243690   -4.340381   -0.279867
    129          1           0       14.561753   -4.611492    2.646043
    130          1           0       15.865345   -3.429192    2.415623
    131          1           0       16.048939   -5.071758    1.719895
    132          1           0       13.612673   -4.385696   -1.701301
    133          1           0       12.110721   -3.619222   -1.293976
    134          1           0       12.444680   -6.273948   -2.115611
    135          1           0       11.061608   -5.774575   -1.260288
    136          1           0       19.734778   -0.838556   -0.643974
    137          1           0       19.000858   -1.750604    0.670156
    138          1           0       19.990337   -0.332742    1.040118
    139          1           0       20.973945    3.029592   -0.725021
    140          1           0       20.925162    1.281383   -1.249972
    141          1           0       20.853835    1.782475    0.441805
    142          1           0       14.490787    5.239921   -1.685085
    143          1           0       12.245336    5.425143    0.141913
    144          1           0       15.252742    6.715461   -0.375604
    145          1           0       15.703459    5.477079    0.869625
    146          1           0       14.167836    6.460884    0.846968
    147          1           0       11.435731    4.393322   -2.497616
    148          1           0       12.627116    5.780343   -2.497202
    149          1           0       10.777520    6.630661   -0.664663
    150          1           0        9.766167    5.842129   -1.751707
    151          1           0       10.879542    7.138629   -2.362585
    152          1           0        7.951774    1.757759   -0.434445
    153          1           0        8.238473    2.454255    1.268610
    154          1           0        7.366281    0.900298    0.976570
    155          1           0       10.026024   -3.355882   -0.060759
    156          1           0        9.156254   -5.738577    3.244410
    157          1           0       10.726337   -6.298606    2.885497
    158          1           0        9.359329   -6.835343    1.848203
 ---------------------------------------------------------------------

 SCF Done:  E(RCAM-B3LYP) =  -4069.80493549     A.U. after   19 cycles

 Excitation energies and oscillator strengths:

 Excited State   1:      Singlet-A      1.7182 eV  721.61 nm  f=0.4598  <S**2>=0.000
     309 -> 315       -0.18269
     311 -> 313       -0.15416
     312 -> 314        0.66502
     309 <- 315       -0.10442
 This state for optimization and/or second-order correction.
 Total Energy, E(TD-HF/TD-DFT) =  -4069.74179457
 Copying the excited state density for this state as the 1-particle RhoCI density.

 Excited State   2:      Singlet-A      1.7259 eV  718.36 nm  f=0.2834  <S**2>=0.000
     310 -> 316       -0.15727
     311 -> 313        0.67028
     312 -> 314        0.15273

 Excited State   3:      Singlet-A      2.2687 eV  546.49 nm  f=0.0054  <S**2>=0.000
     309 -> 314        0.54882
     312 -> 315        0.43681

 Excited State   4:      Singlet-A      2.2840 eV  542.84 nm  f=0.1209  <S**2>=0.000
     310 -> 313        0.63701
     311 -> 316        0.28301

 Excited State   5:      Singlet-A      2.8113 eV  441.03 nm  f=0.0000  <S**2>=0.000
     312 -> 313        0.70706

 The electronic state is 1-A.
 Alpha  occ. eigenvalues --  -46.89340 -46.87716 -19.26056 -19.25200 -19.19872
 Alpha  occ. eigenvalues --  -19.19653 -19.19403 -19.18735 -19.18654 -19.17345
 Alpha  occ. eigenvalues --  -14.42187 -14.42177 -14.41825 -14.41569 -14.40170
 Alpha  occ. eigenvalues --  -14.39276 -14.39061 -14.38415 -10.39617 -10.38255
 Alpha  occ. eigenvalues --  -10.36189 -10.35593 -10.34813 -10.33095 -10.31850
 Alpha  occ. eigenvalues --  -10.31428 -10.31306 -10.31281 -10.31218 -10.31116
 Alpha  occ. eigenvalues --  -10.30960 -10.30837 -10.30628 -10.30574 -10.30396
 Alpha  occ. eigenvalues --  -10.30392 -10.30065 -10.29084 -10.29014 -10.28950
 Alpha  occ. eigenvalues --  -10.28913 -10.28874 -10.28861 -10.28680 -10.28570
 Alpha  occ. eigenvalues --  -10.28525 -10.28385 -10.28287 -10.28064 -10.28023
 Alpha  occ. eigenvalues --  -10.28007 -10.27958 -10.27927 -10.27781 -10.27718
 Alpha  occ. eigenvalues --  -10.27501 -10.27476 -10.27472 -10.27276 -10.27266
 Alpha  occ. eigenvalues --  -10.27088 -10.27041 -10.27025 -10.26930 -10.26854
 Alpha  occ. eigenvalues --  -10.26644 -10.26588 -10.26480 -10.26332 -10.26299
 Alpha  occ. eigenvalues --  -10.26202 -10.26173 -10.26166 -10.26104 -10.25981
 Alpha  occ. eigenvalues --  -10.25862 -10.25836 -10.25792 -10.25737 -10.25664
 Alpha  occ. eigenvalues --  -10.25373 -10.25281 -10.25003 -10.24943 -10.24838
 Alpha  occ. eigenvalues --  -10.23529  -3.17677  -3.16426  -1.92574  -1.92119
 Alpha  occ. eigenvalues --   -1.91979  -1.91336  -1.90861  -1.90757  -1.17041
 Alpha  occ. eigenvalues --   -1.15940  -1.11654  -1.10309  -1.09309  -1.07753
 Alpha  occ. eigenvalues --   -1.07026  -1.07023  -1.04932  -1.03992  -1.03860
 Alpha  occ. eigenvalues --   -1.02941  -1.02869  -1.02612  -1.02292  -1.01342
 Alpha  occ. eigenvalues --   -0.92596  -0.91126  -0.89592  -0.88843  -0.88597
 Alpha  occ. eigenvalues --   -0.88432  -0.88368  -0.88104  -0.87926  -0.87416
 Alpha  occ. eigenvalues --   -0.87159  -0.86978  -0.86583  -0.85380  -0.84320
 Alpha  occ. eigenvalues --   -0.83901  -0.83692  -0.83474  -0.82521  -0.82423
 Alpha  occ. eigenvalues --   -0.82303  -0.81794  -0.81217  -0.80583  -0.80357
 Alpha  occ. eigenvalues --   -0.80326  -0.78856  -0.78126  -0.77451  -0.77372
 Alpha  occ. eigenvalues --   -0.76710  -0.76442  -0.75546  -0.75375  -0.74928
 Alpha  occ. eigenvalues --   -0.74835  -0.73049  -0.72078  -0.71353  -0.71345
 Alpha  occ. eigenvalues --   -0.69135  -0.68819  -0.68708  -0.67776  -0.67556
 Alpha  occ. eigenvalues --   -0.67335  -0.67320  -0.66275  -0.65361  -0.65191
 Alpha  occ. eigenvalues --   -0.65014  -0.64961  -0.64868  -0.64451  -0.64339
 Alpha  occ. eigenvalues --   -0.64204  -0.62418  -0.61938  -0.60738  -0.59829
 Alpha  occ. eigenvalues --   -0.59541  -0.59086  -0.59020  -0.58576  -0.58340
 Alpha  occ. eigenvalues --   -0.58143  -0.57708  -0.57321  -0.57247  -0.56997
 Alpha  occ. eigenvalues --   -0.56591  -0.55891  -0.55606  -0.55456  -0.55276
 Alpha  occ. eigenvalues --   -0.54966  -0.54404  -0.54220  -0.53918  -0.53881
 Alpha  occ. eigenvalues --   -0.53772  -0.53486  -0.53455  -0.53116  -0.52873
 Alpha  occ. eigenvalues --   -0.52653  -0.52543  -0.52496  -0.52486  -0.52358
 Alpha  occ. eigenvalues --   -0.52105  -0.51817  -0.51717  -0.51258  -0.51165
 Alpha  occ. eigenvalues --   -0.50985  -0.50682  -0.50464  -0.50359  -0.50321
 Alpha  occ. eigenvalues --   -0.50249  -0.50123  -0.50037  -0.49929  -0.49582
 Alpha  occ. eigenvalues --   -0.49422  -0.49208  -0.49018  -0.48842  -0.48581
 Alpha  occ. eigenvalues --   -0.48559  -0.48470  -0.48366  -0.48107  -0.47904
 Alpha  occ. eigenvalues --   -0.47844  -0.47752  -0.47623  -0.47488  -0.47336
 Alpha  occ. eigenvalues --   -0.47126  -0.46685  -0.46528  -0.46508  -0.46452
 Alpha  occ. eigenvalues --   -0.46342  -0.46139  -0.46025  -0.45998  -0.45755
 Alpha  occ. eigenvalues --   -0.45294  -0.45219  -0.45007  -0.44654  -0.44540
 Alpha  occ. eigenvalues --   -0.44500  -0.44440  -0.44396  -0.44257  -0.44234
 Alpha  occ. eigenvalues --   -0.43993  -0.43653  -0.43644  -0.43612  -0.43363
 Alpha  occ. eigenvalues --   -0.43066  -0.43026  -0.42933  -0.42802  -0.42744
 Alpha  occ. eigenvalues --   -0.42556  -0.42289  -0.42268  -0.41904  -0.41882
 Alpha  occ. eigenvalues --   -0.41817  -0.41517  -0.41372  -0.41065  -0.41034
 Alpha  occ. eigenvalues --   -0.40761  -0.40689  -0.40326  -0.40129  -0.40012
 Alpha  occ. eigenvalues --   -0.39750  -0.39680  -0.38756  -0.38753  -0.38455
 Alpha  occ. eigenvalues --   -0.38225  -0.37780  -0.37573  -0.37363  -0.37170
 Alpha  occ. eigenvalues --   -0.36985  -0.36858  -0.36857  -0.36412  -0.36254
 Alpha  occ. eigenvalues --   -0.36054  -0.34687  -0.34186  -0.33893  -0.33788
 Alpha  occ. eigenvalues --   -0.33730  -0.33002  -0.32754  -0.32217  -0.31643
 Alpha  occ. eigenvalues --   -0.31341  -0.31314  -0.30846  -0.30532  -0.29985
 Alpha  occ. eigenvalues --   -0.29625  -0.29240  -0.29208  -0.24161  -0.24069
 Alpha  occ. eigenvalues --   -0.21003  -0.20112
 Alpha virt. eigenvalues --   -0.08530  -0.07484  -0.02419  -0.01646   0.00098
 Alpha virt. eigenvalues --    0.00573   0.01916   0.02489   0.02870   0.03470
 Alpha virt. eigenvalues --    0.04964   0.05554   0.05618   0.05940   0.06109

 Mulliken charges:
               1
     1  Mg  11.996719
     2  C    6.024059
     3  C    5.987932
     4  C    5.968950
     5  C    6.016046
     6  N    7.014061
     7  C    5.965370
     8  C    6.006434
     9  C    5.986055
    10  C    6.035570
    11  C    5.995500
    12  C    6.005308
    13  C    5.999578
    14  H    1.000196
    15  N    6.982055
    16  C    6.036433
    17  C    6.016861
    18  C    6.012995
    19  C    6.046647
    20  C    5.998706
    21  C    6.010592
    22  O    8.023202
    23  C    5.998483
    24  N    6.995119
    25  C    6.044744
    26  C    5.985699
    27  C    6.015760
    28  C    5.966156
    29  C    5.998529
    30  C    6.001833
    31  C    6.002367
    32  N    7.006337
    33  C    5.957451
    34  C    5.965988
    35  C    6.001317
    36  C    5.964554
    37  C    6.001934
    38  C    5.984658
    39  O    7.973114
    40  C    6.001479
    41  C    5.996119
    42  O    7.991583
    43  O    8.000772
    44  C    6.002606
    45  H    1.010616
    46  H    1.004401
    47  H    0.992077
    48  H    1.003488
    49  H    1.004229
    50  H    1.008984
    51  H    0.999200
    52  H    1.013054
    53  H    0.988194
    54  H    1.004004
    55  H    1.004727
    56  H    0.994077
    57  H    1.013625
    58  H    1.015953
    59  H    1.016119
    60  H    1.013437
    61  H    1.005244
    62  H    1.005098
    63  H    1.000632
    64  H    0.994282
    65  H    1.000367
    66  H    0.996153
    67  H    1.011437
    68  H    1.005893
    69  H    0.989539
    70  H    1.002804
    71  H    0.994335
    72  H    0.996030
    73  H    0.979841
    74  H    0.982527
    75  H    0.981965
    76  H    0.992459
    77  H    0.999211
    78  H    0.995126
    79  H    0.995002
    80  Mg  12.000735
    81  C    5.993164
    82  C    6.000682
    83  C    6.007254
    84  C    5.999380
    85  N    6.995902
    86  C    6.008177
    87  C    5.999248
    88  C    6.000592
    89  C    5.995178
    90  C    6.000902
    91  C    5.999724
    92  C    5.999298
    93  H    1.001286
    94  N    7.002639
    95  C    5.991719
    96  C    5.994242
    97  C    5.997731
    98  C    5.989041
    99  C    6.001418
   100  C    5.997258
   101  O    7.993555
   102  C    6.001569
   103  N    7.001992
   104  C    5.991414
   105  C    6.003028
   106  C    5.997192
   107  C    6.006147
   108  C    6.000984
   109  C    5.998225
   110  C    5.999931
   111  N    6.999639
   112  C    6.009176
   113  C    6.005572
   114  C    6.001036
   115  C    6.007577
   116  C    6.000270
   117  C    6.003838
   118  O    8.007733
   119  C    6.001203
   120  C    6.000706
   121  O    8.001084
   122  O    8.000314
   123  C    5.999498
   124  H    0.996975
   125  H    0.999483
   126  H    1.003571
   127  H    0.999109
   128  H    0.999339
   129  H    0.996536
   130  H    1.000998
   131  H    0.999042
   132  H    1.002656
   133  H    0.998487
   134  H    1.000856
   135  H    0.999156
   136  H    0.995460
   137  H    0.996045
   138  H    0.995443
   139  H    0.996793
   140  H    0.998054
   141  H    0.998138
   142  H    0.999449
   143  H    1.000577
   144  H    0.999273
   145  H    1.001288
   146  H    0.997599
   147  H    0.999908
   148  H    1.002944
   149  H    1.000359
   150  H    0.999364
   151  H    1.001475
   152  H    1.004064
   153  H    1.003397
   154  H    1.003246
   155  H    1.001195
   156  H    1.000098
   157  H    1.001433
   158  H    1.000938
 Sum of Mulliken charges = 624.00000

 Dipole moment (field-independent basis, Debye):
    X=             -8.3456    Y=              0.6870    Z=              8.4269  Tot=             11.8800
 Quadrupole moment (field-independent basis, Debye-Ang):
   XX=             92.3722   YY=             -0.3704   ZZ=             -0.0699
   XY=            -12.5558   XZ=           -112.0229   YZ=              5.5262

 Normal termination of Gaussian 16 at Wed Sep 22 15:22:30 2021.
