 Gaussian 16, Revision A.03,
 Gaussian 16:  ES64L-G16RevA.03 25-Dec-2016

 -----------------------------------
 #p cam-b3lyp/Def2SVP td=(nstates=5)
 -----------------------------------

 --------------------------------
 TDDFT excited states in gaussian
 --------------------------------
 Symbolic Z-matrix:
 Charge =  0 Multiplicity = 1

                         Standard orientation:
 ---------------------------------------------------------------------
 Center     Atomic      Atomic             Coordinates (Angstroms)
 Number     Number       Type             X           Y           Z
 ---------------------------------------------------------------------
      1         12           0      -20.956536   -0.534054   -0.184457
      2          6           0      -18.954391    2.245847   -0.001841
      3          6           0      -23.557557    1.336764    1.037080
      4          6           0      -22.965620   -3.360134   -0.255197
      5          6           0      -18.197143   -2.472460   -0.989875
      6          7           0      -21.243754    1.579324    0.512755
      7          6           0      -20.265609    2.524345    0.387879
      8          6           0      -20.746831    3.830656    0.799887
      9          6           0      -22.145759    3.594011    1.346715
     10          6           0      -22.366355    2.058948    0.990785
     11          6           0      -22.427742    3.904163    2.857419
     12          6           0      -20.692890    4.865434   -0.375212
     13          6           0      -20.402470    6.358933    0.003057
     14          1           0      -20.845433    6.830034    1.402158
     15          7           0      -23.025676   -0.895755    0.223957
     16          6           0      -23.921101    0.042715    0.707596
     17          6           0      -25.239394   -0.600395    0.880785
     18          6           0      -25.082649   -2.000873    0.493632
     19          6           0      -23.667396   -2.140772    0.108911
     20          6           0      -26.480586    0.100120    1.409026
     21          6           0      -26.162859   -3.050621    0.375378
     22          8           0      -25.862763   -4.180397   -0.048874
     23          6           0      -27.580055   -2.852933    0.764649
     24          7           0      -20.629472   -2.639792   -0.490092
     25          6           0      -21.613789   -3.542812   -0.518861
     26          6           0      -21.086611   -4.909389   -0.987128
     27          6           0      -19.569943   -4.610172   -1.488043
     28          6           0      -19.483334   -3.111765   -1.029738
     29          6           0      -21.203919   -5.980697    0.140483
     30          6           0      -19.334788   -4.732654   -3.018569
     31          6           0      -18.441181   -5.900049   -3.463587
     32          7           0      -18.937373   -0.242229   -0.389626
     33          6           0      -17.908402   -1.130858   -0.709921
     34          6           0      -16.615631   -0.413257   -0.769353
     35          6           0      -17.024251    0.908685   -0.473852
     36          6           0      -18.425468    0.955942   -0.244943
     37          6           0      -15.307969   -0.935531   -1.111047
     38          6           0      -16.539436    2.302916   -0.408865
     39          8           0      -15.457986    2.783583   -0.621385
     40          6           0      -17.774042    3.207258   -0.057308
     41          6           0      -17.440755    4.007010    1.132267
     42          8           0      -17.363771    3.468075    2.248130
     43          8           0      -17.372258    5.349878    0.919714
     44          6           0      -17.249607    6.236789    2.072320
     45          1           0      -24.365020    1.960441    1.426310
     46          1           0      -23.605127   -4.245337   -0.235504
     47          1           0      -17.385030   -3.095716   -1.369713
     48          1           0      -20.103129    4.184266    1.606049
     49          1           0      -22.902139    4.068529    0.720473
     50          1           0      -21.658795    4.310815    3.515075
     51          1           0      -22.789529    2.988112    3.323747
     52          1           0      -23.284164    4.560624    3.013339
     53          1           0      -21.595818    4.779299   -0.979816
     54          1           0      -19.997545    4.500704   -1.130999
     55          1           0      -20.858265    7.024634   -0.730422
     56          1           0      -19.337651    6.581582    0.064810
     57          1           0      -26.350507    1.174704    1.532570
     58          1           0      -26.749314   -0.270871    2.398493
     59          1           0      -27.268927    0.080654    0.656750
     60          1           0      -28.106724   -3.760985    0.472669
     61          1           0      -28.043147   -1.982649    0.297784
     62          1           0      -27.634800   -2.621393    1.828503
     63          1           0      -21.634653   -5.163487   -1.894516
     64          1           0      -18.826839   -5.186596   -0.937125
     65          1           0      -21.671079   -6.908893   -0.188898
     66          1           0      -21.804706   -5.606540    0.969884
     67          1           0      -20.178699   -6.107162    0.489191
     68          1           0      -18.892261   -3.840007   -3.459086
     69          1           0      -20.271493   -4.840496   -3.565868
     70          1           0      -18.517561   -6.711371   -2.739600
     71          1           0      -17.410371   -5.547330   -3.474937
     72          1           0      -18.723214   -6.132850   -4.489582
     73          1           0      -14.607192   -0.156681   -1.410906
     74          1           0      -15.335635   -1.681911   -1.904688
     75          1           0      -14.839801   -1.278493   -0.188274
     76          1           0      -17.859952    3.799087   -0.969236
     77          1           0      -16.309052    6.139359    2.615190
     78          1           0      -18.116850    6.149066    2.726695
     79          1           0      -17.241329    7.272468    1.732970
     80         12           0       20.764782   -0.709241    0.397454
     81          6           0       20.312873    2.176721   -1.547299
     82          6           0       22.412454    1.028187    2.718668
     83          6           0       21.152099   -3.488846    2.009102
     84          6           0       19.913573   -2.549385   -2.598875
     85          7           0       21.367791    1.358109    0.466205
     86          6           0       20.965639    2.384958   -0.293181
     87          6           0       21.570882    3.689726    0.156368
     88          6           0       22.575293    3.226034    1.286373
     89          6           0       22.097666    1.806993    1.526770
     90          6           0       24.109679    3.310244    0.999804
     91          6           0       20.439277    4.649586    0.790062
     92          6           0       20.489205    6.114399    0.244556
     93          1           0       19.162358    6.952280    0.661477
     94          7           0       21.414577   -1.112169    2.184800
     95          6           0       22.047577   -0.248677    3.062554
     96          6           0       22.148789   -0.894063    4.342512
     97          6           0       21.747002   -2.287251    4.223273
     98          6           0       21.292897   -2.354597    2.781536
     99          6           0       22.797081   -0.119343    5.525672
    100          6           0       21.675867   -3.488448    5.159212
    101          8           0       21.207574   -4.608971    4.888303
    102          6           0       22.134361   -3.166032    6.537309
    103          7           0       20.694196   -2.686329   -0.322493
    104          6           0       20.918072   -3.644457    0.635167
    105          6           0       20.908568   -5.044677    0.020782
    106          6           0       20.213837   -4.775226   -1.339787
    107          6           0       20.322640   -3.255847   -1.482452
    108          6           0       22.370380   -5.644887    0.020883
    109          6           0       18.715683   -5.283971   -1.471249
    110          6           0       18.200710   -5.559683   -2.893004
    111          7           0       20.181501   -0.318852   -1.661095
    112          6           0       19.884596   -1.157979   -2.691975
    113          6           0       19.415943   -0.423482   -3.845742
    114          6           0       19.511810    0.901126   -3.381364
    115          6           0       20.037944    0.923877   -2.081797
    116          6           0       18.925824   -0.882313   -5.238382
    117          6           0       19.257876    2.260908   -3.767990
    118          8           0       18.676025    2.762876   -4.693769
    119          6           0       19.945222    3.158618   -2.613294
    120          6           0       18.912221    4.177770   -2.410035
    121          8           0       17.869551    4.119723   -1.710379
    122          8           0       19.304374    5.222517   -3.159418
    123          6           0       18.445977    6.407242   -3.199841
    124          1           0       22.871886    1.604448    3.524641
    125          1           0       21.209038   -4.423458    2.571338
    126          1           0       19.575189   -3.155816   -3.441604
    127          1           0       22.051740    4.273586   -0.628970
    128          1           0       22.460073    3.708777    2.257013
    129          1           0       24.485896    2.291084    0.911229
    130          1           0       24.534871    3.790093    1.881139
    131          1           0       24.446219    3.826875    0.101635
    132          1           0       20.402172    4.687008    1.879429
    133          1           0       19.485264    4.159003    0.596639
    134          1           0       20.564498    6.115227   -0.842644
    135          1           0       21.292291    6.732077    0.645866
    136          1           0       22.004522    0.410731    6.052052
    137          1           0       23.381957    0.746875    5.213908
    138          1           0       23.532510   -0.654730    6.125722
    139          1           0       21.550337   -2.397421    7.042287
    140          1           0       23.176216   -2.890888    6.368716
    141          1           0       22.167979   -4.030163    7.201424
    142          1           0       20.291507   -5.645007    0.689447
    143          1           0       20.754688   -5.299185   -2.127799
    144          1           0       22.773991   -5.653962   -0.991519
    145          1           0       22.517117   -6.665375    0.373732
    146          1           0       23.137399   -5.067619    0.537584
    147          1           0       18.141265   -4.415415   -1.147998
    148          1           0       18.423800   -6.153193   -0.881486
    149          1           0       17.409548   -4.867782   -3.184761
    150          1           0       17.807530   -6.547561   -3.133892
    151          1           0       19.027454   -5.298318   -3.552032
    152          1           0       19.387641   -1.855165   -5.406871
    153          1           0       19.218834   -0.171212   -6.011902
    154          1           0       17.844648   -0.995188   -5.158954
    155          1           0       20.832337    3.650476   -3.012689
    156          1           0       18.950820    7.216774   -2.672976
    157          1           0       17.430208    6.192508   -2.869581
    158          1           0       18.396608    6.754813   -4.231686
 ---------------------------------------------------------------------

 SCF Done:  E(RCAM-B3LYP) =  -4069.84206109     A.U. after   17 cycles

 Excitation energies and oscillator strengths:

 Excited State   1:      Singlet-A      1.7271 eV  717.87 nm  f=0.3953  <S**2>=0.000
     309 -> 315        0.19507
     311 -> 313        0.67282
     312 -> 314        0.10526
     309 <- 315        0.10930
 This state for optimization and/or second-order correction.
 Total Energy, E(TD-HF/TD-DFT) =  -4069.77859109
 Copying the excited state density for this state as the 1-particle RhoCI density.

 Excited State   2:      Singlet-A      1.7300 eV  716.69 nm  f=0.3751  <S**2>=0.000
     310 -> 316        0.18636
     311 -> 313       -0.10498
     312 -> 314        0.67424
     310 <- 316        0.10755

 Excited State   3:      Singlet-A      2.2496 eV  551.13 nm  f=0.0606  <S**2>=0.000
     309 -> 313        0.61697
     311 -> 315       -0.33565

 Excited State   4:      Singlet-A      2.2550 eV  549.81 nm  f=0.0869  <S**2>=0.000
     310 -> 314        0.62542
     312 -> 316       -0.31647

 Excited State   5:      Singlet-A      3.1380 eV  395.10 nm  f=0.0000  <S**2>=0.000
     312 -> 313        0.70710

 The electronic state is 1-A.
 Alpha  occ. eigenvalues --  -46.88861 -46.87551 -19.25945 -19.24845 -19.19650
 Alpha  occ. eigenvalues --  -19.19272 -19.19016 -19.19016 -19.18405 -19.18344
 Alpha  occ. eigenvalues --  -14.42577 -14.41804 -14.41708 -14.41696 -14.39467
 Alpha  occ. eigenvalues --  -14.39437 -14.39220 -14.38385 -10.39532 -10.38546
 Alpha  occ. eigenvalues --  -10.35975 -10.34940 -10.34824 -10.34639 -10.32289
 Alpha  occ. eigenvalues --  -10.31691 -10.31171 -10.30982 -10.30890 -10.30767
 Alpha  occ. eigenvalues --  -10.30623 -10.30585 -10.30584 -10.30390 -10.30253
 Alpha  occ. eigenvalues --  -10.30094 -10.30081 -10.30020 -10.29992 -10.29895
 Alpha  occ. eigenvalues --  -10.29446 -10.29280 -10.29209 -10.29129 -10.28701
 Alpha  occ. eigenvalues --  -10.28669 -10.28521 -10.28370 -10.28348 -10.28257
 Alpha  occ. eigenvalues --  -10.27975 -10.27877 -10.27843 -10.27816 -10.27742
 Alpha  occ. eigenvalues --  -10.27722 -10.27715 -10.27692 -10.27659 -10.27588
 Alpha  occ. eigenvalues --  -10.27502 -10.27433 -10.27366 -10.27357 -10.27279
 Alpha  occ. eigenvalues --  -10.27194 -10.26963 -10.26784 -10.26628 -10.26484
 Alpha  occ. eigenvalues --  -10.26460 -10.26411 -10.26237 -10.26083 -10.26043
 Alpha  occ. eigenvalues --  -10.26043 -10.26039 -10.25992 -10.25985 -10.25854
 Alpha  occ. eigenvalues --  -10.25800 -10.25486 -10.25342 -10.25329 -10.25226
 Alpha  occ. eigenvalues --  -10.24418  -3.17284  -3.16394  -1.92205  -1.91723
 Alpha  occ. eigenvalues --   -1.91591  -1.91279  -1.90862  -1.90709  -1.16410
 Alpha  occ. eigenvalues --   -1.15913  -1.10919  -1.10752  -1.09371  -1.08898
 Alpha  occ. eigenvalues --   -1.07097  -1.05526  -1.05170  -1.05095  -1.04282
 Alpha  occ. eigenvalues --   -1.04026  -1.03571  -1.03351  -1.02391  -1.00932
 Alpha  occ. eigenvalues --   -0.92693  -0.92461  -0.89102  -0.89090  -0.88255
 Alpha  occ. eigenvalues --   -0.88241  -0.88026  -0.87683  -0.87427  -0.87168
 Alpha  occ. eigenvalues --   -0.86951  -0.86708  -0.86243  -0.86235  -0.84513
 Alpha  occ. eigenvalues --   -0.83919  -0.83806  -0.83540  -0.82459  -0.82300
 Alpha  occ. eigenvalues --   -0.82249  -0.81851  -0.81247  -0.81189  -0.80525
 Alpha  occ. eigenvalues --   -0.80281  -0.78411  -0.78199  -0.77530  -0.77299
 Alpha  occ. eigenvalues --   -0.77283  -0.76898  -0.76211  -0.75899  -0.75383
 Alpha  occ. eigenvalues --   -0.74866  -0.72767  -0.72570  -0.72112  -0.71482
 Alpha  occ. eigenvalues --   -0.69227  -0.69215  -0.68777  -0.68330  -0.68003
 Alpha  occ. eigenvalues --   -0.67894  -0.67196  -0.66895  -0.66032  -0.65811
 Alpha  occ. eigenvalues --   -0.65525  -0.65420  -0.65002  -0.64842  -0.64424
 Alpha  occ. eigenvalues --   -0.64302  -0.62698  -0.61747  -0.60216  -0.59824
 Alpha  occ. eigenvalues --   -0.59821  -0.59563  -0.59193  -0.59129  -0.58723
 Alpha  occ. eigenvalues --   -0.58618  -0.58197  -0.57956  -0.57262  -0.57134
 Alpha  occ. eigenvalues --   -0.56303  -0.56025  -0.55938  -0.55906  -0.55421
 Alpha  occ. eigenvalues --   -0.55318  -0.54693  -0.54344  -0.53949  -0.53900
 Alpha  occ. eigenvalues --   -0.53421  -0.53414  -0.53195  -0.52897  -0.52757
 Alpha  occ. eigenvalues --   -0.52755  -0.52536  -0.52390  -0.52202  -0.52191
 Alpha  occ. eigenvalues --   -0.51635  -0.51581  -0.51476  -0.51412  -0.51251
 Alpha  occ. eigenvalues --   -0.51141  -0.51006  -0.50710  -0.50368  -0.50181
 Alpha  occ. eigenvalues --   -0.50146  -0.50003  -0.49937  -0.49816  -0.49404
 Alpha  occ. eigenvalues --   -0.49341  -0.49032  -0.48966  -0.48905  -0.48512
 Alpha  occ. eigenvalues --   -0.48465  -0.48448  -0.48094  -0.48086  -0.48002
 Alpha  occ. eigenvalues --   -0.47924  -0.47444  -0.47400  -0.47241  -0.47171
 Alpha  occ. eigenvalues --   -0.47078  -0.46854  -0.46671  -0.46484  -0.46326
 Alpha  occ. eigenvalues --   -0.46261  -0.45889  -0.45842  -0.45696  -0.45678
 Alpha  occ. eigenvalues --   -0.45503  -0.45485  -0.45172  -0.45130  -0.44891
 Alpha  occ. eigenvalues --   -0.44865  -0.44502  -0.44298  -0.44014  -0.43776
 Alpha  occ. eigenvalues --   -0.43712  -0.43572  -0.43540  -0.43463  -0.43458
 Alpha  occ. eigenvalues --   -0.43138  -0.43077  -0.42982  -0.42856  -0.42841
 Alpha  occ. eigenvalues --   -0.42638  -0.42593  -0.42190  -0.42116  -0.42057
 Alpha  occ. eigenvalues --   -0.41889  -0.41813  -0.41460  -0.41325  -0.41178
 Alpha  occ. eigenvalues --   -0.41128  -0.40884  -0.40798  -0.40660  -0.40563
 Alpha  occ. eigenvalues --   -0.40308  -0.40300  -0.39965  -0.39577  -0.39511
 Alpha  occ. eigenvalues --   -0.38760  -0.38160  -0.37824  -0.37448  -0.37362
 Alpha  occ. eigenvalues --   -0.37192  -0.36979  -0.36685  -0.36596  -0.35996
 Alpha  occ. eigenvalues --   -0.35479  -0.35200  -0.34012  -0.33963  -0.33941
 Alpha  occ. eigenvalues --   -0.33915  -0.33087  -0.32951  -0.31707  -0.31298
 Alpha  occ. eigenvalues --   -0.31107  -0.30868  -0.30666  -0.30523  -0.30313
 Alpha  occ. eigenvalues --   -0.30036  -0.29588  -0.29479  -0.24166  -0.23855
 Alpha  occ. eigenvalues --   -0.21097  -0.20776
 Alpha virt. eigenvalues --   -0.08420  -0.08263  -0.02280  -0.01695  -0.00273
 Alpha virt. eigenvalues --    0.00571   0.02424   0.02573   0.03119   0.03167
 Alpha virt. eigenvalues --    0.04496   0.04810   0.05159   0.05263   0.06031

 Mulliken charges:
               1
     1  Mg   0.814795
     2  C   -0.017234
     3  C   -0.070473
     4  C   -0.047025
     5  C   -0.073573
     6  N   -0.243858
     7  C   -0.051360
     8  C   -0.008512
     9  C    0.010451
    10  C   -0.041633
    11  C    0.066179
    12  C    0.061590
    13  C   -0.064225
    14  H    0.001585
    15  N   -0.381005
    16  C    0.179979
    17  C   -0.151802
    18  C   -0.018612
    19  C    0.094755
    20  C    0.107327
    21  C   -0.005734
    22  O   -0.232235
    23  C    0.074380
    24  N   -0.261019
    25  C    0.046028
    26  C   -0.044084
    27  C   -0.048512
    28  C    0.017409
    29  C    0.079033
    30  C    0.027458
    31  C    0.003020
    32  N   -0.356656
    33  C    0.120875
    34  C   -0.149977
    35  C   -0.006738
    36  C    0.104746
    37  C    0.121483
    38  C    0.014271
    39  O   -0.146006
    40  C    0.025551
    41  C    0.218343
    42  O   -0.248923
    43  O   -0.321503
    44  C    0.184513
    45  H   -0.049226
    46  H    0.001113
    47  H   -0.028690
    48  H    0.022847
    49  H    0.008013
    50  H    0.027368
    51  H    0.010383
    52  H    0.004914
    53  H   -0.006440
    54  H    0.001682
    55  H    0.031398
    56  H    0.046828
    57  H    0.002008
    58  H    0.041561
    59  H    0.029931
    60  H    0.037735
    61  H    0.020610
    62  H    0.031132
    63  H    0.014334
    64  H    0.014680
    65  H    0.025687
    66  H    0.024967
    67  H    0.008097
    68  H    0.007553
    69  H    0.001688
    70  H    0.019676
    71  H    0.010901
    72  H    0.018621
    73  H    0.025163
    74  H    0.026393
    75  H    0.033659
    76  H    0.036829
    77  H    0.048295
    78  H    0.035119
    79  H    0.032097
    80  Mg   0.852769
    81  C    0.059585
    82  C   -0.070812
    83  C   -0.057483
    84  C   -0.106723
    85  N   -0.270999
    86  C    0.000298
    87  C   -0.067189
    88  C   -0.030289
    89  C    0.007074
    90  C    0.073761
    91  C    0.057190
    92  C   -0.089422
    93  H    0.003821
    94  N   -0.473313
    95  C    0.176001
    96  C   -0.108106
    97  C   -0.095521
    98  C    0.154275
    99  C    0.089103
   100  C    0.047435
   101  O   -0.209003
   102  C    0.040325
   103  N   -0.291847
   104  C    0.056797
   105  C   -0.031495
   106  C   -0.009892
   107  C    0.037008
   108  C    0.062916
   109  C    0.033891
   110  C   -0.009097
   111  N   -0.270799
   112  C    0.124372
   113  C   -0.199708
   114  C    0.032762
   115  C    0.059085
   116  C    0.139567
   117  C    0.025855
   118  O   -0.148451
   119  C   -0.069275
   120  C    0.203356
   121  O   -0.256589
   122  O   -0.319725
   123  C    0.175279
   124  H   -0.039472
   125  H    0.000568
   126  H   -0.042870
   127  H    0.011928
   128  H    0.003434
   129  H    0.020768
   130  H    0.015856
   131  H    0.020541
   132  H    0.007599
   133  H    0.035356
   134  H    0.036293
   135  H    0.033602
   136  H    0.029974
   137  H    0.006209
   138  H    0.032704
   139  H    0.052592
   140  H    0.030717
   141  H    0.020723
   142  H    0.015907
   143  H    0.001387
   144  H   -0.000341
   145  H    0.021542
   146  H    0.019804
   147  H    0.012336
   148  H    0.017936
   149  H    0.013163
   150  H    0.020648
   151  H    0.010232
   152  H    0.013413
   153  H    0.043200
   154  H    0.041379
   155  H    0.043544
   156  H    0.032012
   157  H    0.059402
   158  H    0.031122
 Sum of Mulliken charges =  -0.00000

 Dipole moment (field-independent basis, Debye):
    X=              1.1019    Y=              2.2101    Z=              1.5365  Tot=              2.9085
 Quadrupole moment (field-independent basis, Debye-Ang):
   XX=           -211.7389   YY=           -484.5711   ZZ=           -505.5198
   XY=            -43.4707   XZ=             54.6228   YZ=             32.3047

 Normal termination of Gaussian 16 at Thu Sep  2 05:40:48 2021.
