 Gaussian 16, Revision A.03,
 Gaussian 16:  ES64L-G16RevA.03 25-Dec-2016

 -----------------------------------
 #p cam-b3lyp/Def2SVP td=(nstates=5)
 -----------------------------------

 --------------------------------
 TDDFT excited states in gaussian
 --------------------------------
 Symbolic Z-matrix:
 Charge =  0 Multiplicity = 1

                         Standard orientation:
 ---------------------------------------------------------------------
 Center     Atomic      Atomic             Coordinates (Angstroms)
 Number     Number       Type             X           Y           Z
 ---------------------------------------------------------------------
      1         12           0       -0.652438    0.149752    0.261411
      2          6           0        2.808977   -0.125998    0.375593
      3          6           0       -0.801435   -3.267916   -0.004091
      4          6           0       -4.072727    0.420208   -0.117245
      5          6           0       -0.413529    3.614650   -0.035207
      6          7           0        0.843331   -1.489412    0.293544
      7          6           0        2.174035   -1.395882    0.456972
      8          6           0        2.902306   -2.747459    0.642691
      9          6           0        1.741800   -3.767956    0.274351
     10          6           0        0.476673   -2.793746    0.127209
     11          6           0        2.141089   -4.549242   -1.028004
     12          6           0        3.392834   -2.813004    2.179355
     13          6           0        4.903995   -3.104997    2.415428
     14          1           0        5.621954   -3.789098    1.196296
     15          7           0       -2.239389   -1.181781   -0.092507
     16          6           0       -2.081839   -2.583118   -0.081003
     17          6           0       -3.392404   -3.197198   -0.065249
     18          6           0       -4.340388   -2.169529   -0.148578
     19          6           0       -3.571005   -0.874799   -0.042292
     20          6           0       -3.566137   -4.707450   -0.280037
     21          6           0       -5.881660   -2.298332   -0.274208
     22          8           0       -6.677862   -1.343075   -0.338643
     23          6           0       -6.496892   -3.707988   -0.242672
     24          7           0       -1.996437    1.813933   -0.111615
     25          6           0       -3.409698    1.615860   -0.167146
     26          6           0       -4.121731    2.933381   -0.538584
     27          6           0       -2.961825    3.989406   -0.224884
     28          6           0       -1.711189    3.084967   -0.068967
     29          6           0       -4.637229    2.846344   -1.965616
     30          6           0       -3.246176    4.783603    1.119157
     31          6           0       -3.566056    4.129292    2.506292
     32          7           0        0.836615    1.486658    0.104925
     33          6           0        0.814426    2.878308   -0.029043
     34          6           0        2.155390    3.365862   -0.044638
     35          6           0        2.961169    2.258802    0.151336
     36          6           0        2.136359    1.106947    0.135225
     37          6           0        2.614897    4.789300   -0.285560
     38          6           0        4.299850    1.845452    0.302016
     39          8           0        5.276104    2.518312    0.203667
     40          6           0        4.254613    0.261686    0.335018
     41          6           0        4.933647   -0.198736   -0.925184
     42          8           0        4.346635   -0.650479   -1.886142
     43          8           0        6.245144    0.023056   -0.777527
     44          6           0        6.954333    0.055373   -2.033167
     45          1           0       -0.865462   -4.357808   -0.007381
     46          1           0       -5.102738    0.481675   -0.472805
     47          1           0       -0.320951    4.698250   -0.138848
     48          1           0        3.787722   -2.885683    0.022476
     49          1           0        1.495919   -4.484716    1.058206
     50          1           0        1.341646   -4.667625   -1.759811
     51          1           0        2.423592   -5.496463   -0.569460
     52          1           0        3.053382   -4.086120   -1.403202
     53          1           0        2.723990   -3.498406    2.699482
     54          1           0        3.170068   -1.839721    2.617302
     55          1           0        4.851980   -3.765988    3.279899
     56          1           0        5.504299   -2.236635    2.685260
     57          1           0       -4.220501   -4.832888   -1.143062
     58          1           0       -4.102352   -5.132858    0.569322
     59          1           0       -2.592397   -5.177099   -0.415686
     60          1           0       -6.261493   -4.174747   -1.200031
     61          1           0       -7.575965   -3.555133   -0.250314
     62          1           0       -6.262354   -4.186775    0.707725
     63          1           0       -4.887828    3.056062    0.227572
     64          1           0       -2.946125    4.760099   -0.994677
     65          1           0       -4.874591    1.828021   -2.273911
     66          1           0       -3.902385    3.246644   -2.663716
     67          1           0       -5.580391    3.382466   -2.069039
     68          1           0       -4.023700    5.518001    0.908645
     69          1           0       -2.289142    5.269156    1.310179
     70          1           0       -4.643251    3.974474    2.569410
     71          1           0       -3.239462    4.857657    3.249457
     72          1           0       -2.991049    3.238704    2.761913
     73          1           0        2.219991    5.482030    0.457810
     74          1           0        2.198765    5.032748   -1.262931
     75          1           0        3.683205    4.969458   -0.157762
     76          1           0        4.770623   -0.244747    1.150913
     77          1           0        7.821900    0.714825   -2.034134
     78          1           0        6.431277    0.157641   -2.983880
     79          1           0        7.415247   -0.897286   -2.295021
 ---------------------------------------------------------------------

 SCF Done:  E(RCAM-B3LYP) =  -2034.90891038     A.U. after   19 cycles

 Excitation energies and oscillator strengths:

 Excited State   1:      Singlet-A      1.7043 eV  727.50 nm  f=0.3895  <S**2>=0.000
     155 ->158        -0.17586
     156 ->157         0.68644
     155 <-158        -0.10656
 This state for optimization and/or second-order correction.
 Total Energy, E(TD-HF/TD-DFT) =  -2034.84627995
 Copying the excited state density for this state as the 1-particle RhoCI density.

 Excited State   2:      Singlet-A      2.2267 eV  556.80 nm  f=0.1272  <S**2>=0.000
     155 ->157         0.64630
     156 ->158         0.27553

 Excited State   3:      Singlet-A      3.4216 eV  362.36 nm  f=0.0224  <S**2>=0.000
     153 ->157         0.49168
     154 ->157        -0.44689
     156 ->158        -0.17284

 Excited State   4:      Singlet-A      3.4693 eV  357.37 nm  f=0.1350  <S**2>=0.000
     150 ->157         0.23397
     150 ->159        -0.15243
     151 ->157         0.41366
     151 ->159        -0.18724
     153 ->157         0.18610
     154 ->157         0.14059
     155 ->157        -0.13149
     156 ->158         0.31052

 Excited State   5:      Singlet-A      3.5547 eV  348.79 nm  f=0.2088  <S**2>=0.000
     153 ->157         0.22535
     154 ->157         0.44316
     155 ->157         0.15918
     156 ->158        -0.43950

 The electronic state is 1-A.
 Alpha  occ. eigenvalues --  -46.88070 -19.26146 -19.20058 -19.19353 -19.18605
 Alpha  occ. eigenvalues --  -14.42236 -14.41425 -14.39547 -14.39051 -10.39317
 Alpha  occ. eigenvalues --  -10.35113 -10.34820 -10.31591 -10.31346 -10.30658
 Alpha  occ. eigenvalues --  -10.30340 -10.30148 -10.29891 -10.29820 -10.29653
 Alpha  occ. eigenvalues --  -10.29628 -10.28875 -10.28511 -10.28390 -10.28134
 Alpha  occ. eigenvalues --  -10.28130 -10.27846 -10.27656 -10.27653 -10.27586
 Alpha  occ. eigenvalues --  -10.27058 -10.27001 -10.26723 -10.26706 -10.26677
 Alpha  occ. eigenvalues --  -10.26521 -10.26246 -10.25807 -10.25779 -10.25600
 Alpha  occ. eigenvalues --  -10.25251 -10.25195 -10.24673  -3.16672  -1.91573
 Alpha  occ. eigenvalues --   -1.91106  -1.90994  -1.18151  -1.12007  -1.09074
 Alpha  occ. eigenvalues --   -1.08324  -1.04146  -1.03310  -1.02701  -1.01154
 Alpha  occ. eigenvalues --   -0.92790  -0.88526  -0.88123  -0.87746  -0.87069
 Alpha  occ. eigenvalues --   -0.86490  -0.86008  -0.83924  -0.83391  -0.82277
 Alpha  occ. eigenvalues --   -0.81190  -0.80899  -0.79927  -0.77705  -0.77101
 Alpha  occ. eigenvalues --   -0.76726  -0.75851  -0.74949  -0.72950  -0.71174
 Alpha  occ. eigenvalues --   -0.68882  -0.68637  -0.67963  -0.66360  -0.65845
 Alpha  occ. eigenvalues --   -0.64540  -0.64470  -0.63930  -0.62377  -0.59990
 Alpha  occ. eigenvalues --   -0.59393  -0.58951  -0.58410  -0.57991  -0.57245
 Alpha  occ. eigenvalues --   -0.56256  -0.55672  -0.54894  -0.54377  -0.53960
 Alpha  occ. eigenvalues --   -0.53359  -0.53115  -0.52579  -0.52200  -0.51984
 Alpha  occ. eigenvalues --   -0.51847  -0.51727  -0.50946  -0.50607  -0.49897
 Alpha  occ. eigenvalues --   -0.49804  -0.49501  -0.49156  -0.48834  -0.48585
 Alpha  occ. eigenvalues --   -0.48321  -0.47938  -0.47728  -0.47469  -0.47123
 Alpha  occ. eigenvalues --   -0.46645  -0.46258  -0.46162  -0.45716  -0.45565
 Alpha  occ. eigenvalues --   -0.45174  -0.44926  -0.44624  -0.44540  -0.44315
 Alpha  occ. eigenvalues --   -0.43745  -0.43594  -0.43402  -0.43044  -0.43004
 Alpha  occ. eigenvalues --   -0.42644  -0.42371  -0.41916  -0.41740  -0.41308
 Alpha  occ. eigenvalues --   -0.40797  -0.40666  -0.40268  -0.39552  -0.39139
 Alpha  occ. eigenvalues --   -0.37670  -0.37450  -0.37084  -0.37053  -0.36454
 Alpha  occ. eigenvalues --   -0.36106  -0.34794  -0.34085  -0.32656  -0.31636
 Alpha  occ. eigenvalues --   -0.30951  -0.30434  -0.30259  -0.29575  -0.23758
 Alpha  occ. eigenvalues --   -0.20966
 Alpha virt. eigenvalues --   -0.08540  -0.01331   0.00570   0.02491   0.02571
 Alpha virt. eigenvalues --    0.04542   0.06137   0.06218   0.07409   0.08506
 Alpha virt. eigenvalues --    0.09075   0.09504   0.09571   0.09795   0.10897

 Mulliken charges:
               1
     1  Mg   0.826328
     2  C   -0.012259
     3  C   -0.055210
     4  C   -0.055305
     5  C   -0.101736
     6  N   -0.262882
     7  C   -0.021611
     8  C   -0.037416
     9  C   -0.073733
    10  C    0.047866
    11  C    0.074578
    12  C    0.036463
    13  C   -0.072624
    14  H    0.021618
    15  N   -0.381523
    16  C    0.116827
    17  C   -0.159371
    18  C   -0.046563
    19  C    0.112343
    20  C    0.135762
    21  C    0.005265
    22  O   -0.221311
    23  C    0.048248
    24  N   -0.269127
    25  C    0.004000
    26  C   -0.013057
    27  C   -0.018925
    28  C    0.072198
    29  C    0.091478
    30  C   -0.014725
    31  C    0.000583
    32  N   -0.397763
    33  C    0.133564
    34  C   -0.171115
    35  C    0.038072
    36  C    0.108993
    37  C    0.123568
    38  C    0.021069
    39  O   -0.126745
    40  C   -0.025990
    41  C    0.175995
    42  O   -0.208515
    43  O   -0.277523
    44  C    0.182026
    45  H   -0.037512
    46  H    0.007426
    47  H   -0.023669
    48  H    0.021962
    49  H    0.013742
    50  H    0.030043
    51  H    0.010717
    52  H    0.027826
    53  H    0.008557
    54  H    0.018907
    55  H    0.034143
    56  H    0.048644
    57  H    0.023682
    58  H    0.016885
    59  H    0.018134
    60  H    0.040359
    61  H    0.017709
    62  H    0.042660
    63  H    0.008198
    64  H    0.001959
    65  H    0.024901
    66  H    0.013009
    67  H    0.014148
    68  H    0.012835
    69  H   -0.002237
    70  H    0.027132
    71  H    0.014287
    72  H    0.022609
    73  H    0.015010
    74  H    0.034283
    75  H    0.032741
    76  H    0.026017
    77  H    0.038656
    78  H    0.037262
    79  H    0.007157
 Sum of Mulliken charges =  -0.00000

 Dipole moment (field-independent basis, Debye):
    X=              0.8088    Y=             -1.6394    Z=              1.5370  Tot=              2.3884
 Quadrupole moment (field-independent basis, Debye-Ang):
   XX=           -275.9649   YY=           -227.8220   ZZ=           -252.2121
   XY=            -11.5428   XZ=             -2.2032   YZ=             -4.9427

 Normal termination of Gaussian 16 at Wed Sep 15 15:36:14 2021.
