 Gaussian 16, Revision A.03,
 Gaussian 16:  ES64L-G16RevA.03 25-Dec-2016

 ----------------------------------------------------------
 #p cam-b3lyp/Def2SVP td=(nstates=5) density=(transition=1)
 ----------------------------------------------------------

 --------------------------------
 TDDFT excited states in gaussian
 --------------------------------
 Symbolic Z-matrix:
 Charge =  0 Multiplicity = 1

                         Standard orientation:
 ---------------------------------------------------------------------
 Center     Atomic      Atomic             Coordinates (Angstroms)
 Number     Number       Type             X           Y           Z
 ---------------------------------------------------------------------
      1         12           0       26.907813   -0.725460    0.181510
      2          6           0       27.803811    2.239052   -1.528696
      3          6           0       24.303022    0.989842    1.659507
      4          6           0       26.250997   -3.491563    2.025118
      5          6           0       29.691599   -2.364750   -1.179619
      6          7           0       26.288493    1.398226    0.089778
      7          6           0       26.648207    2.379681   -0.830762
      8          6           0       25.733409    3.664823   -0.693037
      9          6           0       24.837743    3.288763    0.517284
     10          6           0       25.176864    1.815324    0.835679
     11          6           0       24.934382    4.174194    1.815670
     12          6           0       25.021330    4.175408   -2.012108
     13          6           0       25.371753    5.572322   -2.427078
     14          1           0       24.199418    6.423895   -3.057114
     15          7           0       25.498955   -1.124499    1.604493
     16          6           0       24.457528   -0.336191    2.050302
     17          6           0       23.707898   -1.055491    3.068320
     18          6           0       24.233491   -2.370700    3.212450
     19          6           0       25.381582   -2.395684    2.233177
     20          6           0       22.430508   -0.515394    3.742292
     21          6           0       23.764003   -3.526770    4.089710
     22          8           0       24.248638   -4.639211    4.058425
     23          6           0       22.521932   -3.454064    5.069484
     24          7           0       27.914412   -2.644422    0.460570
     25          6           0       27.443574   -3.591502    1.261341
     26          6           0       28.319773   -4.893807    1.212456
     27          6           0       29.316696   -4.586847    0.025800
     28          6           0       28.951611   -3.104629   -0.288886
     29          6           0       28.928383   -5.239740    2.602194
     30          6           0       29.163610   -5.569049   -1.118654
     31          6           0       30.487561   -6.031727   -1.724302
     32          7           0       28.559147   -0.228425   -0.986979
     33          6           0       29.556378   -1.005749   -1.544162
     34          6           0       30.417758   -0.130899   -2.278444
     35          6           0       29.779541    1.131891   -2.354382
     36          6           0       28.620051    1.050533   -1.533811
     37          6           0       31.695505   -0.508311   -2.926753
     38          6           0       29.833754    2.464019   -2.981433
     39          8           0       30.686846    3.034288   -3.655173
     40          6           0       28.409604    3.244370   -2.431429
     41          6           0       28.754780    4.460095   -1.763028
     42          8           0       28.738026    4.615293   -0.561195
     43          8           0       28.979087    5.470424   -2.670713
     44          6           0       29.396525    6.739075   -2.023434
     45          1           0       23.397230    1.455233    2.054204
     46          1           0       26.115597   -4.391394    2.627931
     47          1           0       30.480902   -2.974496   -1.625676
     48          1           0       26.396901    4.416311   -0.266441
     49          1           0       23.784712    3.306100    0.236191
     50          1           0       23.916265    4.289192    2.188886
     51          1           0       25.385728    5.129300    1.548166
     52          1           0       25.537121    3.738974    2.613030
     53          1           0       23.952088    4.057136   -1.835965
     54          1           0       25.350021    3.519538   -2.818450
     55          1           0       26.159550    5.544647   -3.181026
     56          1           0       25.748974    6.020988   -1.508542
     57          1           0       21.629248   -1.159012    3.380934
     58          1           0       22.197103    0.464187    3.324432
     59          1           0       22.420662   -0.540111    4.832676
     60          1           0       21.648943   -3.167568    4.482053
     61          1           0       22.743918   -2.922411    5.995250
     62          1           0       22.465936   -4.450285    5.507221
     63          1           0       27.765910   -5.778670    0.899484
     64          1           0       30.312816   -4.587331    0.468786
     65          1           0       29.999334   -5.401096    2.475947
     66          1           0       28.429175   -6.072443    3.098316
     67          1           0       28.799000   -4.395578    3.277523
     68          1           0       28.536225   -5.175099   -1.917540
     69          1           0       28.605955   -6.471310   -0.862804
     70          1           0       31.325081   -5.444009   -1.348330
     71          1           0       30.408061   -5.856251   -2.797511
     72          1           0       30.637324   -7.107134   -1.627244
     73          1           0       32.024585   -1.542170   -2.822609
     74          1           0       32.401422    0.287805   -2.687094
     75          1           0       31.421952   -0.556077   -3.981059
     76          1           0       27.773549    3.464435   -3.289286
     77          1           0       30.317673    6.581909   -1.461852
     78          1           0       28.541989    7.070067   -1.433310
     79          1           0       29.635257    7.523188   -2.740897
     80         12           0      -27.929309    0.335556   -0.525756
     81          6           0      -24.622901    0.356202    0.813248
     82          6           0      -26.889898   -2.112369   -2.510517
     83          6           0      -31.157078   -0.462571   -1.130737
     84          6           0      -28.832167    2.222513    2.359455
     85          7           0      -26.023295   -0.628883   -0.884383
     86          6           0      -24.757248   -0.422448   -0.294873
     87          6           0      -23.644754   -1.339743   -0.893435
     88          6           0      -24.433557   -2.081265   -2.009651
     89          6           0      -25.864484   -1.520061   -1.870146
     90          6           0      -23.707681   -1.818548   -3.339614
     91          6           0      -22.908825   -2.346192    0.092623
     92          6           0      -21.426367   -2.097471    0.345562
     93          1           0      -20.451697   -3.256219    0.051975
     94          7           0      -28.898998   -0.986424   -1.699753
     95          6           0      -28.255495   -1.956039   -2.468526
     96          6           0      -29.181312   -2.636561   -3.280561
     97          6           0      -30.434253   -2.102820   -3.041679
     98          6           0      -30.248356   -1.172454   -1.946585
     99          6           0      -28.919112   -3.778120   -4.331740
    100          6           0      -31.669065   -2.528092   -3.801070
    101          8           0      -31.659115   -3.264890   -4.741912
    102          6           0      -33.035407   -1.807509   -3.356597
    103          7           0      -29.744009    0.743409    0.502175
    104          6           0      -30.948516    0.322246    0.008366
    105          6           0      -32.049639    0.726524    1.072035
    106          6           0      -31.381627    1.663534    2.092130
    107          6           0      -29.874201    1.535971    1.649421
    108          6           0      -33.347565    1.207116    0.487735
    109          6           0      -31.545711    1.088482    3.493502
    110          6           0      -31.447077    2.047837    4.649743
    111          7           0      -26.916536    1.354203    1.117060
    112          6           0      -27.417803    2.085699    2.167231
    113          6           0      -26.358604    2.593438    2.961211
    114          6           0      -25.166680    2.018328    2.460429
    115          6           0      -25.611294    1.175083    1.403246
    116          6           0      -26.463548    3.416045    4.182300
    117          6           0      -23.711059    1.848638    2.564267
    118          8           0      -22.920670    2.414556    3.331432
    119          6           0      -23.273555    0.782531    1.487858
    120          6           0      -22.503685    1.435649    0.462966
    121          8           0      -23.054971    2.159774   -0.399415
    122          8           0      -21.207587    1.142450    0.686580
    123          6           0      -20.202137    1.530221   -0.340416
    124          1           0      -26.574111   -2.894086   -3.205029
    125          1           0      -32.189804   -0.694567   -1.399702
    126          1           0      -29.037020    2.903768    3.187541
    127          1           0      -22.869601   -0.725527   -1.351564
    128          1           0      -24.505718   -3.156767   -1.850692
    129          1           0      -24.353302   -2.200107   -4.130089
    130          1           0      -22.729320   -2.286240   -3.449139
    131          1           0      -23.542447   -0.755670   -3.519477
    132          1           0      -22.914676   -3.291220   -0.450547
    133          1           0      -23.468401   -2.434135    1.023944
    134          1           0      -21.323769   -1.789382    1.386633
    135          1           0      -21.086998   -1.281681   -0.293704
    136          1           0      -29.588811   -4.591820   -4.052611
    137          1           0      -27.888602   -4.131691   -4.301774
    138          1           0      -29.012122   -3.491074   -5.379112
    139          1           0      -33.786525   -2.138245   -4.073287
    140          1           0      -32.781384   -0.748836   -3.414478
    141          1           0      -33.161546   -2.176925   -2.338938
    142          1           0      -32.280320   -0.221393    1.559461
    143          1           0      -31.724965    2.697860    2.109257
    144          1           0      -33.797359    1.910698    1.187745
    145          1           0      -33.961513    0.316158    0.354471
    146          1           0      -33.266301    1.610628   -0.520885
    147          1           0      -30.858030    0.268628    3.702965
    148          1           0      -32.491863    0.560684    3.613020
    149          1           0      -31.461241    3.091946    4.337645
    150          1           0      -30.507751    1.849138    5.166173
    151          1           0      -32.181926    1.804221    5.416980
    152          1           0      -27.362888    4.032701    4.176976
    153          1           0      -25.571654    4.043094    4.187355
    154          1           0      -26.530849    2.703734    5.004924
    155          1           0      -22.799687   -0.110425    1.895535
    156          1           0      -19.349129    1.747926    0.303951
    157          1           0      -20.509688    2.364583   -0.970088
    158          1           0      -19.842895    0.662945   -0.895409
 ---------------------------------------------------------------------

 SCF Done:  E(RCAM-B3LYP) =  -4069.81121713     A.U. after   18 cycles

 Excitation energies and oscillator strengths:

 Excited State   1:      Singlet-A      1.7225 eV  719.78 nm  f=0.3864  <S**2>=0.000
     309 -> 316       -0.17110
     312 -> 313        0.68746
     309 <- 316       -0.10386
 This state for optimization and/or second-order correction.
 Total Energy, E(TD-HF/TD-DFT) =  -4069.74791573
 Copying the excited state density for this state as the 1-particle RhoCI density.

 Excited State   2:      Singlet-A      1.7837 eV  695.09 nm  f=0.3735  <S**2>=0.000
     310 -> 315       -0.17650
     311 -> 314        0.68529
     310 <- 315       -0.10145

 Excited State   3:      Singlet-A      2.2584 eV  549.00 nm  f=0.1224  <S**2>=0.000
     309 -> 313        0.63626
     312 -> 316        0.28928

 Excited State   4:      Singlet-A      2.2587 eV  548.93 nm  f=0.1093  <S**2>=0.000
     310 -> 314        0.63868
     311 -> 315        0.28379

 Excited State   5:      Singlet-A      3.2428 eV  382.34 nm  f=0.0000  <S**2>=0.000
     311 -> 313        0.70711

 The electronic state is 1-A.
 Alpha  occ. eigenvalues --  -46.88533 -46.88227 -19.26532 -19.24325 -19.19878
 Alpha  occ. eigenvalues --  -19.19685 -19.19664 -19.19379 -19.19217 -19.18757
 Alpha  occ. eigenvalues --  -14.42555 -14.42265 -14.42204 -14.41756 -14.40335
 Alpha  occ. eigenvalues --  -14.39527 -14.38715 -14.38490 -10.39531 -10.38316
 Alpha  occ. eigenvalues --  -10.36395 -10.35988 -10.35498 -10.35413 -10.32868
 Alpha  occ. eigenvalues --  -10.32512 -10.31971 -10.31658 -10.31516 -10.31265
 Alpha  occ. eigenvalues --  -10.31261 -10.31122 -10.31011 -10.30622 -10.30499
 Alpha  occ. eigenvalues --  -10.30181 -10.30164 -10.29804 -10.29639 -10.29035
 Alpha  occ. eigenvalues --  -10.28858 -10.28708 -10.28701 -10.28648 -10.28490
 Alpha  occ. eigenvalues --  -10.28362 -10.28234 -10.28160 -10.28045 -10.28019
 Alpha  occ. eigenvalues --  -10.27989 -10.27979 -10.27802 -10.27798 -10.27777
 Alpha  occ. eigenvalues --  -10.27659 -10.27640 -10.27604 -10.27359 -10.27334
 Alpha  occ. eigenvalues --  -10.27207 -10.27133 -10.27118 -10.27110 -10.26943
 Alpha  occ. eigenvalues --  -10.26901 -10.26859 -10.26772 -10.26714 -10.26491
 Alpha  occ. eigenvalues --  -10.26464 -10.26379 -10.26329 -10.26278 -10.26242
 Alpha  occ. eigenvalues --  -10.26021 -10.25975 -10.25863 -10.25817 -10.25775
 Alpha  occ. eigenvalues --  -10.25459 -10.25285 -10.25187 -10.25139 -10.24871
 Alpha  occ. eigenvalues --  -10.24858  -3.17130  -3.16757  -1.92008  -1.91664
 Alpha  occ. eigenvalues --   -1.91566  -1.91457  -1.91206  -1.91064  -1.16669
 Alpha  occ. eigenvalues --   -1.15870  -1.12002  -1.11508  -1.09259  -1.08689
 Alpha  occ. eigenvalues --   -1.07427  -1.07421  -1.04140  -1.04082  -1.03202
 Alpha  occ. eigenvalues --   -1.02857  -1.02464  -1.01959  -1.01767  -1.00937
 Alpha  occ. eigenvalues --   -0.92235  -0.91846  -0.89687  -0.89370  -0.89134
 Alpha  occ. eigenvalues --   -0.88732  -0.88431  -0.88039  -0.87354  -0.87217
 Alpha  occ. eigenvalues --   -0.86889  -0.86665  -0.86528  -0.85605  -0.84839
 Alpha  occ. eigenvalues --   -0.84376  -0.84260  -0.83637  -0.83319  -0.82503
 Alpha  occ. eigenvalues --   -0.81933  -0.81157  -0.81035  -0.80716  -0.80334
 Alpha  occ. eigenvalues --   -0.80097  -0.78431  -0.77750  -0.77400  -0.76938
 Alpha  occ. eigenvalues --   -0.76706  -0.76451  -0.76280  -0.75761  -0.75152
 Alpha  occ. eigenvalues --   -0.74716  -0.72774  -0.72242  -0.71745  -0.71298
 Alpha  occ. eigenvalues --   -0.69280  -0.69053  -0.68846  -0.68638  -0.67779
 Alpha  occ. eigenvalues --   -0.67422  -0.67265  -0.67235  -0.65721  -0.65628
 Alpha  occ. eigenvalues --   -0.65624  -0.65020  -0.64799  -0.64585  -0.64583
 Alpha  occ. eigenvalues --   -0.64349  -0.62262  -0.61144  -0.60168  -0.60034
 Alpha  occ. eigenvalues --   -0.59656  -0.59454  -0.59166  -0.58796  -0.58542
 Alpha  occ. eigenvalues --   -0.58235  -0.58023  -0.57807  -0.57168  -0.57004
 Alpha  occ. eigenvalues --   -0.56433  -0.56067  -0.55944  -0.55764  -0.54997
 Alpha  occ. eigenvalues --   -0.54736  -0.54715  -0.54301  -0.54241  -0.53837
 Alpha  occ. eigenvalues --   -0.53694  -0.53241  -0.53207  -0.53190  -0.53037
 Alpha  occ. eigenvalues --   -0.52897  -0.52552  -0.52499  -0.52426  -0.52126
 Alpha  occ. eigenvalues --   -0.51703  -0.51694  -0.51501  -0.51409  -0.51258
 Alpha  occ. eigenvalues --   -0.51017  -0.50913  -0.50598  -0.50587  -0.50371
 Alpha  occ. eigenvalues --   -0.50179  -0.50143  -0.49987  -0.49887  -0.49575
 Alpha  occ. eigenvalues --   -0.49514  -0.49464  -0.49196  -0.48944  -0.48646
 Alpha  occ. eigenvalues --   -0.48543  -0.48448  -0.48279  -0.48084  -0.48065
 Alpha  occ. eigenvalues --   -0.48003  -0.47734  -0.47539  -0.47505  -0.47492
 Alpha  occ. eigenvalues --   -0.46979  -0.46780  -0.46440  -0.46420  -0.46317
 Alpha  occ. eigenvalues --   -0.46215  -0.46109  -0.45996  -0.45635  -0.45525
 Alpha  occ. eigenvalues --   -0.45327  -0.45175  -0.45141  -0.44945  -0.44844
 Alpha  occ. eigenvalues --   -0.44755  -0.44677  -0.44469  -0.44339  -0.44145
 Alpha  occ. eigenvalues --   -0.43993  -0.43930  -0.43734  -0.43566  -0.43488
 Alpha  occ. eigenvalues --   -0.43309  -0.43287  -0.43194  -0.43104  -0.42961
 Alpha  occ. eigenvalues --   -0.42819  -0.42582  -0.42407  -0.42328  -0.42294
 Alpha  occ. eigenvalues --   -0.41994  -0.41956  -0.41682  -0.41660  -0.41505
 Alpha  occ. eigenvalues --   -0.41173  -0.40608  -0.40560  -0.40283  -0.40233
 Alpha  occ. eigenvalues --   -0.40133  -0.40023  -0.39675  -0.39429  -0.39180
 Alpha  occ. eigenvalues --   -0.38684  -0.38409  -0.38245  -0.37660  -0.37628
 Alpha  occ. eigenvalues --   -0.37240  -0.37172  -0.36864  -0.36725  -0.36245
 Alpha  occ. eigenvalues --   -0.36023  -0.35911  -0.34362  -0.34284  -0.34187
 Alpha  occ. eigenvalues --   -0.33842  -0.33080  -0.32954  -0.31811  -0.31654
 Alpha  occ. eigenvalues --   -0.31480  -0.30914  -0.30779  -0.30644  -0.30574
 Alpha  occ. eigenvalues --   -0.30228  -0.28951  -0.28657  -0.24293  -0.24062
 Alpha  occ. eigenvalues --   -0.21312  -0.21273
 Alpha virt. eigenvalues --   -0.08774  -0.08515  -0.01773  -0.01720   0.00047
 Alpha virt. eigenvalues --    0.00546   0.02103   0.02162   0.02715   0.02965
 Alpha virt. eigenvalues --    0.04532   0.04542   0.04726   0.05401   0.05615

 Mulliken charges:
               1
     1  Mg  11.999977
     2  C    5.999983
     3  C    5.999964
     4  C    5.999974
     5  C    6.000031
     6  N    7.000032
     7  C    5.999972
     8  C    6.000042
     9  C    5.999963
    10  C    6.000108
    11  C    5.999966
    12  C    6.000005
    13  C    5.999998
    14  H    1.000002
    15  N    7.000010
    16  C    6.000140
    17  C    6.000052
    18  C    6.000080
    19  C    6.000089
    20  C    5.999970
    21  C    6.000009
    22  O    8.000077
    23  C    5.999984
    24  N    6.999969
    25  C    6.000079
    26  C    5.999967
    27  C    6.000023
    28  C    5.999943
    29  C    5.999992
    30  C    6.000023
    31  C    6.000014
    32  N    6.999984
    33  C    5.999834
    34  C    5.999960
    35  C    5.999939
    36  C    5.999924
    37  C    6.000022
    38  C    5.999950
    39  O    7.999888
    40  C    5.999990
    41  C    5.999993
    42  O    7.999978
    43  O    7.999995
    44  C    6.000016
    45  H    1.000066
    46  H    0.999999
    47  H    0.999941
    48  H    0.999990
    49  H    1.000026
    50  H    1.000034
    51  H    1.000065
    52  H    1.000005
    53  H    0.999986
    54  H    1.000007
    55  H    1.000000
    56  H    1.000003
    57  H    1.000076
    58  H    1.000078
    59  H    1.000090
    60  H    1.000034
    61  H    1.000050
    62  H    1.000046
    63  H    0.999999
    64  H    0.999984
    65  H    1.000020
    66  H    0.999994
    67  H    1.000000
    68  H    0.999998
    69  H    0.999950
    70  H    1.000008
    71  H    0.999992
    72  H    0.999962
    73  H    0.999914
    74  H    0.999930
    75  H    0.999910
    76  H    0.999978
    77  H    0.999988
    78  H    0.999994
    79  H    0.999977
    80  Mg  12.000114
    81  C    6.025016
    82  C    5.991063
    83  C    5.974501
    84  C    6.013177
    85  N    7.015792
    86  C    5.967894
    87  C    6.013498
    88  C    5.984302
    89  C    6.032912
    90  C    5.996508
    91  C    6.002613
    92  C    6.002128
    93  H    0.992840
    94  N    6.993271
    95  C    6.040227
    96  C    6.023123
    97  C    6.010267
    98  C    6.041096
    99  C    5.996577
   100  C    6.007587
   101  O    8.017186
   102  C    6.003209
   103  N    6.995886
   104  C    6.031128
   105  C    5.995754
   106  C    6.007571
   107  C    5.966157
   108  C    5.999561
   109  C    6.008405
   110  C    6.000150
   111  N    7.000401
   112  C    5.960071
   113  C    5.973049
   114  C    5.992302
   115  C    5.965716
   116  C    6.002916
   117  C    5.983298
   118  O    7.968568
   119  C    5.997083
   120  C    5.997705
   121  O    7.994826
   122  O    7.998838
   123  C    6.002242
   124  H    1.014071
   125  H    1.005674
   126  H    0.990974
   127  H    0.998416
   128  H    1.002977
   129  H    0.994215
   130  H    1.012400
   131  H    1.010850
   132  H    0.990233
   133  H    1.002155
   134  H    1.005067
   135  H    1.001048
   136  H    1.016663
   137  H    1.018643
   138  H    1.019942
   139  H    1.012235
   140  H    1.007356
   141  H    1.008264
   142  H    1.000424
   143  H    0.996380
   144  H    1.009278
   145  H    0.995682
   146  H    0.997711
   147  H    0.997598
   148  H    0.986640
   149  H    1.000079
   150  H    1.005804
   151  H    0.994050
   152  H    0.980880
   153  H    0.984147
   154  H    0.977345
   155  H    0.988945
   156  H    0.997921
   157  H    0.996826
   158  H    0.992583
 Sum of Mulliken charges = 624.00000

 Dipole moment (field-independent basis, Debye):
    X=             -4.5885    Y=             -6.0383    Z=             -7.7963  Tot=             10.8764
 Quadrupole moment (field-independent basis, Debye-Ang):
   XX=            248.0349   YY=              0.1734   ZZ=              3.0983
   XY=            167.0471   XZ=            219.3681   YZ=              1.7393

 Normal termination of Gaussian 16 at Thu Sep 23 09:21:18 2021.
