 Gaussian 16, Revision A.03,
 Gaussian 16:  ES64L-G16RevA.03 25-Dec-2016

 -----------------------------------
 #p cam-b3lyp/Def2SVP td=(nstates=5)
 -----------------------------------

 --------------------------------
 TDDFT excited states in gaussian
 --------------------------------
 Symbolic Z-matrix:
 Charge =  0 Multiplicity = 1

                         Standard orientation:
 ---------------------------------------------------------------------
 Center     Atomic      Atomic             Coordinates (Angstroms)
 Number     Number       Type             X           Y           Z
 ---------------------------------------------------------------------
      1         12           0       -9.245369   -0.845910    0.586136
      2          6           0       -9.932398    2.449699   -0.305201
      3          6           0       -7.450403    0.286360    3.293702
      4          6           0       -8.440850   -4.075723    1.154830
      5          6           0      -10.790899   -1.876472   -2.466565
      6          7           0       -8.684892    1.132227    1.296301
      7          6           0       -9.087579    2.338920    0.813430
      8          6           0       -8.622909    3.487616    1.718010
      9          6           0       -7.708899    2.714785    2.768560
     10          6           0       -7.990691    1.249824    2.418756
     11          6           0       -6.232996    3.057700    2.605812
     12          6           0       -9.749352    4.221793    2.529031
     13          6           0       -9.508155    5.661833    2.900557
     14          1           0       -8.156581    6.215011    2.811282
     15          7           0       -8.198051   -1.747940    2.052010
     16          6           0       -7.514458   -1.087500    3.092441
     17          6           0       -7.054781   -2.116522    3.987903
     18          6           0       -7.360157   -3.390081    3.444693
     19          6           0       -8.032083   -3.114185    2.150983
     20          6           0       -6.168472   -1.838678    5.183165
     21          6           0       -7.147500   -4.747201    3.971463
     22          8           0       -7.283776   -5.749893    3.303329
     23          6           0       -6.563182   -4.957627    5.415348
     24          7           0       -9.705533   -2.800439   -0.411258
     25          6           0       -9.236270   -3.933251    0.019131
     26          6           0       -9.627163   -5.108358   -0.926843
     27          6           0      -10.430671   -4.452326   -2.034980
     28          6           0      -10.290554   -2.925032   -1.694153
     29          6           0       -8.326672   -5.938771   -1.353871
     30          6           0      -11.881699   -4.971065   -2.120508
     31          6           0      -12.176734   -6.115945   -3.160266
     32          7           0      -10.365710   -0.021797   -0.886104
     33          6           0      -10.933090   -0.549331   -2.072601
     34          6           0      -11.594904    0.455044   -2.814589
     35          6           0      -11.132052    1.675971   -2.162453
     36          6           0      -10.427507    1.274009   -0.991776
     37          6           0      -12.231002    0.281317   -4.181639
     38          6           0      -11.180833    3.081931   -2.327066
     39          8           0      -11.732218    3.794803   -3.156196
     40          6           0      -10.413364    3.678246   -0.971943
     41          6           0       -9.369986    4.620351   -1.496695
     42          8           0       -8.461298    4.297946   -2.269218
     43          8           0       -9.611217    5.974302   -1.117901
     44          6           0       -8.616712    6.975799   -1.615118
     45          1           0       -6.895196    0.716534    4.130717
     46          1           0       -7.985560   -5.056189    1.306912
     47          1           0      -11.320002   -2.140374   -3.384253
     48          1           0       -8.039912    4.155454    1.083421
     49          1           0       -7.960173    2.948788    3.802985
     50          1           0       -6.100072    3.948775    1.992880
     51          1           0       -5.641289    2.215656    2.245693
     52          1           0       -5.761935    3.419793    3.519674
     53          1           0       -9.938504    3.636132    3.427979
     54          1           0      -10.670414    4.096375    1.959388
     55          1           0       -9.740558    5.756638    3.961036
     56          1           0      -10.153424    6.297797    2.294469
     57          1           0       -5.161745   -2.241903    5.074096
     58          1           0       -6.666392   -2.233422    6.069792
     59          1           0       -5.970040   -0.789149    5.399855
     60          1           0       -5.484027   -4.836499    5.317753
     61          1           0       -6.676609   -5.998867    5.717406
     62          1           0       -6.940249   -4.200822    6.102142
     63          1           0      -10.240742   -5.741264   -0.285438
     64          1           0       -9.924264   -4.520001   -2.996596
     65          1           0       -8.234055   -5.974871   -2.439242
     66          1           0       -8.376232   -6.994323   -1.085832
     67          1           0       -7.495423   -5.381844   -0.919523
     68          1           0      -12.493116   -4.107207   -2.383684
     69          1           0      -12.160980   -5.278281   -1.112567
     70          1           0      -12.373219   -5.643176   -4.123193
     71          1           0      -12.943842   -6.855093   -2.928596
     72          1           0      -11.186206   -6.561621   -3.245056
     73          1           0      -13.230762   -0.081097   -3.943834
     74          1           0      -11.705830   -0.467823   -4.772981
     75          1           0      -12.137942    1.121510   -4.870965
     76          1           0      -11.154632    4.161147   -0.334007
     77          1           0       -8.614545    7.033195   -2.703009
     78          1           0       -7.574755    6.866581   -1.313115
     79          1           0       -9.078348    7.880875   -1.220368
     80         12           0        9.518282   -0.455616   -0.328593
     81          6           0        7.521977    2.382381   -0.258474
     82          6           0       12.114567    1.321383    0.886192
     83          6           0       11.390983   -3.215731   -0.610792
     84          6           0        6.812689   -2.175458   -1.737097
     85          7           0        9.705235    1.642299    0.262410
     86          6           0        8.787738    2.578639    0.303842
     87          6           0        9.464596    3.888631    0.919678
     88          6           0       10.887255    3.622252    0.475222
     89          6           0       10.950760    2.065173    0.579139
     90          6           0       11.131995    4.223173   -0.925744
     91          6           0        9.087765    4.045326    2.455485
     92          6           0        9.265995    5.460197    3.014722
     93          1           0        9.986728    6.496070    2.169326
     94          7           0       11.401535   -0.929529    0.239134
     95          6           0       12.312062   -0.043468    0.810073
     96          6           0       13.484938   -0.842515    1.275951
     97          6           0       13.315242   -2.202947    0.775002
     98          6           0       12.025780   -2.094749    0.042194
     99          6           0       14.627470   -0.239065    2.058062
    100          6           0       14.203056   -3.517848    0.967589
    101          8           0       13.882840   -4.630725    0.536481
    102          6           0       15.492969   -3.352953    1.743825
    103          7           0        9.204253   -2.329793   -1.147554
    104          6           0       10.118770   -3.295775   -1.164297
    105          6           0        9.639205   -4.569395   -1.926676
    106          6           0        8.137107   -4.268999   -2.031567
    107          6           0        7.997903   -2.855090   -1.561705
    108          6           0       10.344068   -4.813969   -3.290142
    109          6           0        7.108682   -5.320081   -1.418053
    110          6           0        6.468978   -4.976081   -0.113184
    111          7           0        7.627697    0.007699   -1.090258
    112          6           0        6.630644   -0.778201   -1.561595
    113          6           0        5.455736   -0.053214   -1.891631
    114          6           0        5.754189    1.248368   -1.378881
    115          6           0        7.051275    1.173920   -0.925067
    116          6           0        4.162604   -0.407953   -2.578788
    117          6           0        5.287750    2.583547   -1.150546
    118          8           0        4.233979    3.128331   -1.399671
    119          6           0        6.331655    3.351557   -0.278602
    120          6           0        6.627047    4.648471   -0.894946
    121          8           0        7.119377    4.747484   -2.008582
    122          8           0        6.126037    5.757449   -0.166292
    123          6           0        6.292083    7.074740   -0.800315
    124          1           0       12.946729    1.944696    1.216665
    125          1           0       12.040490   -4.084814   -0.728092
    126          1           0        6.008585   -2.731834   -2.222512
    127          1           0        9.033840    4.776583    0.458943
    128          1           0       11.649000    3.977678    1.168685
    129          1           0       11.845030    5.019698   -0.710418
    130          1           0       10.227419    4.631728   -1.378135
    131          1           0       11.656707    3.453954   -1.491953
    132          1           0        9.705209    3.382167    3.062017
    133          1           0        8.020198    3.829425    2.503798
    134          1           0        9.785015    5.353620    3.966780
    135          1           0        8.269013    5.831764    3.250235
    136          1           0       14.282849    0.562013    2.712980
    137          1           0       15.472126    0.145401    1.487282
    138          1           0       15.017392   -0.998740    2.735360
    139          1           0       15.984694   -2.519987    1.241913
    140          1           0       16.174965   -4.200105    1.676908
    141          1           0       15.270977   -3.190568    2.798681
    142          1           0        9.812024   -5.471840   -1.340510
    143          1           0        7.944743   -4.136758   -3.095650
    144          1           0        9.545263   -5.108439   -3.971237
    145          1           0       11.147347   -5.548937   -3.306400
    146          1           0       10.834957   -3.885093   -3.580643
    147          1           0        7.588729   -6.298570   -1.399459
    148          1           0        6.243285   -5.390578   -2.076612
    149          1           0        5.410351   -4.801519   -0.306830
    150          1           0        6.733863   -4.007418    0.312432
    151          1           0        6.518970   -5.764610    0.637777
    152          1           0        4.163779   -1.427155   -2.966821
    153          1           0        3.935226    0.357802   -3.320989
    154          1           0        3.277885   -0.475869   -1.945366
    155          1           0        5.964217    3.526718    0.732194
    156          1           0        6.063806    7.926568   -0.160180
    157          1           0        5.599200    7.030710   -1.641038
    158          1           0        7.307137    7.077065   -1.195761
 ---------------------------------------------------------------------

 SCF Done:  E(RCAM-B3LYP) =  -4069.85013462     A.U. after   19 cycles

 Excitation energies and oscillator strengths:

 Excited State   1:      Singlet-A      1.7256 eV  718.50 nm  f=0.4890  <S**2>=0.000
     309 -> 315        0.17181
     311 -> 314       -0.13460
     312 -> 313        0.67316
     309 <- 315        0.10341
 This state for optimization and/or second-order correction.
 Total Energy, E(TD-HF/TD-DFT) =  -4069.78672043
 Copying the excited state density for this state as the 1-particle RhoCI density.

 Excited State   2:      Singlet-A      1.7357 eV  714.31 nm  f=0.2834  <S**2>=0.000
     310 -> 316        0.17445
     311 -> 314        0.67316
     312 -> 313        0.13439
     310 <- 316        0.10487

 Excited State   3:      Singlet-A      2.2148 eV  559.79 nm  f=0.0769  <S**2>=0.000
     309 -> 313        0.16182
     310 -> 314        0.63462
     311 -> 316       -0.24929

 Excited State   4:      Singlet-A      2.2224 eV  557.89 nm  f=0.2108  <S**2>=0.000
     309 -> 313        0.63031
     310 -> 314       -0.16170
     312 -> 315       -0.25314

 Excited State   5:      Singlet-A      2.8827 eV  430.09 nm  f=0.0000  <S**2>=0.000
     311 -> 313        0.70700

 The electronic state is 1-A.
 Alpha  occ. eigenvalues --  -46.87846 -46.87810 -19.23969 -19.23963 -19.20520
 Alpha  occ. eigenvalues --  -19.19532 -19.19268 -19.19160 -19.18076 -19.17946
 Alpha  occ. eigenvalues --  -14.42541 -14.42058 -14.41515 -14.41504 -14.40155
 Alpha  occ. eigenvalues --  -14.40032 -14.39212 -14.38677 -10.38920 -10.38886
 Alpha  occ. eigenvalues --  -10.37278 -10.35362 -10.34192 -10.34152 -10.31566
 Alpha  occ. eigenvalues --  -10.31458 -10.31376 -10.31181 -10.31111 -10.31042
 Alpha  occ. eigenvalues --  -10.31017 -10.30994 -10.30704 -10.30680 -10.30633
 Alpha  occ. eigenvalues --  -10.30562 -10.30504 -10.30351 -10.29893 -10.29570
 Alpha  occ. eigenvalues --  -10.29058 -10.28863 -10.28763 -10.28742 -10.28726
 Alpha  occ. eigenvalues --  -10.28334 -10.28166 -10.28142 -10.28005 -10.28001
 Alpha  occ. eigenvalues --  -10.27958 -10.27895 -10.27770 -10.27718 -10.27681
 Alpha  occ. eigenvalues --  -10.27636 -10.27635 -10.27626 -10.27598 -10.27597
 Alpha  occ. eigenvalues --  -10.27500 -10.27388 -10.27339 -10.27334 -10.27279
 Alpha  occ. eigenvalues --  -10.27204 -10.27130 -10.26800 -10.26730 -10.26677
 Alpha  occ. eigenvalues --  -10.26371 -10.26263 -10.26250 -10.26192 -10.25936
 Alpha  occ. eigenvalues --  -10.25887 -10.25786 -10.25773 -10.25732 -10.25712
 Alpha  occ. eigenvalues --  -10.25711 -10.25640 -10.25623 -10.24573 -10.24393
 Alpha  occ. eigenvalues --  -10.24226  -3.16575  -3.16542  -1.91486  -1.91453
 Alpha  occ. eigenvalues --   -1.90994  -1.90990  -1.90922  -1.90860  -1.14545
 Alpha  occ. eigenvalues --   -1.13265  -1.11016  -1.10526  -1.09620  -1.08481
 Alpha  occ. eigenvalues --   -1.06791  -1.05643  -1.05630  -1.05048  -1.04773
 Alpha  occ. eigenvalues --   -1.04191  -1.03819  -1.03245  -1.03206  -1.02291
 Alpha  occ. eigenvalues --   -0.92178  -0.91959  -0.89250  -0.89157  -0.88832
 Alpha  occ. eigenvalues --   -0.88632  -0.88330  -0.88281  -0.87637  -0.87359
 Alpha  occ. eigenvalues --   -0.87340  -0.87162  -0.86301  -0.86136  -0.84386
 Alpha  occ. eigenvalues --   -0.84182  -0.83709  -0.82868  -0.82810  -0.82609
 Alpha  occ. eigenvalues --   -0.82067  -0.81379  -0.80997  -0.80273  -0.80116
 Alpha  occ. eigenvalues --   -0.79877  -0.78669  -0.78630  -0.77282  -0.77144
 Alpha  occ. eigenvalues --   -0.76720  -0.76709  -0.75908  -0.75700  -0.75112
 Alpha  occ. eigenvalues --   -0.74933  -0.72991  -0.72859  -0.71479  -0.71221
 Alpha  occ. eigenvalues --   -0.69441  -0.69296  -0.68864  -0.68799  -0.67982
 Alpha  occ. eigenvalues --   -0.67847  -0.67158  -0.66665  -0.65637  -0.65136
 Alpha  occ. eigenvalues --   -0.65100  -0.64817  -0.64709  -0.64474  -0.64236
 Alpha  occ. eigenvalues --   -0.64052  -0.61297  -0.61237  -0.60679  -0.60228
 Alpha  occ. eigenvalues --   -0.59633  -0.59497  -0.59186  -0.59174  -0.58394
 Alpha  occ. eigenvalues --   -0.58063  -0.58024  -0.57667  -0.57645  -0.57213
 Alpha  occ. eigenvalues --   -0.56137  -0.55844  -0.55716  -0.55483  -0.54845
 Alpha  occ. eigenvalues --   -0.54831  -0.54485  -0.54049  -0.53858  -0.53736
 Alpha  occ. eigenvalues --   -0.53402  -0.53270  -0.53094  -0.53041  -0.52777
 Alpha  occ. eigenvalues --   -0.52705  -0.52380  -0.52360  -0.52233  -0.52182
 Alpha  occ. eigenvalues --   -0.52113  -0.51937  -0.51846  -0.51449  -0.51253
 Alpha  occ. eigenvalues --   -0.50885  -0.50769  -0.50738  -0.50427  -0.50388
 Alpha  occ. eigenvalues --   -0.50020  -0.49939  -0.49762  -0.49544  -0.49501
 Alpha  occ. eigenvalues --   -0.49389  -0.49276  -0.49157  -0.49050  -0.48906
 Alpha  occ. eigenvalues --   -0.48851  -0.48585  -0.48541  -0.48439  -0.48245
 Alpha  occ. eigenvalues --   -0.48015  -0.47800  -0.47524  -0.47425  -0.47378
 Alpha  occ. eigenvalues --   -0.47091  -0.46997  -0.46921  -0.46802  -0.46575
 Alpha  occ. eigenvalues --   -0.46497  -0.46327  -0.46065  -0.45828  -0.45655
 Alpha  occ. eigenvalues --   -0.45610  -0.44989  -0.44929  -0.44913  -0.44688
 Alpha  occ. eigenvalues --   -0.44551  -0.44407  -0.44371  -0.44125  -0.44053
 Alpha  occ. eigenvalues --   -0.43993  -0.43969  -0.43755  -0.43490  -0.43366
 Alpha  occ. eigenvalues --   -0.43269  -0.43236  -0.43017  -0.42903  -0.42731
 Alpha  occ. eigenvalues --   -0.42523  -0.42487  -0.42370  -0.42114  -0.41846
 Alpha  occ. eigenvalues --   -0.41842  -0.41688  -0.41449  -0.41378  -0.41178
 Alpha  occ. eigenvalues --   -0.41073  -0.41018  -0.40702  -0.40566  -0.40275
 Alpha  occ. eigenvalues --   -0.40099  -0.40015  -0.39721  -0.39322  -0.39232
 Alpha  occ. eigenvalues --   -0.38514  -0.38242  -0.38105  -0.37646  -0.37612
 Alpha  occ. eigenvalues --   -0.37094  -0.36848  -0.36673  -0.36193  -0.36022
 Alpha  occ. eigenvalues --   -0.35672  -0.35605  -0.34484  -0.34242  -0.33981
 Alpha  occ. eigenvalues --   -0.33698  -0.33366  -0.33295  -0.32235  -0.31542
 Alpha  occ. eigenvalues --   -0.31196  -0.30963  -0.30549  -0.30378  -0.30225
 Alpha  occ. eigenvalues --   -0.29637  -0.29602  -0.29350  -0.24056  -0.23940
 Alpha  occ. eigenvalues --   -0.21434  -0.21414
 Alpha virt. eigenvalues --   -0.08928  -0.08879  -0.01523  -0.01300  -0.00059
 Alpha virt. eigenvalues --    0.00338   0.02431   0.02523   0.03447   0.03873
 Alpha virt. eigenvalues --    0.04750   0.04876   0.05283   0.05359   0.06074

 Mulliken charges:
               1
     1  Mg   0.837962
     2  C   -0.064200
     3  C   -0.101676
     4  C   -0.064909
     5  C   -0.069137
     6  N   -0.258955
     7  C   -0.042467
     8  C    0.004795
     9  C   -0.089317
    10  C    0.049952
    11  C    0.062715
    12  C    0.057771
    13  C   -0.049744
    14  H    0.022059
    15  N   -0.445177
    16  C    0.218645
    17  C   -0.136255
    18  C    0.001176
    19  C    0.123403
    20  C    0.099306
    21  C   -0.029053
    22  O   -0.193967
    23  C    0.055207
    24  N   -0.251950
    25  C    0.025490
    26  C   -0.042224
    27  C    0.006419
    28  C    0.003651
    29  C    0.061086
    30  C    0.040932
    31  C    0.012861
    32  N   -0.354161
    33  C    0.120136
    34  C   -0.140682
    35  C   -0.036289
    36  C    0.156031
    37  C    0.107101
    38  C    0.042646
    39  O   -0.174891
    40  C   -0.012651
    41  C    0.224431
    42  O   -0.231691
    43  O   -0.374848
    44  C    0.182213
    45  H   -0.020707
    46  H    0.005374
    47  H   -0.024075
    48  H    0.020368
    49  H    0.013522
    50  H    0.012887
    51  H    0.028720
    52  H    0.000736
    53  H    0.000511
    54  H    0.001478
    55  H    0.025841
    56  H    0.043707
    57  H    0.040855
    58  H    0.027468
    59  H    0.006694
    60  H    0.030709
    61  H    0.029074
    62  H    0.018195
    63  H    0.021648
    64  H    0.001265
    65  H    0.008232
    66  H    0.022803
    67  H    0.031416
    68  H    0.001425
    69  H    0.002205
    70  H    0.015175
    71  H    0.031498
    72  H    0.007696
    73  H    0.030737
    74  H    0.017772
    75  H    0.040123
    76  H    0.041712
    77  H    0.040578
    78  H    0.037744
    79  H    0.034871
    80  Mg   0.842411
    81  C   -0.021690
    82  C   -0.078666
    83  C   -0.075095
    84  C   -0.111337
    85  N   -0.243032
    86  C   -0.062108
    87  C   -0.047328
    88  C   -0.052434
    89  C    0.015653
    90  C    0.105878
    91  C    0.057321
    92  C   -0.053882
    93  H    0.023837
    94  N   -0.393580
    95  C    0.179584
    96  C   -0.141632
    97  C   -0.075145
    98  C    0.104602
    99  C    0.096212
   100  C    0.057897
   101  O   -0.196785
   102  C    0.033358
   103  N   -0.301799
   104  C    0.062627
   105  C   -0.047776
   106  C    0.014826
   107  C    0.029758
   108  C    0.068804
   109  C    0.044581
   110  C    0.006313
   111  N   -0.283313
   112  C    0.112398
   113  C   -0.165627
   114  C    0.022653
   115  C    0.067194
   116  C    0.123676
   117  C    0.018802
   118  O   -0.167083
   119  C    0.053293
   120  C    0.179927
   121  O   -0.224131
   122  O   -0.371305
   123  C    0.186932
   124  H   -0.022518
   125  H   -0.009291
   126  H   -0.031845
   127  H   -0.002112
   128  H   -0.023028
   129  H    0.012603
   130  H    0.048880
   131  H    0.014533
   132  H    0.011052
   133  H    0.016251
   134  H    0.022627
   135  H    0.029894
   136  H    0.017630
   137  H    0.042137
   138  H    0.008665
   139  H    0.038431
   140  H    0.029246
   141  H    0.060150
   142  H    0.009211
   143  H    0.004613
   144  H    0.017491
   145  H    0.022910
   146  H    0.019515
   147  H    0.008960
   148  H    0.003429
   149  H   -0.003686
   150  H    0.027564
   151  H    0.016956
   152  H   -0.005721
   153  H    0.044502
   154  H    0.023562
   155  H    0.036570
   156  H    0.044777
   157  H    0.039105
   158  H    0.032149
 Sum of Mulliken charges =  -0.00000

 Dipole moment (field-independent basis, Debye):
    X=              6.5632    Y=             -1.7268    Z=              8.2247  Tot=             10.6631
 Quadrupole moment (field-independent basis, Debye-Ang):
   XX=           -463.0178   YY=           -506.9329   ZZ=           -496.8967
   XY=             46.6343   XZ=             -5.4339   YZ=             45.3422

 Normal termination of Gaussian 16 at Thu Sep 16 07:42:41 2021.
