 Gaussian 16, Revision A.03,
 Gaussian 16:  ES64L-G16RevA.03 25-Dec-2016

 -----------------------------------
 #p cam-b3lyp/Def2SVP td=(nstates=5)
 -----------------------------------

 --------------------------------
 TDDFT excited states in gaussian
 --------------------------------
 Symbolic Z-matrix:
 Charge =  0 Multiplicity = 1

                         Standard orientation:
 ---------------------------------------------------------------------
 Center     Atomic      Atomic             Coordinates (Angstroms)
 Number     Number       Type             X           Y           Z
 ---------------------------------------------------------------------
      1         12           0      -25.982903    0.461509   -0.591791
      2          6           0      -24.872428   -2.121682    1.472692
      3          6           0      -25.879660    2.568463    1.982498
      4          6           0      -28.243825    2.410342   -2.257739
      5          6           0      -26.122367   -1.793947   -3.243155
      6          7           0      -25.270028    0.278154    1.479590
      7          6           0      -24.860875   -0.840276    2.066017
      8          6           0      -24.329398   -0.497015    3.504576
      9          6           0      -24.769153    0.977358    3.670599
     10          6           0      -25.370661    1.317356    2.310275
     11          6           0      -25.936423    1.194163    4.756422
     12          6           0      -22.756195   -0.672332    3.708598
     13          6           0      -22.421432   -1.291224    5.022300
     14          1           0      -21.396413   -0.623262    5.925850
     15          7           0      -26.901755    2.252825   -0.186713
     16          6           0      -26.710393    2.999578    0.945513
     17          6           0      -27.263525    4.342263    0.720165
     18          6           0      -27.952524    4.281767   -0.523273
     19          6           0      -27.747180    2.908397   -1.012652
     20          6           0      -27.172245    5.491615    1.774061
     21          6           0      -28.817453    5.380181   -1.211884
     22          8           0      -29.374168    5.239398   -2.294982
     23          6           0      -28.954502    6.687144   -0.526814
     24          7           0      -27.030589    0.332191   -2.401448
     25          6           0      -27.986551    1.226294   -2.892818
     26          6           0      -28.673923    0.615909   -4.142166
     27          6           0      -27.551759   -0.349147   -4.727183
     28          6           0      -26.860249   -0.595039   -3.356247
     29          6           0      -30.038662   -0.034665   -3.829782
     30          6           0      -26.593239    0.236695   -5.724689
     31          6           0      -25.449752    1.101772   -5.284584
     32          7           0      -25.412333   -1.488307   -0.963678
     33          6           0      -25.557044   -2.300182   -2.064843
     34          6           0      -25.040030   -3.649219   -1.823710
     35          6           0      -24.837395   -3.675652   -0.370738
     36          6           0      -25.097105   -2.321603    0.075792
     37          6           0      -25.017951   -4.742804   -2.763725
     38          6           0      -24.486962   -4.504675    0.776098
     39          8           0      -24.277696   -5.653966    0.889988
     40          6           0      -24.421471   -3.479990    2.025043
     41          6           0      -25.154811   -3.951802    3.255150
     42          8           0      -26.322225   -3.688683    3.528256
     43          8           0      -24.258763   -4.647779    4.065931
     44          6           0      -24.764565   -5.173912    5.346731
     45          1           0      -25.746629    3.430765    2.639701
     46          1           0      -28.974758    3.074999   -2.723763
     47          1           0      -26.102846   -2.418428   -4.138347
     48          1           0      -24.844133   -1.065645    4.279451
     49          1           0      -23.995132    1.681176    3.976538
     50          1           0      -25.445353    1.412914    5.704848
     51          1           0      -26.554735    0.319712    4.957578
     52          1           0      -26.523791    2.059084    4.445961
     53          1           0      -22.234416    0.283679    3.662062
     54          1           0      -22.244857   -1.255100    2.942297
     55          1           0      -21.947968   -2.229982    4.736084
     56          1           0      -23.242951   -1.549354    5.689976
     57          1           0      -28.065687    5.395957    2.390442
     58          1           0      -27.059979    6.465918    1.297813
     59          1           0      -26.429621    5.321217    2.554257
     60          1           0      -29.092512    6.756140    0.552096
     61          1           0      -29.791498    7.238330   -0.954736
     62          1           0      -28.177598    7.362047   -0.887150
     63          1           0      -28.789162    1.470929   -4.807703
     64          1           0      -27.972165   -1.249461   -5.174929
     65          1           0      -30.170447   -1.069366   -4.146272
     66          1           0      -30.891597    0.593276   -4.088235
     67          1           0      -30.180875   -0.094740   -2.750914
     68          1           0      -27.065234    0.846280   -6.494279
     69          1           0      -26.144657   -0.590677   -6.274723
     70          1           0      -24.630113    0.385843   -5.226110
     71          1           0      -25.545127    1.551820   -4.296180
     72          1           0      -25.264231    1.864339   -6.041696
     73          1           0      -24.108151   -5.301848   -2.544264
     74          1           0      -24.938097   -4.307181   -3.759386
     75          1           0      -25.890631   -5.379437   -2.621399
     76          1           0      -23.370817   -3.382048    2.298273
     77          1           0      -25.656460   -5.758113    5.118561
     78          1           0      -25.067902   -4.361880    6.007036
     79          1           0      -24.116628   -5.791586    5.968848
     80         12           0       26.356475   -0.594155    0.237167
     81          6           0       24.925408    2.506732    0.752898
     82          6           0       23.205721   -1.840504   -0.370855
     83          6           0       27.804976   -3.510670   -0.855989
     84          6           0       29.483133    0.752979    0.747491
     85          7           0       24.346806    0.266370   -0.000221
     86          6           0       24.016132    1.563541    0.339024
     87          6           0       22.515937    1.818130    0.218977
     88          6           0       21.960389    0.345394    0.195694
     89          6           0       23.225207   -0.439837   -0.119325
     90          6           0       21.139982   -0.149111    1.471870
     91          6           0       22.057788    2.724307   -0.967988
     92          6           0       21.033190    3.785823   -0.627481
     93          1           0       19.674644    3.489977   -1.243624
     94          7           0       25.586454   -2.373995   -0.509321
     95          6           0       24.296840   -2.698791   -0.654559
     96          6           0       24.158236   -4.076164   -1.094846
     97          6           0       25.405530   -4.651473   -1.271591
     98          6           0       26.353522   -3.505569   -0.930191
     99          6           0       22.735283   -4.740605   -1.413897
    100          6           0       25.715337   -6.138536   -1.652581
    101          8           0       24.749637   -6.909653   -1.916042
    102          6           0       27.101447   -6.647930   -1.761377
    103          7           0       28.435881   -1.242926   -0.266576
    104          6           0       28.760410   -2.490690   -0.515865
    105          6           0       30.235104   -2.766992   -0.310032
    106          6           0       30.886739   -1.410495    0.124557
    107          6           0       29.539249   -0.559073    0.298959
    108          6           0       30.691137   -4.062624    0.433996
    109          6           0       31.909306   -0.691386   -0.802324
    110          6           0       32.736909    0.348581   -0.075736
    111          7           0       27.087637    1.291502    0.661222
    112          6           0       28.415402    1.694637    0.933587
    113          6           0       28.380893    3.069022    1.353507
    114          6           0       27.018108    3.454168    1.339534
    115          6           0       26.326935    2.339650    0.872513
    116          6           0       29.532302    3.862634    1.952896
    117          6           0       26.186709    4.515510    1.624913
    118          8           0       26.340220    5.667443    1.927489
    119          6           0       24.744360    3.999528    1.108987
    120          6           0       24.573670    4.684355   -0.246161
    121          8           0       25.072114    4.319483   -1.293540
    122          8           0       23.769210    5.792361   -0.034183
    123          6           0       23.564103    6.661297   -1.188532
    124          1           0       22.233822   -2.337987   -0.378155
    125          1           0       28.197382   -4.468974   -1.201683
    126          1           0       30.385218    1.276052    1.071628
    127          1           0       22.184603    2.258024    1.159174
    128          1           0       21.405755    0.238577   -0.737257
    129          1           0       21.265153   -1.229804    1.405418
    130          1           0       20.060363   -0.022814    1.387075
    131          1           0       21.448234    0.247306    2.439210
    132          1           0       21.635887    2.009574   -1.674862
    133          1           0       22.839634    3.136626   -1.605470
    134          1           0       21.422954    4.738154   -0.987718
    135          1           0       20.863231    3.873279    0.445811
    136          1           0       21.877438   -4.075062   -1.308852
    137          1           0       22.566872   -5.608571   -0.775547
    138          1           0       22.620471   -5.023755   -2.459280
    139          1           0       27.606639   -6.534932   -0.802671
    140          1           0       27.611503   -6.241770   -2.634962
    141          1           0       26.979087   -7.729724   -1.797568
    142          1           0       30.819700   -2.900299   -1.220527
    143          1           0       31.198757   -1.413099    1.169208
    144          1           0       29.805495   -4.696307    0.497924
    145          1           0       31.197059   -3.872580    1.381283
    146          1           0       31.421915   -4.658836   -0.112633
    147          1           0       31.330050   -0.292039   -1.634731
    148          1           0       32.504931   -1.502213   -1.221593
    149          1           0       33.713150    0.386104   -0.559752
    150          1           0       32.909813    0.151502    0.982928
    151          1           0       32.307441    1.333661   -0.258328
    152          1           0       29.232418    4.816767    2.386351
    153          1           0       30.277446    4.002292    1.170798
    154          1           0       30.028547    3.302240    2.745314
    155          1           0       23.970225    4.168741    1.858074
    156          1           0       24.511699    7.121098   -1.469634
    157          1           0       22.790762    7.405971   -1.003229
    158          1           0       23.268747    6.058903   -2.047131
 ---------------------------------------------------------------------

 SCF Done:  E(RCAM-B3LYP) =  -4069.81737105     A.U. after   19 cycles

 Excitation energies and oscillator strengths:

 Excited State   1:      Singlet-A      1.6811 eV  737.52 nm  f=0.3777  <S**2>=0.000
     310 -> 316       -0.17703
     312 -> 313        0.68654
     310 <- 316       -0.10856
 This state for optimization and/or second-order correction.
 Total Energy, E(TD-HF/TD-DFT) =  -4069.75559176
 Copying the excited state density for this state as the 1-particle RhoCI density.

 Excited State   2:      Singlet-A      1.8652 eV  664.72 nm  f=0.3722  <S**2>=0.000
     309 -> 315        0.14281
     311 -> 314        0.68808

 Excited State   3:      Singlet-A      2.2559 eV  549.59 nm  f=0.1055  <S**2>=0.000
     310 -> 313        0.63271
     312 -> 316        0.30597

 Excited State   4:      Singlet-A      2.2638 eV  547.68 nm  f=0.1273  <S**2>=0.000
     309 -> 314        0.64675
     311 -> 315       -0.24682
     311 -> 317        0.10324

 Excited State   5:      Singlet-A      3.1746 eV  390.55 nm  f=0.0000  <S**2>=0.000
     312 -> 314        0.70711

 The electronic state is 1-A.
 Alpha  occ. eigenvalues --  -46.89410 -46.87924 -19.25024 -19.24531 -19.20232
 Alpha  occ. eigenvalues --  -19.20104 -19.19885 -19.19691 -19.19187 -19.17729
 Alpha  occ. eigenvalues --  -14.42321 -14.42198 -14.42058 -14.41427 -14.40561
 Alpha  occ. eigenvalues --  -14.39288 -14.39230 -14.38498 -10.39696 -10.39100
 Alpha  occ. eigenvalues --  -10.37038 -10.35652 -10.35526 -10.33410 -10.33085
 Alpha  occ. eigenvalues --  -10.32426 -10.31804 -10.31730 -10.31337 -10.31157
 Alpha  occ. eigenvalues --  -10.31090 -10.30595 -10.30590 -10.30363 -10.30006
 Alpha  occ. eigenvalues --  -10.29889 -10.29813 -10.29804 -10.29753 -10.29480
 Alpha  occ. eigenvalues --  -10.29392 -10.29173 -10.28784 -10.28668 -10.28424
 Alpha  occ. eigenvalues --  -10.28399 -10.28384 -10.28353 -10.28310 -10.28303
 Alpha  occ. eigenvalues --  -10.28295 -10.28222 -10.28072 -10.28068 -10.27913
 Alpha  occ. eigenvalues --  -10.27671 -10.27564 -10.27542 -10.27527 -10.27430
 Alpha  occ. eigenvalues --  -10.27242 -10.27201 -10.27164 -10.27083 -10.26964
 Alpha  occ. eigenvalues --  -10.26947 -10.26927 -10.26894 -10.26865 -10.26790
 Alpha  occ. eigenvalues --  -10.26765 -10.26708 -10.26454 -10.26125 -10.26090
 Alpha  occ. eigenvalues --  -10.26057 -10.25954 -10.25935 -10.25816 -10.25810
 Alpha  occ. eigenvalues --  -10.25572 -10.25543 -10.25379 -10.25304 -10.24553
 Alpha  occ. eigenvalues --  -10.23111  -3.17849  -3.16626  -1.92732  -1.92310
 Alpha  occ. eigenvalues --   -1.92152  -1.91530  -1.91058  -1.90954  -1.15473
 Alpha  occ. eigenvalues --   -1.15159  -1.12949  -1.10163  -1.09811  -1.09153
 Alpha  occ. eigenvalues --   -1.07918  -1.07456  -1.05185  -1.04595  -1.03850
 Alpha  occ. eigenvalues --   -1.03583  -1.03202  -1.02873  -1.02558  -1.02141
 Alpha  occ. eigenvalues --   -0.91874  -0.91572  -0.89190  -0.89036  -0.88637
 Alpha  occ. eigenvalues --   -0.88507  -0.88024  -0.87978  -0.87187  -0.87067
 Alpha  occ. eigenvalues --   -0.86902  -0.86642  -0.86310  -0.85834  -0.84514
 Alpha  occ. eigenvalues --   -0.84183  -0.83643  -0.83600  -0.83217  -0.82545
 Alpha  occ. eigenvalues --   -0.82070  -0.81870  -0.81003  -0.80718  -0.80369
 Alpha  occ. eigenvalues --   -0.80231  -0.78249  -0.77653  -0.77275  -0.77171
 Alpha  occ. eigenvalues --   -0.76752  -0.76737  -0.75853  -0.75341  -0.75152
 Alpha  occ. eigenvalues --   -0.74868  -0.72403  -0.72250  -0.71705  -0.71472
 Alpha  occ. eigenvalues --   -0.69734  -0.69231  -0.69125  -0.68501  -0.67916
 Alpha  occ. eigenvalues --   -0.67756  -0.67365  -0.66762  -0.65711  -0.65625
 Alpha  occ. eigenvalues --   -0.65488  -0.64688  -0.64619  -0.64242  -0.64101
 Alpha  occ. eigenvalues --   -0.64052  -0.61806  -0.61715  -0.60152  -0.59981
 Alpha  occ. eigenvalues --   -0.59598  -0.59483  -0.59038  -0.58879  -0.58472
 Alpha  occ. eigenvalues --   -0.58106  -0.57852  -0.57770  -0.57400  -0.57236
 Alpha  occ. eigenvalues --   -0.56447  -0.55810  -0.55529  -0.55500  -0.55352
 Alpha  occ. eigenvalues --   -0.55052  -0.54841  -0.54194  -0.54102  -0.53933
 Alpha  occ. eigenvalues --   -0.53741  -0.53572  -0.53382  -0.53346  -0.53170
 Alpha  occ. eigenvalues --   -0.52969  -0.52725  -0.52516  -0.52171  -0.52020
 Alpha  occ. eigenvalues --   -0.51778  -0.51627  -0.51597  -0.51386  -0.51242
 Alpha  occ. eigenvalues --   -0.51039  -0.50814  -0.50540  -0.50410  -0.50180
 Alpha  occ. eigenvalues --   -0.50165  -0.50075  -0.50019  -0.49822  -0.49621
 Alpha  occ. eigenvalues --   -0.49528  -0.49462  -0.49152  -0.49038  -0.48717
 Alpha  occ. eigenvalues --   -0.48610  -0.48552  -0.48320  -0.48227  -0.47994
 Alpha  occ. eigenvalues --   -0.47804  -0.47593  -0.47374  -0.47187  -0.46967
 Alpha  occ. eigenvalues --   -0.46797  -0.46598  -0.46558  -0.46283  -0.46199
 Alpha  occ. eigenvalues --   -0.46143  -0.46101  -0.45970  -0.45752  -0.45509
 Alpha  occ. eigenvalues --   -0.45229  -0.45201  -0.45200  -0.45056  -0.44954
 Alpha  occ. eigenvalues --   -0.44890  -0.44677  -0.44638  -0.44393  -0.44288
 Alpha  occ. eigenvalues --   -0.44169  -0.43954  -0.43733  -0.43598  -0.43419
 Alpha  occ. eigenvalues --   -0.43329  -0.43254  -0.43094  -0.42806  -0.42716
 Alpha  occ. eigenvalues --   -0.42668  -0.42564  -0.42485  -0.42188  -0.42048
 Alpha  occ. eigenvalues --   -0.41886  -0.41613  -0.41578  -0.41533  -0.41370
 Alpha  occ. eigenvalues --   -0.41190  -0.40782  -0.40502  -0.40418  -0.40239
 Alpha  occ. eigenvalues --   -0.40165  -0.39875  -0.39279  -0.39135  -0.38985
 Alpha  occ. eigenvalues --   -0.38667  -0.38071  -0.38069  -0.37682  -0.37348
 Alpha  occ. eigenvalues --   -0.36982  -0.36592  -0.36536  -0.36496  -0.36337
 Alpha  occ. eigenvalues --   -0.35915  -0.35345  -0.34466  -0.34430  -0.34299
 Alpha  occ. eigenvalues --   -0.34288  -0.33088  -0.32812  -0.32450  -0.31889
 Alpha  occ. eigenvalues --   -0.31412  -0.31225  -0.31018  -0.30867  -0.30029
 Alpha  occ. eigenvalues --   -0.29670  -0.29561  -0.29110  -0.24077  -0.23989
 Alpha  occ. eigenvalues --   -0.21494  -0.20783
 Alpha virt. eigenvalues --   -0.08469  -0.08459  -0.01799  -0.01385   0.00107
 Alpha virt. eigenvalues --    0.00397   0.01797   0.01984   0.02415   0.02786
 Alpha virt. eigenvalues --    0.04560   0.05165   0.05576   0.05824   0.06059

 Mulliken charges:
               1
     1  Mg   0.845375
     2  C    0.027413
     3  C   -0.076833
     4  C   -0.074886
     5  C   -0.103113
     6  N   -0.243940
     7  C   -0.032160
     8  C    0.000722
     9  C   -0.076729
    10  C    0.082362
    11  C    0.038843
    12  C    0.070153
    13  C   -0.093373
    14  H    0.009693
    15  N   -0.370837
    16  C    0.094389
    17  C   -0.139769
    18  C   -0.061985
    19  C    0.101679
    20  C    0.093661
    21  C    0.039040
    22  O   -0.200707
    23  C    0.041872
    24  N   -0.293966
    25  C    0.034477
    26  C    0.001863
    27  C   -0.010273
    28  C    0.025373
    29  C    0.092687
    30  C    0.017564
    31  C    0.022130
    32  N   -0.363042
    33  C    0.153946
    34  C   -0.162533
    35  C   -0.040008
    36  C    0.088740
    37  C    0.123005
    38  C    0.056388
    39  O   -0.102379
    40  C   -0.071473
    41  C    0.218777
    42  O   -0.220140
    43  O   -0.352128
    44  C    0.187111
    45  H   -0.036729
    46  H   -0.006448
    47  H   -0.034615
    48  H    0.020335
    49  H    0.017633
    50  H    0.008620
    51  H    0.029596
    52  H    0.017110
    53  H    0.013828
    54  H    0.012989
    55  H    0.031506
    56  H    0.030121
    57  H    0.034925
    58  H    0.042256
    59  H    0.009176
    60  H    0.038128
    61  H    0.012070
    62  H    0.038787
    63  H   -0.003741
    64  H   -0.003988
    65  H    0.017240
    66  H    0.021808
    67  H    0.010550
    68  H    0.001288
    69  H   -0.002069
    70  H    0.005375
    71  H    0.031863
    72  H    0.016197
    73  H    0.033345
    74  H    0.015306
    75  H    0.051210
    76  H    0.046722
    77  H    0.036672
    78  H    0.023055
    79  H    0.042892
    80  Mg   0.828948
    81  C   -0.030259
    82  C   -0.118200
    83  C   -0.095988
    84  C   -0.030487
    85  N   -0.261075
    86  C   -0.046086
    87  C   -0.037691
    88  C   -0.022700
    89  C    0.032239
    90  C    0.082828
    91  C    0.069548
    92  C   -0.053096
    93  H    0.008454
    94  N   -0.381673
    95  C    0.167555
    96  C   -0.137036
    97  C   -0.024668
    98  C    0.115522
    99  C    0.116995
   100  C    0.007373
   101  O   -0.226553
   102  C    0.070457
   103  N   -0.264383
   104  C    0.101574
   105  C   -0.027372
   106  C   -0.054113
   107  C    0.007699
   108  C    0.065018
   109  C    0.060308
   110  C    0.025632
   111  N   -0.347629
   112  C    0.034461
   113  C   -0.140314
   114  C    0.052350
   115  C    0.114914
   116  C    0.104368
   117  C   -0.012347
   118  O   -0.157326
   119  C   -0.046266
   120  C    0.232203
   121  O   -0.211952
   122  O   -0.335442
   123  C    0.185506
   124  H   -0.026002
   125  H   -0.042717
   126  H   -0.041107
   127  H   -0.000724
   128  H    0.006110
   129  H    0.004934
   130  H    0.021615
   131  H    0.031774
   132  H   -0.004019
   133  H    0.028905
   134  H    0.025650
   135  H    0.027213
   136  H   -0.002847
   137  H    0.041090
   138  H    0.035888
   139  H    0.040806
   140  H    0.068741
   141  H    0.028213
   142  H    0.010238
   143  H    0.006687
   144  H    0.011347
   145  H    0.019372
   146  H    0.006941
   147  H    0.016833
   148  H    0.001354
   149  H    0.007787
   150  H    0.022106
   151  H    0.031323
   152  H    0.034192
   153  H    0.016139
   154  H    0.019410
   155  H    0.024837
   156  H    0.038235
   157  H    0.041658
   158  H    0.026718
 Sum of Mulliken charges =  -0.00000

 Dipole moment (field-independent basis, Debye):
    X=              3.1140    Y=             -1.0831    Z=              1.5470  Tot=              3.6418
 Quadrupole moment (field-independent basis, Debye-Ang):
   XX=           -502.3312   YY=           -545.8820   ZZ=           -489.4902
   XY=           -192.4100   XZ=            -15.7065   YZ=              0.5547

 Normal termination of Gaussian 16 at Tue Aug 31 23:49:29 2021.
