 Gaussian 16, Revision A.03,
 Gaussian 16:  ES64L-G16RevA.03 25-Dec-2016

 -----------------------------------
 #p cam-b3lyp/Def2SVP td=(nstates=5)
 -----------------------------------

 --------------------------------
 TDDFT excited states in gaussian
 --------------------------------
 Symbolic Z-matrix:
 Charge =  0 Multiplicity = 1

                         Standard orientation:
 ---------------------------------------------------------------------
 Center     Atomic      Atomic             Coordinates (Angstroms)
 Number     Number       Type             X           Y           Z
 ---------------------------------------------------------------------
      1         12           0       22.469849   -0.750302    0.367117
      2          6           0       21.926648    2.141404   -1.819288
      3          6           0       22.193655    1.490865    3.046075
      4          6           0       23.296275   -3.193606    2.360824
      5          6           0       22.521702   -2.783673   -2.394159
      6          7           0       22.314203    1.546420    0.577947
      7          6           0       21.971658    2.536001   -0.436101
      8          6           0       21.810732    3.967265    0.119600
      9          6           0       22.124651    3.672923    1.699258
     10          6           0       22.240734    2.141571    1.829843
     11          6           0       23.340731    4.408000    2.228522
     12          6           0       20.406519    4.540939   -0.239019
     13          6           0       20.018495    5.792046    0.490127
     14          1           0       19.369250    6.930603   -0.264751
     15          7           0       22.745772   -0.867808    2.450706
     16          6           0       22.580089    0.153056    3.393559
     17          6           0       22.806636   -0.376392    4.737079
     18          6           0       23.133347   -1.783799    4.565611
     19          6           0       23.076159   -2.042210    3.079321
     20          6           0       22.619511    0.436833    6.070172
     21          6           0       23.516360   -2.831509    5.547748
     22          8           0       23.739378   -4.003036    5.272909
     23          6           0       23.535715   -2.520998    6.987046
     24          7           0       22.754760   -2.670393    0.058740
     25          6           0       23.211617   -3.486898    1.010003
     26          6           0       23.436687   -4.930091    0.501220
     27          6           0       22.771703   -4.864718   -0.858031
     28          6           0       22.724516   -3.313001   -1.140120
     29          6           0       24.908438   -5.320096    0.427915
     30          6           0       21.430363   -5.488684   -1.144213
     31          6           0       20.284946   -4.892918   -0.353891
     32          7           0       22.371035   -0.429886   -1.688442
     33          6           0       22.307504   -1.409625   -2.695680
     34          6           0       22.155380   -0.756437   -3.972418
     35          6           0       21.936284    0.595289   -3.601753
     36          6           0       22.088261    0.761867   -2.212005
     37          6           0       22.030177   -1.376305   -5.333533
     38          6           0       21.576520    1.910961   -4.215502
     39          8           0       21.243469    2.205544   -5.383337
     40          6           0       21.601277    2.920929   -3.070392
     41          6           0       22.563587    4.063773   -3.400817
     42          8           0       23.818449    4.052951   -3.571350
     43          8           0       21.840089    5.218220   -3.344555
     44          6           0       22.606445    6.467598   -3.553386
     45          1           0       21.908011    2.143873    3.872207
     46          1           0       23.636059   -4.010350    3.001007
     47          1           0       22.552560   -3.364954   -3.318196
     48          1           0       22.533957    4.567215   -0.432685
     49          1           0       21.230713    3.895417    2.281935
     50          1           0       23.028471    5.036038    3.063378
     51          1           0       23.692777    5.041251    1.414951
     52          1           0       24.255858    3.833234    2.369308
     53          1           0       19.716771    3.701857   -0.141584
     54          1           0       20.388696    4.767331   -1.305171
     55          1           0       20.817913    6.347934    0.979504
     56          1           0       19.246518    5.553892    1.221296
     57          1           0       21.815512   -0.078871    6.596073
     58          1           0       22.322738    1.473052    5.908783
     59          1           0       23.570407    0.372242    6.599215
     60          1           0       23.998255   -1.563009    7.225456
     61          1           0       24.129170   -3.329354    7.412765
     62          1           0       22.483636   -2.383710    7.234955
     63          1           0       22.940498   -5.596336    1.207013
     64          1           0       23.372721   -5.343692   -1.631499
     65          1           0       25.009724   -6.348551    0.772577
     66          1           0       25.518777   -4.680402    1.064502
     67          1           0       25.233066   -5.371368   -0.611981
     68          1           0       21.530469   -6.567151   -1.018738
     69          1           0       21.107984   -5.270716   -2.162244
     70          1           0       19.642499   -5.660457    0.076109
     71          1           0       19.609421   -4.301030   -0.971902
     72          1           0       20.594033   -4.268260    0.484278
     73          1           0       21.138658   -0.992575   -5.828958
     74          1           0       21.982821   -2.458930   -5.450669
     75          1           0       22.905418   -1.063323   -5.903211
     76          1           0       20.616850    3.385673   -3.008492
     77          1           0       22.813531    6.937115   -2.591960
     78          1           0       21.909468    6.978782   -4.217491
     79          1           0       23.502420    6.311418   -4.155534
     80         12           0      -21.942993   -0.817476   -0.143683
     81          6           0      -23.250528    2.008123    1.533008
     82          6           0      -20.070367    1.310469   -2.065713
     83          6           0      -21.231144   -3.379555   -2.117726
     84          6           0      -24.271745   -2.789771    1.570500
     85          7           0      -21.816656    1.424546   -0.357054
     86          6           0      -22.372798    2.350245    0.529810
     87          6           0      -21.718708    3.738450    0.321729
     88          6           0      -20.710802    3.488309   -0.858945
     89          6           0      -20.808259    1.960695   -1.126119
     90          6           0      -20.783451    4.434633   -2.044567
     91          6           0      -21.055296    4.375738    1.552582
     92          6           0      -21.576533    5.801534    1.881981
     93          1           0      -20.518341    6.879807    1.956356
     94          7           0      -20.725560   -0.995894   -1.814084
     95          6           0      -20.056341   -0.022735   -2.496380
     96          6           0      -19.229457   -0.670997   -3.486228
     97          6           0      -19.676245   -2.055490   -3.613531
     98          6           0      -20.598644   -2.150225   -2.492443
     99          6           0      -18.236177    0.150469   -4.460454
    100          6           0      -19.542011   -3.031280   -4.702128
    101          8           0      -19.938821   -4.161513   -4.721324
    102          6           0      -18.825415   -2.536756   -5.955107
    103          7           0      -22.832770   -2.774018   -0.371227
    104          6           0      -22.298138   -3.662157   -1.231795
    105          6           0      -22.830053   -5.070512   -0.956257
    106          6           0      -23.497414   -4.918291    0.420038
    107          6           0      -23.518226   -3.416708    0.599435
    108          6           0      -23.862895   -5.534877   -2.082860
    109          6           0      -22.544253   -5.599862    1.528403
    110          6           0      -21.240799   -4.825131    1.864599
    111          7           0      -23.407149   -0.569841    1.364612
    112          6           0      -24.237421   -1.450972    1.945526
    113          6           0      -25.031879   -0.746465    2.915596
    114          6           0      -24.645929    0.577396    2.820387
    115          6           0      -23.686276    0.677928    1.809374
    116          6           0      -26.101797   -1.282074    3.847893
    117          6           0      -24.977749    1.891100    3.378397
    118          8           0      -25.781585    2.372001    4.126426
    119          6           0      -24.033589    2.865903    2.626255
    120          6           0      -24.924548    3.850680    1.963855
    121          8           0      -25.812271    3.500042    1.227681
    122          8           0      -24.683845    5.160072    2.347884
    123          6           0      -25.723982    6.170443    1.959281
    124          1           0      -19.331353    1.972044   -2.522741
    125          1           0      -20.943400   -4.282576   -2.660856
    126          1           0      -24.868891   -3.348138    2.294486
    127          1           0      -22.469141    4.419924   -0.079491
    128          1           0      -19.708781    3.719092   -0.496762
    129          1           0      -21.719941    4.990410   -2.048119
    130          1           0      -20.649516    3.942671   -3.008295
    131          1           0      -20.006712    5.180085   -1.875919
    132          1           0      -19.977297    4.535264    1.528124
    133          1           0      -21.200216    3.752256    2.434543
    134          1           0      -22.227242    5.796851    2.756366
    135          1           0      -22.210964    6.116194    1.054353
    136          1           0      -17.270789   -0.355449   -4.453447
    137          1           0      -18.012578    1.175711   -4.167958
    138          1           0      -18.538331    0.320710   -5.493782
    139          1           0      -17.825346   -2.297974   -5.592485
    140          1           0      -19.381264   -1.650397   -6.259248
    141          1           0      -18.709517   -3.285200   -6.739620
    142          1           0      -22.044693   -5.817724   -0.837455
    143          1           0      -24.525970   -5.245807    0.573008
    144          1           0      -23.798526   -6.621788   -2.140095
    145          1           0      -23.719780   -5.175778   -3.102572
    146          1           0      -24.834683   -5.245324   -1.683299
    147          1           0      -22.275390   -6.626417    1.280178
    148          1           0      -23.033630   -5.560619    2.501676
    149          1           0      -20.520745   -5.364465    2.479106
    150          1           0      -21.526502   -3.930150    2.417537
    151          1           0      -20.786406   -4.523496    0.920296
    152          1           0      -25.741167   -2.008306    4.575985
    153          1           0      -26.798053   -1.782245    3.175230
    154          1           0      -26.672951   -0.490217    4.332471
    155          1           0      -23.488352    3.354605    3.433514
    156          1           0      -25.060750    6.964307    1.615769
    157          1           0      -26.312888    6.524394    2.805252
    158          1           0      -26.468839    5.929348    1.201298
 ---------------------------------------------------------------------

 SCF Done:  E(RCAM-B3LYP) =  -4069.82989304     A.U. after   19 cycles

 Excitation energies and oscillator strengths:

 Excited State   1:      Singlet-A      1.6630 eV  745.54 nm  f=0.3938  <S**2>=0.000
     309 -> 315       -0.16581
     312 -> 313        0.68883
     309 <- 315       -0.10534
 This state for optimization and/or second-order correction.
 Total Energy, E(TD-HF/TD-DFT) =  -4069.76877879
 Copying the excited state density for this state as the 1-particle RhoCI density.

 Excited State   2:      Singlet-A      1.7037 eV  727.75 nm  f=0.4075  <S**2>=0.000
     310 -> 316        0.17555
     311 -> 314        0.68729
     310 <- 316        0.10763

 Excited State   3:      Singlet-A      2.1713 eV  571.01 nm  f=0.1361  <S**2>=0.000
     309 -> 313        0.65260
     312 -> 315        0.25468

 Excited State   4:      Singlet-A      2.1918 eV  565.68 nm  f=0.1402  <S**2>=0.000
     310 -> 314        0.65688
     311 -> 316       -0.24833

 Excited State   5:      Singlet-A      3.1339 eV  395.62 nm  f=0.0000  <S**2>=0.000
     311 -> 313        0.70711

 The electronic state is 1-A.
 Alpha  occ. eigenvalues --  -46.89567 -46.87783 -19.25785 -19.25166 -19.19659
 Alpha  occ. eigenvalues --  -19.19629 -19.19301 -19.18792 -19.18494 -19.18421
 Alpha  occ. eigenvalues --  -14.42526 -14.42192 -14.42134 -14.41944 -14.39985
 Alpha  occ. eigenvalues --  -14.39795 -14.39253 -14.38889 -10.39980 -10.38816
 Alpha  occ. eigenvalues --  -10.35178 -10.34765 -10.34676 -10.34396 -10.32001
 Alpha  occ. eigenvalues --  -10.31936 -10.31830 -10.31551 -10.31528 -10.31398
 Alpha  occ. eigenvalues --  -10.31121 -10.30798 -10.30782 -10.30777 -10.30719
 Alpha  occ. eigenvalues --  -10.30643 -10.30497 -10.30263 -10.29986 -10.29651
 Alpha  occ. eigenvalues --  -10.29375 -10.29291 -10.29184 -10.28991 -10.28984
 Alpha  occ. eigenvalues --  -10.28906 -10.28847 -10.28699 -10.28680 -10.28626
 Alpha  occ. eigenvalues --  -10.28617 -10.28279 -10.28210 -10.28055 -10.28050
 Alpha  occ. eigenvalues --  -10.28020 -10.27914 -10.27788 -10.27560 -10.27536
 Alpha  occ. eigenvalues --  -10.27532 -10.27415 -10.27413 -10.27054 -10.27035
 Alpha  occ. eigenvalues --  -10.27011 -10.26996 -10.26866 -10.26670 -10.26576
 Alpha  occ. eigenvalues --  -10.26534 -10.26310 -10.26296 -10.26197 -10.25985
 Alpha  occ. eigenvalues --  -10.25978 -10.25925 -10.25853 -10.25760 -10.25748
 Alpha  occ. eigenvalues --  -10.25654 -10.25633 -10.25083 -10.25065 -10.24731
 Alpha  occ. eigenvalues --  -10.24589  -3.17969  -3.16523  -1.92852  -1.92438
 Alpha  occ. eigenvalues --   -1.92263  -1.91429  -1.90989  -1.90825  -1.16027
 Alpha  occ. eigenvalues --   -1.15712  -1.11693  -1.11089  -1.10412  -1.07830
 Alpha  occ. eigenvalues --   -1.07645  -1.05788  -1.05210  -1.05078  -1.04313
 Alpha  occ. eigenvalues --   -1.03857  -1.02851  -1.02298  -1.02022  -1.00634
 Alpha  occ. eigenvalues --   -0.92384  -0.92334  -0.89721  -0.88902  -0.88888
 Alpha  occ. eigenvalues --   -0.88836  -0.88726  -0.88242  -0.87765  -0.87350
 Alpha  occ. eigenvalues --   -0.87029  -0.86567  -0.86353  -0.85909  -0.84799
 Alpha  occ. eigenvalues --   -0.84435  -0.84080  -0.83521  -0.82969  -0.82531
 Alpha  occ. eigenvalues --   -0.82329  -0.81448  -0.81234  -0.80887  -0.80189
 Alpha  occ. eigenvalues --   -0.80105  -0.78550  -0.78402  -0.77444  -0.77301
 Alpha  occ. eigenvalues --   -0.76840  -0.76786  -0.76189  -0.75994  -0.75526
 Alpha  occ. eigenvalues --   -0.75247  -0.73127  -0.72791  -0.71980  -0.71788
 Alpha  occ. eigenvalues --   -0.70326  -0.69476  -0.69391  -0.69221  -0.68101
 Alpha  occ. eigenvalues --   -0.67664  -0.67324  -0.67171  -0.65508  -0.65345
 Alpha  occ. eigenvalues --   -0.65180  -0.65092  -0.64691  -0.64464  -0.64357
 Alpha  occ. eigenvalues --   -0.63851  -0.62302  -0.61969  -0.60435  -0.60257
 Alpha  occ. eigenvalues --   -0.59743  -0.59308  -0.59191  -0.59110  -0.58775
 Alpha  occ. eigenvalues --   -0.58351  -0.58149  -0.57747  -0.57560  -0.57429
 Alpha  occ. eigenvalues --   -0.56310  -0.56017  -0.56010  -0.55511  -0.55393
 Alpha  occ. eigenvalues --   -0.55329  -0.55246  -0.54833  -0.54600  -0.54319
 Alpha  occ. eigenvalues --   -0.54221  -0.53490  -0.53450  -0.53103  -0.52966
 Alpha  occ. eigenvalues --   -0.52756  -0.52694  -0.52526  -0.52463  -0.52158
 Alpha  occ. eigenvalues --   -0.52150  -0.51909  -0.51517  -0.51284  -0.51175
 Alpha  occ. eigenvalues --   -0.50862  -0.50788  -0.50761  -0.50415  -0.50215
 Alpha  occ. eigenvalues --   -0.50054  -0.49822  -0.49821  -0.49550  -0.49530
 Alpha  occ. eigenvalues --   -0.49405  -0.49342  -0.49057  -0.48870  -0.48840
 Alpha  occ. eigenvalues --   -0.48573  -0.48477  -0.48429  -0.48311  -0.48106
 Alpha  occ. eigenvalues --   -0.47963  -0.47746  -0.47598  -0.47594  -0.47492
 Alpha  occ. eigenvalues --   -0.47048  -0.47031  -0.46786  -0.46550  -0.46455
 Alpha  occ. eigenvalues --   -0.46182  -0.46156  -0.46122  -0.46029  -0.45921
 Alpha  occ. eigenvalues --   -0.45730  -0.45617  -0.45469  -0.45330  -0.45127
 Alpha  occ. eigenvalues --   -0.44972  -0.44563  -0.44541  -0.44383  -0.44210
 Alpha  occ. eigenvalues --   -0.44079  -0.44004  -0.43709  -0.43517  -0.43408
 Alpha  occ. eigenvalues --   -0.43353  -0.43211  -0.43079  -0.42922  -0.42662
 Alpha  occ. eigenvalues --   -0.42533  -0.42459  -0.42332  -0.42229  -0.42096
 Alpha  occ. eigenvalues --   -0.42009  -0.41879  -0.41784  -0.41487  -0.41392
 Alpha  occ. eigenvalues --   -0.41233  -0.40984  -0.40946  -0.40490  -0.40339
 Alpha  occ. eigenvalues --   -0.39983  -0.39757  -0.39258  -0.39133  -0.39106
 Alpha  occ. eigenvalues --   -0.38922  -0.38351  -0.38089  -0.37862  -0.37360
 Alpha  occ. eigenvalues --   -0.37157  -0.37047  -0.36795  -0.36550  -0.36386
 Alpha  occ. eigenvalues --   -0.36259  -0.36139  -0.34426  -0.34333  -0.34125
 Alpha  occ. eigenvalues --   -0.34105  -0.33420  -0.33098  -0.31640  -0.31542
 Alpha  occ. eigenvalues --   -0.31298  -0.31243  -0.30429  -0.30413  -0.30345
 Alpha  occ. eigenvalues --   -0.30323  -0.30174  -0.29201  -0.24279  -0.24200
 Alpha  occ. eigenvalues --   -0.21604  -0.21506
 Alpha virt. eigenvalues --   -0.09322  -0.09195  -0.01690  -0.01452   0.00302
 Alpha virt. eigenvalues --    0.00535   0.01662   0.02161   0.02488   0.03339
 Alpha virt. eigenvalues --    0.04481   0.05131   0.05285   0.05649   0.05706

 Mulliken charges:
               1
     1  Mg   0.833763
     2  C   -0.021307
     3  C   -0.080175
     4  C   -0.082730
     5  C   -0.070312
     6  N   -0.301402
     7  C   -0.047334
     8  C   -0.021615
     9  C   -0.058494
    10  C    0.064047
    11  C    0.100725
    12  C    0.032548
    13  C   -0.071154
    14  H    0.011779
    15  N   -0.386355
    16  C    0.146999
    17  C   -0.156162
    18  C   -0.010701
    19  C    0.125003
    20  C    0.113798
    21  C   -0.027321
    22  O   -0.211677
    23  C    0.063951
    24  N   -0.345431
    25  C    0.087675
    26  C   -0.030111
    27  C   -0.026307
    28  C    0.096089
    29  C    0.087955
    30  C    0.059796
    31  C   -0.013216
    32  N   -0.360280
    33  C    0.064898
    34  C   -0.139133
    35  C   -0.053524
    36  C    0.135991
    37  C    0.107471
    38  C    0.083452
    39  O   -0.200403
    40  C    0.008605
    41  C    0.216122
    42  O   -0.257629
    43  O   -0.336374
    44  C    0.163761
    45  H   -0.033255
    46  H   -0.005306
    47  H   -0.025193
    48  H    0.025829
    49  H    0.008724
    50  H    0.023471
    51  H    0.000249
    52  H    0.025570
    53  H    0.009565
    54  H    0.036932
    55  H    0.030387
    56  H    0.032685
    57  H    0.039137
    58  H    0.020300
    59  H    0.045796
    60  H    0.005845
    61  H    0.040892
    62  H    0.037701
    63  H    0.013763
    64  H   -0.013263
    65  H    0.012829
    66  H    0.026539
    67  H    0.015549
    68  H    0.009192
    69  H    0.004000
    70  H    0.005181
    71  H    0.012476
    72  H    0.021968
    73  H    0.039098
    74  H    0.005116
    75  H    0.032627
    76  H    0.049773
    77  H    0.048530
    78  H    0.042663
    79  H    0.059351
    80  Mg   0.813032
    81  C   -0.023630
    82  C   -0.077263
    83  C   -0.062027
    84  C   -0.064318
    85  N   -0.302478
    86  C   -0.035114
    87  C    0.006884
    88  C   -0.058618
    89  C    0.050779
    90  C    0.068885
    91  C    0.056716
    92  C   -0.088698
    93  H    0.008322
    94  N   -0.363094
    95  C    0.161216
    96  C   -0.116990
    97  C   -0.041634
    98  C    0.130653
    99  C    0.062503
   100  C   -0.022276
   101  O   -0.176321
   102  C    0.054566
   103  N   -0.263230
   104  C    0.030072
   105  C   -0.035230
   106  C   -0.014441
   107  C    0.032486
   108  C    0.066531
   109  C    0.004401
   110  C   -0.014663
   111  N   -0.320737
   112  C    0.065132
   113  C   -0.162604
   114  C   -0.035079
   115  C    0.140028
   116  C    0.116961
   117  C    0.069081
   118  O   -0.136699
   119  C    0.003836
   120  C    0.181212
   121  O   -0.201503
   122  O   -0.351221
   123  C    0.165217
   124  H   -0.034087
   125  H   -0.000963
   126  H   -0.031194
   127  H    0.018640
   128  H    0.008108
   129  H    0.008579
   130  H    0.022462
   131  H    0.009349
   132  H    0.019134
   133  H    0.009127
   134  H    0.046113
   135  H    0.015655
   136  H    0.027190
   137  H    0.003885
   138  H    0.033321
   139  H    0.021864
   140  H    0.036840
   141  H    0.022652
   142  H    0.016583
   143  H    0.012845
   144  H    0.017360
   145  H    0.035571
   146  H    0.016230
   147  H    0.020204
   148  H    0.002061
   149  H    0.023651
   150  H    0.021694
   151  H    0.021067
   152  H    0.029116
   153  H    0.019763
   154  H    0.036350
   155  H    0.033814
   156  H    0.035892
   157  H    0.044045
   158  H    0.056436
 Sum of Mulliken charges =  -0.00000

 Dipole moment (field-independent basis, Debye):
    X=              1.8664    Y=              1.5854    Z=              5.0429  Tot=              5.6061
 Quadrupole moment (field-independent basis, Debye-Ang):
   XX=           -725.0858   YY=           -469.9045   ZZ=           -532.5751
   XY=             26.6845   XZ=            110.5705   YZ=              7.0834

 Normal termination of Gaussian 16 at Wed Sep  1 07:15:14 2021.
