 Gaussian 16, Revision A.03,
 Gaussian 16:  ES64L-G16RevA.03 25-Dec-2016

 -----------------------------------
 #p cam-b3lyp/Def2SVP td=(nstates=5)
 -----------------------------------

 --------------------------------
 TDDFT excited states in gaussian
 --------------------------------
 Symbolic Z-matrix:
 Charge =  0 Multiplicity = 1

                         Standard orientation:
 ---------------------------------------------------------------------
 Center     Atomic      Atomic             Coordinates (Angstroms)
 Number     Number       Type             X           Y           Z
 ---------------------------------------------------------------------
      1         12           0      -28.618158    0.362522   -0.656882
      2          6           0      -28.134165   -1.947102    1.897489
      3          6           0      -27.453160    2.829554    1.416617
      4          6           0      -29.414147    2.620101   -3.082570
      5          6           0      -30.023255   -2.311121   -2.530558
      6          7           0      -27.915086    0.440369    1.418687
      7          6           0      -27.698746   -0.661243    2.203817
      8          6           0      -27.043273   -0.154012    3.490698
      9          6           0      -27.123546    1.360764    3.425266
     10          6           0      -27.492759    1.558528    1.959475
     11          6           0      -28.020596    2.106038    4.376766
     12          6           0      -25.578421   -0.729604    3.792604
     13          6           0      -24.812811   -0.058202    4.977809
     14          1           0      -24.958882   -0.668984    6.396144
     15          7           0      -28.310755    2.406561   -0.841902
     16          6           0      -27.852837    3.246853    0.119225
     17          6           0      -27.904333    4.574547   -0.435431
     18          6           0      -28.480222    4.503299   -1.737923
     19          6           0      -28.787991    3.159231   -1.940679
     20          6           0      -27.412401    5.746454    0.356664
     21          6           0      -28.844789    5.709072   -2.652179
     22          8           0      -29.631581    5.599466   -3.575496
     23          6           0      -28.383592    7.067233   -2.414334
     24          7           0      -29.522633    0.167293   -2.424689
     25          6           0      -29.719477    1.225704   -3.311114
     26          6           0      -30.364604    0.774999   -4.633192
     27          6           0      -30.268933   -0.784189   -4.514916
     28          6           0      -29.864823   -0.984212   -3.063520
     29          6           0      -31.638914    1.416069   -4.999346
     30          6           0      -29.344692   -1.609869   -5.570452
     31          6           0      -29.959114   -2.689117   -6.466867
     32          7           0      -29.077576   -1.766507   -0.377217
     33          6           0      -29.653086   -2.667330   -1.228768
     34          6           0      -29.735718   -3.958802   -0.634255
     35          6           0      -29.057731   -3.751106    0.627354
     36          6           0      -28.761517   -2.364911    0.753391
     37          6           0      -30.291466   -5.154934   -1.308403
     38          6           0      -28.543584   -4.437819    1.789977
     39          8           0      -28.484708   -5.604370    2.125839
     40          6           0      -27.908503   -3.224611    2.692528
     41          6           0      -28.409774   -3.265693    4.089968
     42          8           0      -29.561920   -3.052478    4.397912
     43          8           0      -27.440496   -3.551669    4.976849
     44          6           0      -27.768480   -3.370424    6.443046
     45          1           0      -27.033015    3.610944    2.053730
     46          1           0      -29.665031    3.364954   -3.840435
     47          1           0      -30.458564   -2.990642   -3.266478
     48          1           0      -27.738075   -0.561415    4.224988
     49          1           0      -26.142671    1.782460    3.643295
     50          1           0      -28.811344    2.387525    3.682043
     51          1           0      -27.513873    2.936000    4.869416
     52          1           0      -28.501169    1.445705    5.098967
     53          1           0      -25.067454   -0.525274    2.851481
     54          1           0      -25.634293   -1.801123    3.980851
     55          1           0      -25.119085    0.977502    5.119381
     56          1           0      -23.753501   -0.040250    4.721640
     57          1           0      -26.939942    5.556834    1.320977
     58          1           0      -28.302157    6.324922    0.603066
     59          1           0      -26.779384    6.418865   -0.222683
     60          1           0      -28.467631    7.506216   -1.420716
     61          1           0      -28.760686    7.818714   -3.107880
     62          1           0      -27.332883    6.997898   -2.695162
     63          1           0      -29.575107    1.123009   -5.299848
     64          1           0      -31.331967   -1.020363   -4.559900
     65          1           0      -31.643626    2.028765   -5.901240
     66          1           0      -31.937865    2.048304   -4.162870
     67          1           0      -32.449444    0.714567   -5.196516
     68          1           0      -28.559705   -2.102528   -4.997023
     69          1           0      -28.777279   -1.031540   -6.300603
     70          1           0      -29.755182   -3.714389   -6.157013
     71          1           0      -29.797785   -2.544105   -7.534688
     72          1           0      -31.039807   -2.643815   -6.331440
     73          1           0      -31.228690   -4.875457   -1.789076
     74          1           0      -30.406515   -6.002802   -0.633670
     75          1           0      -29.677130   -5.342609   -2.189599
     76          1           0      -26.840090   -3.432476    2.740896
     77          1           0      -27.009732   -3.989580    6.921102
     78          1           0      -28.782763   -3.727847    6.619609
     79          1           0      -27.598478   -2.318300    6.672066
     80         12           0       29.114783   -0.401778    0.202456
     81          6           0       26.308193    1.446296    0.727321
     82          6           0       27.060637   -3.245618   -0.246484
     83          6           0       31.679463   -1.895735   -1.328784
     84          6           0       31.072545    2.632262    0.136207
     85          7           0       26.976638   -0.795662    0.271459
     86          6           0       26.003511    0.028445    0.477836
     87          6           0       24.624282   -0.684606    0.711111
     88          6           0       24.961752   -2.223849    0.679235
     89          6           0       26.462370   -2.143752    0.233153
     90          6           0       24.583776   -3.028896    1.923369
     91          6           0       23.479345   -0.184267   -0.354577
     92          6           0       23.926486    0.414559   -1.678297
     93          1           0       22.963910    0.486586   -2.863678
     94          7           0       29.322406   -2.309439   -0.672776
     95          6           0       28.418467   -3.344083   -0.700994
     96          6           0       28.970829   -4.433227   -1.382207
     97          6           0       30.321898   -4.075235   -1.761552
     98          6           0       30.495930   -2.676949   -1.287464
     99          6           0       28.238306   -5.760583   -1.452536
    100          6           0       31.285482   -5.010798   -2.513912
    101          8           0       30.871008   -6.151963   -2.817808
    102          6           0       32.627864   -4.690893   -2.905212
    103          7           0       31.107042    0.334642   -0.664724
    104          6           0       31.966145   -0.571802   -1.035601
    105          6           0       33.396003   -0.000998   -1.255744
    106          6           0       33.224665    1.443430   -0.736852
    107          6           0       31.693360    1.547109   -0.352665
    108          6           0       34.468548   -0.721007   -0.520935
    109          6           0       33.698569    2.545258   -1.797443
    110          6           0       35.003429    3.360498   -1.420839
    111          7           0       28.860929    1.623114    0.494204
    112          6           0       29.706177    2.739713    0.481632
    113          6           0       28.903645    3.949309    0.843846
    114          6           0       27.589612    3.462998    0.896002
    115          6           0       27.594635    2.058420    0.646958
    116          6           0       29.341851    5.319740    1.028270
    117          6           0       26.285979    3.916149    1.067632
    118          8           0       25.787944    5.024788    1.312415
    119          6           0       25.404457    2.634986    1.062209
    120          6           0       24.623250    2.583062    2.396713
    121          8           0       23.418338    2.474165    2.547954
    122          8           0       25.456252    2.670994    3.491097
    123          6           0       24.834489    2.672380    4.820630
    124          1           0       26.341805   -4.050513   -0.412503
    125          1           0       32.598064   -2.374903   -1.673192
    126          1           0       31.704452    3.510904    0.280837
    127          1           0       24.361067   -0.499741    1.752916
    128          1           0       24.487541   -2.731195   -0.161474
    129          1           0       25.487041   -3.395214    2.410858
    130          1           0       23.979635   -3.903839    1.680614
    131          1           0       23.963518   -2.508581    2.653255
    132          1           0       22.897832    0.496754    0.267284
    133          1           0       22.821521   -0.967415   -0.732080
    134          1           0       24.783840   -0.202449   -1.946000
    135          1           0       24.318345    1.399948   -1.425551
    136          1           0       28.717626   -6.665656   -1.078540
    137          1           0       27.890492   -5.910773   -2.474846
    138          1           0       27.314946   -5.683998   -0.878715
    139          1           0       33.346453   -4.460949   -2.118738
    140          1           0       32.648028   -3.750186   -3.454534
    141          1           0       33.060931   -5.403278   -3.606703
    142          1           0       33.803067    0.013172   -2.266698
    143          1           0       33.713535    1.617294    0.221804
    144          1           0       35.093997   -1.368674   -1.135100
    145          1           0       34.040710   -1.468416    0.148181
    146          1           0       35.102977   -0.010898    0.009233
    147          1           0       32.923250    3.310482   -1.854522
    148          1           0       33.962907    2.144952   -2.775273
    149          1           0       35.666311    3.407540   -2.283914
    150          1           0       35.559931    2.778036   -0.686462
    151          1           0       34.648374    4.367420   -1.200640
    152          1           0       30.360590    5.227405    1.405487
    153          1           0       28.723587    5.824629    1.771387
    154          1           0       29.192397    5.817874    0.070799
    155          1           0       24.527368    2.719886    0.421057
    156          1           0       25.514837    3.164734    5.515738
    157          1           0       24.635251    1.712498    5.296831
    158          1           0       23.842764    3.125113    4.842488
 ---------------------------------------------------------------------

 SCF Done:  E(RCAM-B3LYP) =  -4069.78232590     A.U. after   19 cycles

 Excitation energies and oscillator strengths:

 Excited State   1:      Singlet-A      1.6981 eV  730.13 nm  f=0.3821  <S**2>=0.000
     310 -> 316       -0.17916
     312 -> 314        0.68559
     310 <- 316       -0.10832
 This state for optimization and/or second-order correction.
 Total Energy, E(TD-HF/TD-DFT) =  -4069.71992156
 Copying the excited state density for this state as the 1-particle RhoCI density.

 Excited State   2:      Singlet-A      1.7059 eV  726.79 nm  f=0.4494  <S**2>=0.000
     309 -> 315       -0.16081
     311 -> 313        0.68858
     309 <- 315       -0.10270

 Excited State   3:      Singlet-A      2.2224 eV  557.88 nm  f=0.0945  <S**2>=0.000
     310 -> 314        0.63227
     312 -> 316        0.30141

 Excited State   4:      Singlet-A      2.2508 eV  550.84 nm  f=0.1196  <S**2>=0.000
     309 -> 313        0.64223
     311 -> 315        0.27238

 Excited State   5:      Singlet-A      2.9851 eV  415.34 nm  f=0.0000  <S**2>=0.000
     312 -> 313        0.70711

 The electronic state is 1-A.
 Alpha  occ. eigenvalues --  -46.90345 -46.87866 -19.24929 -19.24407 -19.20145
 Alpha  occ. eigenvalues --  -19.19069 -19.19001 -19.18649 -19.18246 -19.17452
 Alpha  occ. eigenvalues --  -14.43230 -14.42702 -14.42031 -14.41956 -14.40571
 Alpha  occ. eigenvalues --  -14.39853 -14.39037 -14.38427 -10.39753 -10.37954
 Alpha  occ. eigenvalues --  -10.35573 -10.34748 -10.34636 -10.34289 -10.33034
 Alpha  occ. eigenvalues --  -10.32096 -10.31803 -10.31587 -10.31539 -10.31300
 Alpha  occ. eigenvalues --  -10.31116 -10.31102 -10.30784 -10.30771 -10.30678
 Alpha  occ. eigenvalues --  -10.30431 -10.30409 -10.29794 -10.29686 -10.29666
 Alpha  occ. eigenvalues --  -10.29597 -10.29333 -10.29298 -10.29058 -10.28982
 Alpha  occ. eigenvalues --  -10.28838 -10.28500 -10.28454 -10.28327 -10.28285
 Alpha  occ. eigenvalues --  -10.28126 -10.28100 -10.28061 -10.27753 -10.27593
 Alpha  occ. eigenvalues --  -10.27522 -10.27520 -10.27511 -10.27249 -10.27206
 Alpha  occ. eigenvalues --  -10.27203 -10.27128 -10.27124 -10.27100 -10.27071
 Alpha  occ. eigenvalues --  -10.27046 -10.27021 -10.26940 -10.26937 -10.26931
 Alpha  occ. eigenvalues --  -10.26867 -10.26852 -10.26846 -10.26738 -10.26435
 Alpha  occ. eigenvalues --  -10.26240 -10.26186 -10.26144 -10.26037 -10.25737
 Alpha  occ. eigenvalues --  -10.25680 -10.25643 -10.25579 -10.25480 -10.25229
 Alpha  occ. eigenvalues --  -10.24941  -3.18752  -3.16526  -1.93631  -1.93241
 Alpha  occ. eigenvalues --   -1.93019  -1.91441  -1.90983  -1.90828  -1.16173
 Alpha  occ. eigenvalues --   -1.15835  -1.10971  -1.09478  -1.09087  -1.07646
 Alpha  occ. eigenvalues --   -1.07385  -1.06721  -1.05229  -1.05066  -1.04542
 Alpha  occ. eigenvalues --   -1.04099  -1.03673  -1.03304  -1.02341  -1.02281
 Alpha  occ. eigenvalues --   -0.93031  -0.92422  -0.89703  -0.89461  -0.89203
 Alpha  occ. eigenvalues --   -0.89020  -0.88699  -0.88356  -0.88321  -0.87833
 Alpha  occ. eigenvalues --   -0.87560  -0.86963  -0.86692  -0.85328  -0.84680
 Alpha  occ. eigenvalues --   -0.84630  -0.84225  -0.83694  -0.82984  -0.82630
 Alpha  occ. eigenvalues --   -0.82542  -0.82460  -0.81494  -0.81400  -0.80731
 Alpha  occ. eigenvalues --   -0.80302  -0.78782  -0.78513  -0.77784  -0.77428
 Alpha  occ. eigenvalues --   -0.77271  -0.77000  -0.76388  -0.75882  -0.75313
 Alpha  occ. eigenvalues --   -0.75137  -0.73432  -0.72768  -0.71986  -0.71805
 Alpha  occ. eigenvalues --   -0.69598  -0.69377  -0.68954  -0.68934  -0.68442
 Alpha  occ. eigenvalues --   -0.68215  -0.66906  -0.66872  -0.66067  -0.65688
 Alpha  occ. eigenvalues --   -0.65537  -0.65413  -0.64902  -0.64667  -0.64577
 Alpha  occ. eigenvalues --   -0.64193  -0.63369  -0.61413  -0.60934  -0.60519
 Alpha  occ. eigenvalues --   -0.59989  -0.59743  -0.58978  -0.58943  -0.58818
 Alpha  occ. eigenvalues --   -0.58555  -0.58056  -0.57947  -0.57289  -0.57286
 Alpha  occ. eigenvalues --   -0.56362  -0.56351  -0.55742  -0.55649  -0.55635
 Alpha  occ. eigenvalues --   -0.55398  -0.54847  -0.54772  -0.54578  -0.54563
 Alpha  occ. eigenvalues --   -0.53898  -0.53794  -0.53538  -0.53285  -0.53146
 Alpha  occ. eigenvalues --   -0.52955  -0.52910  -0.52628  -0.52581  -0.52334
 Alpha  occ. eigenvalues --   -0.52262  -0.52065  -0.51520  -0.51303  -0.51282
 Alpha  occ. eigenvalues --   -0.50980  -0.50967  -0.50831  -0.50716  -0.50482
 Alpha  occ. eigenvalues --   -0.50297  -0.50291  -0.49933  -0.49920  -0.49597
 Alpha  occ. eigenvalues --   -0.49426  -0.49334  -0.49255  -0.49127  -0.49027
 Alpha  occ. eigenvalues --   -0.48980  -0.48852  -0.48613  -0.48584  -0.48325
 Alpha  occ. eigenvalues --   -0.48218  -0.47710  -0.47686  -0.47438  -0.47437
 Alpha  occ. eigenvalues --   -0.47215  -0.47092  -0.46867  -0.46826  -0.46783
 Alpha  occ. eigenvalues --   -0.46579  -0.46526  -0.46240  -0.46216  -0.46054
 Alpha  occ. eigenvalues --   -0.45914  -0.45753  -0.45280  -0.45140  -0.45101
 Alpha  occ. eigenvalues --   -0.45041  -0.44897  -0.44788  -0.44628  -0.44483
 Alpha  occ. eigenvalues --   -0.44395  -0.44229  -0.43999  -0.43853  -0.43671
 Alpha  occ. eigenvalues --   -0.43619  -0.43359  -0.42798  -0.42722  -0.42697
 Alpha  occ. eigenvalues --   -0.42691  -0.42281  -0.42102  -0.42034  -0.41946
 Alpha  occ. eigenvalues --   -0.41814  -0.41516  -0.41497  -0.41271  -0.40981
 Alpha  occ. eigenvalues --   -0.40952  -0.40880  -0.40744  -0.40368  -0.40187
 Alpha  occ. eigenvalues --   -0.40013  -0.39863  -0.39493  -0.39265  -0.39097
 Alpha  occ. eigenvalues --   -0.38776  -0.38748  -0.38065  -0.37873  -0.37760
 Alpha  occ. eigenvalues --   -0.37249  -0.36889  -0.36873  -0.36553  -0.36423
 Alpha  occ. eigenvalues --   -0.36277  -0.36041  -0.34839  -0.34325  -0.34067
 Alpha  occ. eigenvalues --   -0.34056  -0.33972  -0.32972  -0.31635  -0.31296
 Alpha  occ. eigenvalues --   -0.31106  -0.30956  -0.30946  -0.30199  -0.30196
 Alpha  occ. eigenvalues --   -0.29707  -0.29046  -0.29036  -0.24965  -0.24193
 Alpha  occ. eigenvalues --   -0.21692  -0.21115
 Alpha virt. eigenvalues --   -0.09550  -0.08785  -0.01921  -0.01863  -0.00053
 Alpha virt. eigenvalues --    0.00601   0.00628   0.02188   0.02743   0.03390
 Alpha virt. eigenvalues --    0.04712   0.04984   0.05235   0.05255   0.05410

 Mulliken charges:
               1
     1  Mg   0.828802
     2  C    0.048380
     3  C   -0.079074
     4  C   -0.067476
     5  C   -0.103357
     6  N   -0.255740
     7  C   -0.051984
     8  C   -0.000630
     9  C   -0.103479
    10  C    0.035610
    11  C    0.099463
    12  C    0.042561
    13  C   -0.062440
    14  H    0.013870
    15  N   -0.403932
    16  C    0.147249
    17  C   -0.142782
    18  C   -0.017892
    19  C    0.106309
    20  C    0.100430
    21  C    0.025241
    22  O   -0.202187
    23  C    0.059509
    24  N   -0.343322
    25  C    0.041652
    26  C   -0.041074
    27  C   -0.002505
    28  C    0.022955
    29  C    0.094415
    30  C    0.043905
    31  C   -0.014162
    32  N   -0.286869
    33  C    0.152996
    34  C   -0.160759
    35  C   -0.026706
    36  C    0.074298
    37  C    0.149300
    38  C    0.065570
    39  O   -0.154843
    40  C   -0.074510
    41  C    0.174482
    42  O   -0.224090
    43  O   -0.340815
    44  C    0.172987
    45  H   -0.041509
    46  H    0.001674
    47  H   -0.024256
    48  H    0.009386
    49  H   -0.002350
    50  H    0.017503
    51  H    0.021536
    52  H    0.015315
    53  H    0.009132
    54  H    0.039090
    55  H    0.023329
    56  H    0.035826
    57  H    0.015668
    58  H    0.027301
    59  H    0.025113
    60  H    0.036030
    61  H    0.023046
    62  H    0.027294
    63  H    0.010708
    64  H    0.008011
    65  H    0.017739
    66  H    0.025446
    67  H    0.006138
    68  H    0.012083
    69  H    0.010603
    70  H    0.018373
    71  H    0.023292
    72  H   -0.001768
    73  H    0.012719
    74  H    0.047926
    75  H    0.021411
    76  H    0.037242
    77  H    0.044535
    78  H    0.065032
    79  H    0.042022
    80  Mg   0.825779
    81  C    0.014960
    82  C   -0.064094
    83  C   -0.034130
    84  C   -0.085215
    85  N   -0.280180
    86  C   -0.033772
    87  C   -0.003260
    88  C   -0.057052
    89  C    0.024087
    90  C    0.073110
    91  C    0.009604
    92  C   -0.045391
    93  H    0.044599
    94  N   -0.376618
    95  C    0.139176
    96  C   -0.133923
    97  C   -0.051319
    98  C    0.178995
    99  C    0.140053
   100  C    0.018698
   101  O   -0.238758
   102  C    0.063171
   103  N   -0.229445
   104  C   -0.016339
   105  C   -0.028423
   106  C    0.002414
   107  C    0.020981
   108  C    0.047833
   109  C    0.001340
   110  C   -0.010167
   111  N   -0.376984
   112  C    0.118806
   113  C   -0.164090
   114  C    0.035769
   115  C    0.123899
   116  C    0.127103
   117  C    0.044575
   118  O   -0.184352
   119  C   -0.043143
   120  C    0.174899
   121  O   -0.212604
   122  O   -0.339374
   123  C    0.178555
   124  H   -0.011513
   125  H   -0.063587
   126  H   -0.026490
   127  H    0.025711
   128  H    0.012387
   129  H    0.017794
   130  H    0.012573
   131  H    0.020245
   132  H    0.032815
   133  H    0.016810
   134  H    0.030194
   135  H    0.016167
   136  H    0.036996
   137  H    0.022637
   138  H   -0.021587
   139  H    0.042204
   140  H    0.019898
   141  H    0.027724
   142  H    0.019234
   143  H    0.008142
   144  H    0.006284
   145  H    0.010280
   146  H    0.018334
   147  H    0.012625
   148  H    0.017232
   149  H    0.010730
   150  H    0.016218
   151  H    0.026516
   152  H    0.022314
   153  H    0.042576
   154  H    0.050598
   155  H    0.029757
   156  H    0.033951
   157  H    0.019736
   158  H    0.044723
 Sum of Mulliken charges =  -0.00000

 Dipole moment (field-independent basis, Debye):
    X=              7.4533    Y=              4.7612    Z=              1.3218  Tot=              8.9425
 Quadrupole moment (field-independent basis, Debye-Ang):
   XX=           -401.2591   YY=           -565.6074   ZZ=           -482.9332
   XY=            -69.0641   XZ=            106.6636   YZ=              9.8686

 Normal termination of Gaussian 16 at Wed Sep 15 23:39:38 2021.
