 Gaussian 16, Revision A.03,
 Gaussian 16:  ES64L-G16RevA.03 25-Dec-2016

 -----------------------------------
 #p cam-b3lyp/Def2SVP td=(nstates=5)
 -----------------------------------

 --------------------------------
 TDDFT excited states in gaussian
 --------------------------------
 Symbolic Z-matrix:
 Charge =  0 Multiplicity = 1

                         Standard orientation:
 ---------------------------------------------------------------------
 Center     Atomic      Atomic             Coordinates (Angstroms)
 Number     Number       Type             X           Y           Z
 ---------------------------------------------------------------------
      1         12           0       20.596899   -0.599585    0.014522
      2          6           0       19.987466    2.876315    0.482269
      3          6           0       20.106711   -0.144615   -3.358208
      4          6           0       21.125573   -3.853066   -0.218385
      5          6           0       20.583086   -1.019555    3.584222
      6          7           0       20.019356    1.204191   -1.337399
      7          6           0       19.942438    2.504017   -0.871731
      8          6           0       19.710623    3.404486   -2.133272
      9          6           0       19.705343    2.404680   -3.408948
     10          6           0       19.940098    1.087588   -2.662323
     11          6           0       18.460747    2.470101   -4.318444
     12          6           0       20.633382    4.683616   -2.285365
     13          6           0       19.914282    5.998997   -2.362291
     14          1           0       18.516047    6.156268   -2.898954
     15          7           0       20.742164   -1.861697   -1.658337
     16          6           0       20.495451   -1.473358   -2.937446
     17          6           0       20.856501   -2.594970   -3.765807
     18          6           0       21.049871   -3.690768   -2.897212
     19          6           0       20.959532   -3.201776   -1.482975
     20          6           0       20.793567   -2.472182   -5.297611
     21          6           0       21.184294   -5.134017   -3.278185
     22          8           0       21.233405   -6.039456   -2.412150
     23          6           0       21.202236   -5.508866   -4.713666
     24          7           0       20.755034   -2.202062    1.545932
     25          6           0       21.043480   -3.400429    1.173981
     26          6           0       21.324558   -4.485715    2.344588
     27          6           0       21.124933   -3.558206    3.552905
     28          6           0       20.816330   -2.227178    2.912196
     29          6           0       20.294650   -5.668164    2.225246
     30          6           0       22.314840   -3.453778    4.570498
     31          6           0       23.562689   -2.670574    4.098065
     32          7           0       20.225577    0.597538    1.630076
     33          6           0       20.236612    0.256959    3.003212
     34          6           0       20.056245    1.494703    3.774044
     35          6           0       19.963858    2.542266    2.826448
     36          6           0       20.115875    1.950169    1.527207
     37          6           0       20.025422    1.595267    5.328567
     38          6           0       19.822276    3.898278    2.738587
     39          8           0       19.645259    4.757306    3.578185
     40          6           0       19.884754    4.242024    1.224119
     41          6           0       18.711646    5.012369    0.881320
     42          8           0       17.627679    4.530466    0.533527
     43          8           0       18.911047    6.354182    1.227192
     44          6           0       17.702348    7.204952    1.095578
     45          1           0       19.735491   -0.187370   -4.384651
     46          1           0       21.134975   -4.941406   -0.308079
     47          1           0       20.573790   -1.090589    4.673821
     48          1           0       18.745945    3.820866   -1.846121
     49          1           0       20.515821    2.688156   -4.078942
     50          1           0       18.748356    2.672113   -5.351019
     51          1           0       17.680076    3.174934   -4.032827
     52          1           0       18.031795    1.470917   -4.242699
     53          1           0       21.273989    4.579274   -3.161276
     54          1           0       21.228165    4.716567   -1.372507
     55          1           0       20.393712    6.562232   -3.163714
     56          1           0       19.984325    6.473592   -1.384179
     57          1           0       20.768761   -1.432764   -5.625673
     58          1           0       19.911093   -2.990167   -5.670954
     59          1           0       21.705347   -2.957115   -5.644838
     60          1           0       22.034838   -4.972735   -5.169162
     61          1           0       20.295224   -5.179921   -5.222290
     62          1           0       21.246142   -6.591248   -4.827689
     63          1           0       22.348978   -4.856730    2.304320
     64          1           0       20.177790   -3.793421    4.038930
     65          1           0       19.380003   -5.268071    1.787787
     66          1           0       20.053376   -6.009539    3.232517
     67          1           0       20.584692   -6.543056    1.642832
     68          1           0       22.539545   -4.439116    4.977582
     69          1           0       21.933639   -2.962937    5.465418
     70          1           0       23.794349   -2.711126    3.034266
     71          1           0       24.406615   -2.974046    4.718610
     72          1           0       23.367717   -1.636960    4.383524
     73          1           0       20.686377    2.367962    5.721362
     74          1           0       20.238339    0.649775    5.826102
     75          1           0       19.090510    2.066362    5.633105
     76          1           0       20.782477    4.857703    1.178813
     77          1           0       16.963953    6.941248    1.852336
     78          1           0       17.179420    7.102364    0.145416
     79          1           0       18.056799    8.235168    1.057945
     80         12           0      -19.700843   -0.768675    0.216384
     81          6           0      -21.657453    2.244479    0.483533
     82          6           0      -17.690495    0.771749   -1.961090
     83          6           0      -18.529528   -3.796639   -0.614401
     84          6           0      -22.182926   -2.333385    2.138676
     85          7           0      -19.726783    1.224658   -0.654111
     86          6           0      -20.474563    2.353772   -0.278858
     87          6           0      -19.889188    3.669399   -0.919963
     88          6           0      -18.673585    3.133073   -1.734966
     89          6           0      -18.650837    1.619484   -1.393021
     90          6           0      -18.676713    3.375355   -3.223015
     91          6           0      -19.545658    4.806515    0.183753
     92          6           0      -20.163635    6.184552   -0.083206
     93          1           0      -19.108496    7.346401   -0.202135
     94          7           0      -18.196643   -1.408446   -1.014052
     95          6           0      -17.477671   -0.645568   -1.843680
     96          6           0      -16.514614   -1.440067   -2.608135
     97          6           0      -16.844343   -2.796906   -2.265781
     98          6           0      -17.913516   -2.727667   -1.264203
     99          6           0      -15.525224   -0.853750   -3.521135
    100          6           0      -16.211973   -4.044460   -2.958988
    101          8           0      -16.466607   -5.181794   -2.599578
    102          6           0      -15.236965   -3.936170   -4.087708
    103          7           0      -20.269146   -2.704254    0.692847
    104          6           0      -19.524484   -3.814836    0.310394
    105          6           0      -20.088764   -5.119769    0.962251
    106          6           0      -21.024923   -4.563360    2.099065
    107          6           0      -21.138714   -3.100567    1.670518
    108          6           0      -20.692744   -6.207004    0.014865
    109          6           0      -20.433252   -4.690378    3.529614
    110          6           0      -21.354113   -5.064518    4.663523
    111          7           0      -21.575083   -0.211687    1.094941
    112          6           0      -22.449558   -0.956785    1.833917
    113          6           0      -23.531646   -0.030407    2.386852
    114          6           0      -23.229759    1.228533    1.926784
    115          6           0      -22.074640    1.058471    1.088904
    116          6           0      -24.602215   -0.504095    3.343381
    117          6           0      -23.610832    2.628986    1.881886
    118          8           0      -24.598450    3.104785    2.479990
    119          6           0      -22.613323    3.381658    0.814935
    120          6           0      -23.289865    3.875991   -0.446600
    121          8           0      -23.967404    3.103441   -1.152972
    122          8           0      -23.209557    5.261888   -0.588912
    123          6           0      -24.189606    5.778246   -1.537298
    124          1           0      -16.931467    1.237170   -2.592989
    125          1           0      -18.045350   -4.734276   -0.894035
    126          1           0      -22.845255   -2.863181    2.827170
    127          1           0      -20.717204    4.015473   -1.538297
    128          1           0      -17.838212    3.762478   -1.425138
    129          1           0      -19.580019    3.873591   -3.575266
    130          1           0      -18.781027    2.346989   -3.567304
    131          1           0      -17.826611    3.965844   -3.566027
    132          1           0      -18.456458    4.832823    0.167142
    133          1           0      -19.795764    4.425384    1.173491
    134          1           0      -20.904317    6.349209    0.699339
    135          1           0      -20.692673    6.160074   -1.036756
    136          1           0      -15.486122   -1.170651   -4.562850
    137          1           0      -14.576610   -1.282462   -3.199975
    138          1           0      -15.351013    0.215725   -3.400903
    139          1           0      -14.387958   -3.390015   -3.674863
    140          1           0      -15.699378   -3.291096   -4.835330
    141          1           0      -15.046926   -4.959036   -4.410451
    142          1           0      -19.213371   -5.569783    1.430582
    143          1           0      -22.038327   -4.960614    2.046670
    144          1           0      -20.459663   -5.845280   -0.986341
    145          1           0      -21.750972   -6.407568    0.179829
    146          1           0      -20.124350   -7.137478    0.042774
    147          1           0      -20.078157   -3.664804    3.628791
    148          1           0      -19.558330   -5.336093    3.607592
    149          1           0      -20.800562   -5.788734    5.261294
    150          1           0      -22.266905   -5.558678    4.329221
    151          1           0      -21.422278   -4.178626    5.295392
    152          1           0      -24.450725   -1.573441    3.489398
    153          1           0      -25.567131   -0.403720    2.846930
    154          1           0      -24.577655    0.102027    4.248757
    155          1           0      -22.090199    4.179690    1.341810
    156          1           0      -24.992792    6.370660   -1.101278
    157          1           0      -24.652053    5.013343   -2.161295
    158          1           0      -23.637466    6.425350   -2.218355
 ---------------------------------------------------------------------

 SCF Done:  E(RCAM-B3LYP) =  -4069.79733669     A.U. after   19 cycles

 Excitation energies and oscillator strengths:

 Excited State   1:      Singlet-A      1.6980 eV  730.19 nm  f=0.4140  <S**2>=0.000
     309 -> 316        0.17307
     312 -> 314        0.68838
     309 <- 316        0.10784
 This state for optimization and/or second-order correction.
 Total Energy, E(TD-HF/TD-DFT) =  -4069.73493762
 Copying the excited state density for this state as the 1-particle RhoCI density.

 Excited State   2:      Singlet-A      1.7537 eV  707.00 nm  f=0.3762  <S**2>=0.000
     310 -> 315        0.18837
     311 -> 313        0.68193
     310 <- 315        0.10757

 Excited State   3:      Singlet-A      2.2094 eV  561.17 nm  f=0.1083  <S**2>=0.000
     310 -> 313        0.64207
     311 -> 315       -0.28089

 Excited State   4:      Singlet-A      2.2865 eV  542.24 nm  f=0.0918  <S**2>=0.000
     309 -> 314        0.63011
     312 -> 316       -0.31284

 Excited State   5:      Singlet-A      3.0918 eV  401.01 nm  f=0.0000  <S**2>=0.000
     312 -> 313        0.70710

 The electronic state is 1-A.
 Alpha  occ. eigenvalues --  -46.89833 -46.88370 -19.26689 -19.24287 -19.20843
 Alpha  occ. eigenvalues --  -19.19916 -19.19312 -19.18786 -19.18537 -19.17542
 Alpha  occ. eigenvalues --  -14.42690 -14.42555 -14.41899 -14.41639 -14.39780
 Alpha  occ. eigenvalues --  -14.39693 -14.39673 -14.39356 -10.40825 -10.38630
 Alpha  occ. eigenvalues --  -10.36494 -10.35081 -10.34916 -10.33317 -10.31919
 Alpha  occ. eigenvalues --  -10.31735 -10.31734 -10.31581 -10.31433 -10.31117
 Alpha  occ. eigenvalues --  -10.30949 -10.30914 -10.30808 -10.30638 -10.30324
 Alpha  occ. eigenvalues --  -10.30216 -10.30110 -10.29943 -10.29869 -10.29770
 Alpha  occ. eigenvalues --  -10.29491 -10.29375 -10.29125 -10.28991 -10.28852
 Alpha  occ. eigenvalues --  -10.28839 -10.28792 -10.28550 -10.28394 -10.28227
 Alpha  occ. eigenvalues --  -10.28119 -10.28074 -10.28036 -10.28003 -10.27999
 Alpha  occ. eigenvalues --  -10.27997 -10.27965 -10.27707 -10.27705 -10.27455
 Alpha  occ. eigenvalues --  -10.27423 -10.27352 -10.27351 -10.27278 -10.27241
 Alpha  occ. eigenvalues --  -10.27210 -10.27151 -10.27067 -10.27041 -10.26932
 Alpha  occ. eigenvalues --  -10.26616 -10.26495 -10.26369 -10.26344 -10.26137
 Alpha  occ. eigenvalues --  -10.26131 -10.26021 -10.25989 -10.25908 -10.25884
 Alpha  occ. eigenvalues --  -10.25709 -10.25522 -10.25487 -10.25417 -10.25207
 Alpha  occ. eigenvalues --  -10.23913  -3.18169  -3.17022  -1.93083  -1.92659
 Alpha  occ. eigenvalues --   -1.92425  -1.91903  -1.91461  -1.91350  -1.16333
 Alpha  occ. eigenvalues --   -1.14373  -1.10100  -1.09264  -1.09031  -1.08478
 Alpha  occ. eigenvalues --   -1.07949  -1.06330  -1.06126  -1.03908  -1.03714
 Alpha  occ. eigenvalues --   -1.03286  -1.03048  -1.02633  -1.01873  -1.01718
 Alpha  occ. eigenvalues --   -0.92623  -0.92298  -0.89762  -0.89106  -0.88734
 Alpha  occ. eigenvalues --   -0.88299  -0.88023  -0.87843  -0.87319  -0.87268
 Alpha  occ. eigenvalues --   -0.87218  -0.86807  -0.86111  -0.85492  -0.84337
 Alpha  occ. eigenvalues --   -0.84277  -0.83652  -0.83387  -0.82708  -0.82555
 Alpha  occ. eigenvalues --   -0.82238  -0.81926  -0.81195  -0.80690  -0.80222
 Alpha  occ. eigenvalues --   -0.80063  -0.78421  -0.78337  -0.77599  -0.77593
 Alpha  occ. eigenvalues --   -0.76919  -0.76460  -0.76214  -0.75748  -0.74994
 Alpha  occ. eigenvalues --   -0.74696  -0.72539  -0.72439  -0.71574  -0.70961
 Alpha  occ. eigenvalues --   -0.70479  -0.69053  -0.68991  -0.68394  -0.67902
 Alpha  occ. eigenvalues --   -0.67855  -0.66929  -0.66708  -0.65330  -0.65330
 Alpha  occ. eigenvalues --   -0.64982  -0.64921  -0.64887  -0.64659  -0.64344
 Alpha  occ. eigenvalues --   -0.64251  -0.62584  -0.61434  -0.60279  -0.60242
 Alpha  occ. eigenvalues --   -0.59764  -0.59519  -0.58909  -0.58621  -0.58514
 Alpha  occ. eigenvalues --   -0.58323  -0.58146  -0.57955  -0.57540  -0.57310
 Alpha  occ. eigenvalues --   -0.56295  -0.56247  -0.56036  -0.55420  -0.55286
 Alpha  occ. eigenvalues --   -0.55108  -0.54965  -0.54915  -0.53761  -0.53610
 Alpha  occ. eigenvalues --   -0.53506  -0.53254  -0.53124  -0.53031  -0.52855
 Alpha  occ. eigenvalues --   -0.52642  -0.52591  -0.52448  -0.52038  -0.51822
 Alpha  occ. eigenvalues --   -0.51609  -0.51566  -0.51477  -0.51304  -0.51265
 Alpha  occ. eigenvalues --   -0.51124  -0.50822  -0.50817  -0.50468  -0.50240
 Alpha  occ. eigenvalues --   -0.49865  -0.49599  -0.49524  -0.49364  -0.49261
 Alpha  occ. eigenvalues --   -0.49228  -0.49148  -0.48968  -0.48878  -0.48782
 Alpha  occ. eigenvalues --   -0.48615  -0.48588  -0.48311  -0.48137  -0.47994
 Alpha  occ. eigenvalues --   -0.47945  -0.47943  -0.47523  -0.47330  -0.47227
 Alpha  occ. eigenvalues --   -0.47014  -0.46750  -0.46746  -0.46626  -0.46529
 Alpha  occ. eigenvalues --   -0.46475  -0.46176  -0.46011  -0.45938  -0.45835
 Alpha  occ. eigenvalues --   -0.45666  -0.45501  -0.45359  -0.44945  -0.44612
 Alpha  occ. eigenvalues --   -0.44561  -0.44319  -0.44238  -0.44132  -0.44024
 Alpha  occ. eigenvalues --   -0.43806  -0.43794  -0.43760  -0.43604  -0.43458
 Alpha  occ. eigenvalues --   -0.43217  -0.43190  -0.42988  -0.42841  -0.42738
 Alpha  occ. eigenvalues --   -0.42658  -0.42491  -0.42378  -0.41879  -0.41840
 Alpha  occ. eigenvalues --   -0.41715  -0.41697  -0.41594  -0.41387  -0.41271
 Alpha  occ. eigenvalues --   -0.41157  -0.41112  -0.40776  -0.40604  -0.40550
 Alpha  occ. eigenvalues --   -0.40167  -0.40132  -0.39792  -0.39491  -0.39132
 Alpha  occ. eigenvalues --   -0.39124  -0.38283  -0.37801  -0.37418  -0.37405
 Alpha  occ. eigenvalues --   -0.36956  -0.36643  -0.36408  -0.36379  -0.36114
 Alpha  occ. eigenvalues --   -0.36098  -0.35511  -0.35144  -0.34427  -0.33950
 Alpha  occ. eigenvalues --   -0.33689  -0.33061  -0.32876  -0.31542  -0.31379
 Alpha  occ. eigenvalues --   -0.31329  -0.31219  -0.30686  -0.30378  -0.30343
 Alpha  occ. eigenvalues --   -0.29978  -0.29770  -0.29572  -0.24160  -0.23805
 Alpha  occ. eigenvalues --   -0.21258  -0.20766
 Alpha virt. eigenvalues --   -0.08556  -0.08416  -0.01799  -0.01306  -0.00033
 Alpha virt. eigenvalues --    0.00127   0.01797   0.02309   0.02338   0.02569
 Alpha virt. eigenvalues --    0.02814   0.04547   0.04993   0.05523   0.05555

 Mulliken charges:
               1
     1  Mg   0.811782
     2  C    0.029169
     3  C   -0.077359
     4  C   -0.042133
     5  C   -0.081045
     6  N   -0.244506
     7  C   -0.056716
     8  C   -0.021347
     9  C   -0.054996
    10  C    0.051348
    11  C    0.065153
    12  C    0.043241
    13  C   -0.087131
    14  H    0.017114
    15  N   -0.402003
    16  C    0.117234
    17  C   -0.164250
    18  C   -0.023734
    19  C    0.133576
    20  C    0.120914
    21  C   -0.011723
    22  O   -0.230981
    23  C    0.068111
    24  N   -0.203193
    25  C   -0.004690
    26  C   -0.058814
    27  C    0.082937
    28  C   -0.064766
    29  C    0.045397
    30  C    0.013642
    31  C    0.021054
    32  N   -0.385619
    33  C    0.134165
    34  C   -0.166543
    35  C    0.054415
    36  C    0.106917
    37  C    0.127415
    38  C   -0.040189
    39  O   -0.163499
    40  C    0.002706
    41  C    0.206343
    42  O   -0.235984
    43  O   -0.349695
    44  C    0.191045
    45  H   -0.014114
    46  H    0.003621
    47  H   -0.032094
    48  H    0.035311
    49  H    0.018442
    50  H    0.012707
    51  H    0.029340
    52  H    0.013532
    53  H    0.007456
    54  H    0.012020
    55  H    0.024959
    56  H    0.041454
    57  H    0.024805
    58  H    0.041270
    59  H    0.023681
    60  H    0.030393
    61  H    0.029313
    62  H    0.031592
    63  H    0.025069
    64  H    0.007615
    65  H    0.023923
    66  H    0.014074
    67  H    0.042039
    68  H    0.005584
    69  H    0.000350
    70  H    0.029213
    71  H    0.017392
    72  H    0.017705
    73  H    0.021157
    74  H    0.010618
    75  H    0.028599
    76  H    0.044058
    77  H    0.045774
    78  H    0.025239
    79  H    0.035139
    80  Mg   0.838911
    81  C   -0.085765
    82  C   -0.073226
    83  C   -0.080473
    84  C   -0.091746
    85  N   -0.300385
    86  C   -0.058263
    87  C   -0.033059
    88  C   -0.060020
    89  C    0.087848
    90  C    0.072301
    91  C    0.046874
    92  C   -0.051509
    93  H    0.010903
    94  N   -0.369160
    95  C    0.094537
    96  C   -0.130000
    97  C   -0.034176
    98  C    0.097038
    99  C    0.117777
   100  C   -0.018390
   101  O   -0.206471
   102  C    0.074193
   103  N   -0.329465
   104  C    0.078679
   105  C   -0.014119
   106  C   -0.051155
   107  C    0.040961
   108  C    0.083606
   109  C    0.023089
   110  C    0.033904
   111  N   -0.304518
   112  C    0.131426
   113  C   -0.210500
   114  C    0.055762
   115  C    0.126758
   116  C    0.140661
   117  C    0.068200
   118  O   -0.187287
   119  C    0.029241
   120  C    0.231178
   121  O   -0.228413
   122  O   -0.337434
   123  C    0.158768
   124  H   -0.037789
   125  H   -0.010943
   126  H   -0.028621
   127  H    0.019753
   128  H    0.008410
   129  H    0.005473
   130  H    0.020650
   131  H    0.020467
   132  H    0.007958
   133  H    0.014283
   134  H    0.041814
   135  H    0.032796
   136  H    0.024545
   137  H    0.006583
   138  H    0.018718
   139  H    0.028812
   140  H    0.031837
   141  H    0.041544
   142  H    0.004104
   143  H    0.004848
   144  H    0.017561
   145  H    0.023615
   146  H    0.013182
   147  H    0.005387
   148  H    0.010967
   149  H    0.005704
   150  H    0.020895
   151  H    0.021839
   152  H    0.000827
   153  H    0.035303
   154  H    0.044355
   155  H    0.029892
   156  H    0.045608
   157  H    0.055265
   158  H    0.027282
 Sum of Mulliken charges =  -0.00000

 Dipole moment (field-independent basis, Debye):
    X=              5.7148    Y=             -0.6597    Z=             -3.6681  Tot=              6.8228
 Quadrupole moment (field-independent basis, Debye-Ang):
   XX=           -572.8421   YY=           -520.5201   ZZ=           -475.3035
   XY=            -41.0388   XZ=            -62.6728   YZ=            -52.2527

 Normal termination of Gaussian 16 at Wed Sep 15 06:41:20 2021.
