 Gaussian 16, Revision A.03,
 Gaussian 16:  ES64L-G16RevA.03 25-Dec-2016

 ----------------------------------------------------------
 #p cam-b3lyp/Def2SVP td=(nstates=5) density=(transition=1)
 ----------------------------------------------------------

 --------------------------------
 TDDFT excited states in gaussian
 --------------------------------
 Symbolic Z-matrix:
 Charge =  0 Multiplicity = 1

                         Standard orientation:
 ---------------------------------------------------------------------
 Center     Atomic      Atomic             Coordinates (Angstroms)
 Number     Number       Type             X           Y           Z
 ---------------------------------------------------------------------
      1         12           0      -20.689147   -0.549221   -0.128195
      2          6           0      -19.830761    2.852409   -0.681635
      3          6           0      -20.148280    0.127076    3.301397
      4          6           0      -21.100559   -3.725100    0.495405
      5          6           0      -20.868997   -1.008418   -3.571069
      6          7           0      -20.038743    1.317801    1.188905
      7          6           0      -19.860788    2.580880    0.679929
      8          6           0      -19.652081    3.634706    1.754275
      9          6           0      -19.633458    2.684556    3.027504
     10          6           0      -19.999292    1.289765    2.497034
     11          6           0      -18.321598    2.823375    3.794292
     12          6           0      -20.816835    4.649026    1.759536
     13          6           0      -20.500292    6.158738    2.083713
     14          1           0      -19.185004    6.483311    2.830361
     15          7           0      -20.711474   -1.652105    1.662596
     16          6           0      -20.386540   -1.197713    2.941053
     17          6           0      -20.517384   -2.328324    3.873743
     18          6           0      -20.897197   -3.447558    3.063338
     19          6           0      -20.951166   -2.922719    1.685423
     20          6           0      -20.213372   -2.235276    5.272817
     21          6           0      -21.170489   -4.884416    3.496360
     22          8           0      -21.396853   -5.772758    2.659487
     23          6           0      -21.347277   -5.222655    4.924526
     24          7           0      -20.846083   -2.163803   -1.372312
     25          6           0      -21.112928   -3.370797   -0.866493
     26          6           0      -21.232454   -4.441170   -1.999583
     27          6           0      -21.351297   -3.536773   -3.267208
     28          6           0      -20.995184   -2.173666   -2.762401
     29          6           0      -20.073486   -5.501869   -2.012685
     30          6           0      -22.868740   -3.613605   -3.687539
     31          6           0      -23.886839   -2.536640   -3.176668
     32          7           0      -20.520781    0.646435   -1.803178
     33          6           0      -20.609283    0.293934   -3.162080
     34          6           0      -20.310996    1.499266   -3.974835
     35          6           0      -19.956575    2.466021   -3.041137
     36          6           0      -20.109640    1.980788   -1.759607
     37          6           0      -20.131085    1.388913   -5.412151
     38          6           0      -19.388703    3.809477   -2.959335
     39          8           0      -19.053588    4.543157   -3.882434
     40          6           0      -19.250905    4.126931   -1.396627
     41          6           0      -17.847114    4.439374   -1.034027
     42          8           0      -17.014327    3.644204   -0.608242
     43          8           0      -17.616422    5.813103   -1.237333
     44          6           0      -16.313388    6.400718   -1.022545
     45          1           0      -20.244387    0.297580    4.376078
     46          1           0      -21.265407   -4.795892    0.634827
     47          1           0      -20.998273   -1.266813   -4.623869
     48          1           0      -18.710592    4.172239    1.638396
     49          1           0      -20.366038    3.100731    3.718503
     50          1           0      -18.429625    3.082087    4.847036
     51          1           0      -17.597847    3.528242    3.385017
     52          1           0      -17.875470    1.828322    3.820929
     53          1           0      -21.600639    4.335352    2.448896
     54          1           0      -21.192040    4.520466    0.743662
     55          1           0      -21.252188    6.565994    2.758828
     56          1           0      -20.718667    6.696454    1.161081
     57          1           0      -21.086762   -2.620209    5.799633
     58          1           0      -19.799566   -1.257639    5.518098
     59          1           0      -19.338297   -2.884197    5.320167
     60          1           0      -20.418254   -5.203370    5.495103
     61          1           0      -21.724198   -6.241668    5.009853
     62          1           0      -21.949873   -4.435431    5.376662
     63          1           0      -22.155990   -4.913244   -1.664346
     64          1           0      -20.751942   -3.916509   -4.095041
     65          1           0      -20.387922   -6.404181   -1.488053
     66          1           0      -19.191410   -5.004709   -1.610404
     67          1           0      -19.892356   -5.730160   -3.062874
     68          1           0      -23.216414   -4.642183   -3.589283
     69          1           0      -22.845700   -3.297182   -4.730770
     70          1           0      -24.755793   -3.130195   -2.894052
     71          1           0      -24.194749   -1.837057   -3.954831
     72          1           0      -23.586726   -1.971690   -2.294798
     73          1           0      -19.458418    0.556161   -5.613445
     74          1           0      -19.638449    2.307720   -5.731889
     75          1           0      -21.089626    1.414548   -5.929749
     76          1           0      -19.861837    5.021323   -1.270582
     77          1           0      -15.724868    6.493673   -1.934966
     78          1           0      -15.829797    5.983704   -0.139047
     79          1           0      -16.597470    7.379382   -0.634691
     80         12           0       19.855867   -0.811911   -0.136769
     81          6           0       21.484263    2.212309   -0.390417
     82          6           0       17.583586    0.720980    2.155669
     83          6           0       18.471539   -3.730332    0.436927
     84          6           0       22.199857   -2.299837   -2.247533
     85          7           0       19.633337    1.244839    0.719885
     86          6           0       20.386825    2.314162    0.447159
     87          6           0       19.779003    3.559302    1.171626
     88          6           0       18.604445    2.972244    2.081036
     89          6           0       18.627944    1.489924    1.660802
     90          6           0       18.823856    2.982890    3.581664
     91          6           0       19.360825    4.706998    0.240189
     92          6           0       19.945401    6.032918    0.697246
     93          1           0       19.250202    7.361626    0.366564
     94          7           0       18.199079   -1.386022    1.066490
     95          6           0       17.380493   -0.648789    1.872687
     96          6           0       16.359262   -1.414327    2.434781
     97          6           0       16.639446   -2.774657    2.060169
     98          6           0       17.815681   -2.683151    1.127617
     99          6           0       15.252743   -0.848599    3.313098
    100          6           0       15.955881   -4.052885    2.517574
    101          8           0       16.467587   -5.144648    2.202040
    102          6           0       14.785932   -4.035593    3.414382
    103          7           0       20.274587   -2.674760   -0.837115
    104          6           0       19.516995   -3.781975   -0.514766
    105          6           0       20.016392   -5.127766   -1.160092
    106          6           0       21.038045   -4.536901   -2.223006
    107          6           0       21.205785   -3.085167   -1.738388
    108          6           0       20.675540   -6.267566   -0.287276
    109          6           0       20.741394   -4.764942   -3.774568
    110          6           0       19.689053   -3.869170   -4.372797
    111          7           0       21.560815   -0.281648   -1.017650
    112          6           0       22.441711   -0.946501   -1.849293
    113          6           0       23.488596   -0.118247   -2.289754
    114          6           0       23.115186    1.124469   -1.765133
    115          6           0       21.925139    0.999737   -0.990588
    116          6           0       24.530032   -0.592855   -3.211225
    117          6           0       23.628209    2.436691   -1.668532
    118          8           0       24.707224    2.856930   -2.091087
    119          6           0       22.571790    3.270272   -0.771816
    120          6           0       23.262058    3.830003    0.376857
    121          8           0       23.634576    3.233387    1.361171
    122          8           0       23.547954    5.108918    0.166013
    123          6           0       24.337987    5.813502    1.129974
    124          1           0       16.926637    1.184914    2.893764
    125          1           0       18.121475   -4.760242    0.529394
    126          1           0       22.912885   -2.805482   -2.902104
    127          1           0       20.616182    3.831216    1.813715
    128          1           0       17.756411    3.637693    1.915598
    129          1           0       19.731546    3.494210    3.903612
    130          1           0       18.933459    1.964264    3.952836
    131          1           0       17.918730    3.324223    4.084905
    132          1           0       18.285046    4.824917    0.109042
    133          1           0       19.720713    4.465351   -0.759630
    134          1           0       20.896992    6.133130    0.173944
    135          1           0       20.050790    5.955228    1.779190
    136          1           0       15.226119    0.240503    3.276311
    137          1           0       15.493726   -1.056336    4.355862
    138          1           0       14.301935   -1.341150    3.112934
    139          1           0       14.674773   -4.992699    3.925231
    140          1           0       13.905606   -3.918110    2.781701
    141          1           0       14.886363   -3.241142    4.153488
    142          1           0       19.261268   -5.585265   -1.800092
    143          1           0       21.977159   -5.081996   -2.136501
    144          1           0       20.672167   -5.933304    0.749451
    145          1           0       21.747671   -6.286626   -0.486907
    146          1           0       20.271427   -7.277443   -0.363315
    147          1           0       20.333818   -5.772393   -3.854745
    148          1           0       21.632240   -4.769087   -4.401483
    149          1           0       19.963679   -3.715404   -5.415782
    150          1           0       19.443793   -2.909142   -3.920331
    151          1           0       18.747638   -4.413888   -4.301070
    152          1           0       24.276307   -1.368693   -3.933137
    153          1           0       25.504646   -0.795814   -2.768979
    154          1           0       24.739325    0.320473   -3.767539
    155          1           0       22.176775    4.076138   -1.390096
    156          1           0       23.728780    6.275904    1.907444
    157          1           0       24.824143    6.632339    0.599955
    158          1           0       25.041691    5.128844    1.603654
 ---------------------------------------------------------------------

 SCF Done:  E(RCAM-B3LYP) =  -4069.82440461     A.U. after   18 cycles

 Excitation energies and oscillator strengths:

 Excited State   1:      Singlet-A      1.7068 eV  726.43 nm  f=0.4126  <S**2>=0.000
     309 -> 316        0.17262
     311 -> 313        0.68673
     309 <- 316        0.10537
 This state for optimization and/or second-order correction.
 Total Energy, E(TD-HF/TD-DFT) =  -4069.76168227
 Copying the excited state density for this state as the 1-particle RhoCI density.

 Excited State   2:      Singlet-A      1.7491 eV  708.83 nm  f=0.3769  <S**2>=0.000
     310 -> 315       -0.18983
     312 -> 314        0.68130
     310 <- 315       -0.10804

 Excited State   3:      Singlet-A      2.2215 eV  558.11 nm  f=0.1589  <S**2>=0.000
     309 -> 313        0.65328
     311 -> 316       -0.25406

 Excited State   4:      Singlet-A      2.2728 eV  545.50 nm  f=0.0726  <S**2>=0.000
     310 -> 314        0.62313
     312 -> 315        0.32197

 Excited State   5:      Singlet-A      2.9548 eV  419.60 nm  f=0.0000  <S**2>=0.000
     312 -> 313        0.70710

 The electronic state is 1-A.
 Alpha  occ. eigenvalues --  -46.88529 -46.87677 -19.24820 -19.24009 -19.19911
 Alpha  occ. eigenvalues --  -19.19344 -19.18759 -19.18617 -19.18583 -19.18233
 Alpha  occ. eigenvalues --  -14.42290 -14.42157 -14.42149 -14.41308 -14.39708
 Alpha  occ. eigenvalues --  -14.39705 -14.38955 -14.38942 -10.39510 -10.38294
 Alpha  occ. eigenvalues --  -10.35400 -10.35309 -10.34860 -10.34502 -10.31493
 Alpha  occ. eigenvalues --  -10.31215 -10.31212 -10.31178 -10.31149 -10.31033
 Alpha  occ. eigenvalues --  -10.30793 -10.30729 -10.30475 -10.30412 -10.30339
 Alpha  occ. eigenvalues --  -10.30240 -10.30146 -10.29375 -10.29259 -10.29211
 Alpha  occ. eigenvalues --  -10.29052 -10.29045 -10.28979 -10.28897 -10.28545
 Alpha  occ. eigenvalues --  -10.28515 -10.28274 -10.28266 -10.28260 -10.28259
 Alpha  occ. eigenvalues --  -10.28065 -10.27953 -10.27691 -10.27654 -10.27607
 Alpha  occ. eigenvalues --  -10.27579 -10.27576 -10.27490 -10.27470 -10.27418
 Alpha  occ. eigenvalues --  -10.27306 -10.27286 -10.27263 -10.27181 -10.27164
 Alpha  occ. eigenvalues --  -10.27066 -10.26834 -10.26789 -10.26594 -10.26529
 Alpha  occ. eigenvalues --  -10.26454 -10.26391 -10.26298 -10.26267 -10.26177
 Alpha  occ. eigenvalues --  -10.26158 -10.25775 -10.25738 -10.25553 -10.25365
 Alpha  occ. eigenvalues --  -10.25334 -10.25299 -10.25118 -10.24969 -10.24720
 Alpha  occ. eigenvalues --  -10.24630  -3.17072  -3.16461  -1.91979  -1.91540
 Alpha  occ. eigenvalues --   -1.91360  -1.91359  -1.90933  -1.90766  -1.17925
 Alpha  occ. eigenvalues --   -1.14682  -1.09683  -1.09227  -1.08846  -1.08494
 Alpha  occ. eigenvalues --   -1.07790  -1.07274  -1.04783  -1.04585  -1.04064
 Alpha  occ. eigenvalues --   -1.03693  -1.03323  -1.03116  -1.02538  -1.01397
 Alpha  occ. eigenvalues --   -0.92080  -0.92004  -0.89905  -0.89356  -0.88764
 Alpha  occ. eigenvalues --   -0.88682  -0.88407  -0.88336  -0.87642  -0.87508
 Alpha  occ. eigenvalues --   -0.87357  -0.86777  -0.86758  -0.86207  -0.84585
 Alpha  occ. eigenvalues --   -0.84155  -0.83856  -0.83322  -0.82942  -0.82665
 Alpha  occ. eigenvalues --   -0.82390  -0.82015  -0.81173  -0.80854  -0.80586
 Alpha  occ. eigenvalues --   -0.80462  -0.78967  -0.78332  -0.77324  -0.77126
 Alpha  occ. eigenvalues --   -0.76886  -0.76878  -0.75973  -0.75810  -0.75275
 Alpha  occ. eigenvalues --   -0.74801  -0.73442  -0.72148  -0.71444  -0.71324
 Alpha  occ. eigenvalues --   -0.69643  -0.69255  -0.68932  -0.68830  -0.67861
 Alpha  occ. eigenvalues --   -0.67787  -0.67137  -0.66727  -0.65386  -0.65024
 Alpha  occ. eigenvalues --   -0.64911  -0.64700  -0.64597  -0.64480  -0.64376
 Alpha  occ. eigenvalues --   -0.64206  -0.62336  -0.61556  -0.60418  -0.60349
 Alpha  occ. eigenvalues --   -0.59994  -0.59384  -0.59064  -0.58986  -0.58504
 Alpha  occ. eigenvalues --   -0.58342  -0.58084  -0.57894  -0.57674  -0.57186
 Alpha  occ. eigenvalues --   -0.56518  -0.56297  -0.56197  -0.55510  -0.55352
 Alpha  occ. eigenvalues --   -0.55084  -0.54664  -0.54353  -0.54296  -0.53975
 Alpha  occ. eigenvalues --   -0.53872  -0.53526  -0.53343  -0.53172  -0.53158
 Alpha  occ. eigenvalues --   -0.52789  -0.52766  -0.52497  -0.52344  -0.52343
 Alpha  occ. eigenvalues --   -0.52123  -0.51828  -0.51714  -0.51519  -0.51325
 Alpha  occ. eigenvalues --   -0.51320  -0.50781  -0.50626  -0.50291  -0.50288
 Alpha  occ. eigenvalues --   -0.49952  -0.49922  -0.49805  -0.49659  -0.49577
 Alpha  occ. eigenvalues --   -0.49463  -0.49250  -0.49135  -0.49043  -0.48955
 Alpha  occ. eigenvalues --   -0.48927  -0.48545  -0.48404  -0.48387  -0.48137
 Alpha  occ. eigenvalues --   -0.48098  -0.47766  -0.47613  -0.47381  -0.47321
 Alpha  occ. eigenvalues --   -0.46969  -0.46870  -0.46696  -0.46493  -0.46369
 Alpha  occ. eigenvalues --   -0.46123  -0.46016  -0.46012  -0.45531  -0.45416
 Alpha  occ. eigenvalues --   -0.45408  -0.45142  -0.45038  -0.44919  -0.44630
 Alpha  occ. eigenvalues --   -0.44580  -0.44367  -0.44272  -0.44250  -0.44066
 Alpha  occ. eigenvalues --   -0.43949  -0.43890  -0.43681  -0.43625  -0.43485
 Alpha  occ. eigenvalues --   -0.43437  -0.43334  -0.43232  -0.42976  -0.42670
 Alpha  occ. eigenvalues --   -0.42572  -0.42519  -0.41987  -0.41970  -0.41711
 Alpha  occ. eigenvalues --   -0.41580  -0.41502  -0.41319  -0.41312  -0.41105
 Alpha  occ. eigenvalues --   -0.41037  -0.40980  -0.40686  -0.40477  -0.40362
 Alpha  occ. eigenvalues --   -0.39869  -0.39391  -0.39190  -0.38875  -0.38596
 Alpha  occ. eigenvalues --   -0.38190  -0.37766  -0.37730  -0.37441  -0.37182
 Alpha  occ. eigenvalues --   -0.37129  -0.36653  -0.36528  -0.36349  -0.36175
 Alpha  occ. eigenvalues --   -0.36143  -0.35700  -0.34226  -0.34196  -0.34055
 Alpha  occ. eigenvalues --   -0.33876  -0.33312  -0.33124  -0.31439  -0.31212
 Alpha  occ. eigenvalues --   -0.30978  -0.30842  -0.30776  -0.30526  -0.30172
 Alpha  occ. eigenvalues --   -0.30053  -0.29759  -0.29361  -0.24117  -0.23897
 Alpha  occ. eigenvalues --   -0.21473  -0.20801
 Alpha virt. eigenvalues --   -0.09092  -0.08161  -0.01723  -0.01420   0.00219
 Alpha virt. eigenvalues --    0.00493   0.02167   0.02486   0.03172   0.03314
 Alpha virt. eigenvalues --    0.04809   0.05069   0.05646   0.05676   0.05713

 Mulliken charges:
               1
     1  Mg  11.999979
     2  C    6.000237
     3  C    6.000029
     4  C    5.999715
     5  C    5.999995
     6  N    7.000098
     7  C    5.999751
     8  C    6.000103
     9  C    5.999901
    10  C    6.000175
    11  C    5.999960
    12  C    6.000035
    13  C    6.000006
    14  H    1.000033
    15  N    6.999949
    16  C    6.000347
    17  C    6.000163
    18  C    6.000121
    19  C    6.000256
    20  C    5.999899
    21  C    6.000147
    22  O    8.000222
    23  C    5.999938
    24  N    6.999934
    25  C    6.000288
    26  C    5.999969
    27  C    6.000073
    28  C    5.999841
    29  C    5.999989
    30  C    6.000038
    31  C    6.000079
    32  N    6.999994
    33  C    5.999821
    34  C    5.999632
    35  C    6.000078
    36  C    5.999694
    37  C    6.000090
    38  C    5.999836
    39  O    7.999789
    40  C    5.999969
    41  C    5.999990
    42  O    8.000012
    43  O    7.999965
    44  C    6.000019
    45  H    1.000098
    46  H    1.000025
    47  H    0.999865
    48  H    1.000027
    49  H    1.000012
    50  H    1.000044
    51  H    1.000161
    52  H    1.000046
    53  H    0.999882
    54  H    1.000025
    55  H    0.999926
    56  H    0.999991
    57  H    1.000116
    58  H    1.000171
    59  H    1.000239
    60  H    1.000141
    61  H    1.000097
    62  H    0.999999
    63  H    0.999922
    64  H    0.999969
    65  H    0.999969
    66  H    1.000074
    67  H    1.000068
    68  H    0.999876
    69  H    0.999967
    70  H    0.999866
    71  H    0.999972
    72  H    0.999983
    73  H    0.999864
    74  H    0.999846
    75  H    0.999746
    76  H    0.999891
    77  H    1.000000
    78  H    1.000036
    79  H    0.999925
    80  Mg  12.002644
    81  C    5.980395
    82  C    6.022148
    83  C    6.027038
    84  C    5.987415
    85  N    6.994036
    86  C    6.029249
    87  C    5.992208
    88  C    6.016996
    89  C    5.966291
    90  C    6.003299
    91  C    5.998879
    92  C    5.998510
    93  H    1.005202
    94  N    7.008885
    95  C    5.955032
    96  C    5.983010
    97  C    5.981500
    98  C    5.959221
    99  C    6.003818
   100  C    5.986248
   101  O    7.968163
   102  C    6.006304
   103  N    7.000692
   104  C    5.957699
   105  C    6.016901
   106  C    5.988983
   107  C    6.029576
   108  C    5.999383
   109  C    5.994462
   110  C    5.996791
   111  N    6.995725
   112  C    6.041277
   113  C    6.027501
   114  C    6.003274
   115  C    6.037720
   116  C    5.994187
   117  C    6.016434
   118  O    8.033244
   119  C    6.004107
   120  C    6.004299
   121  O    8.007256
   122  O    8.001152
   123  C    5.996742
   124  H    0.990564
   125  H    0.994362
   126  H    1.011343
   127  H    0.997674
   128  H    0.991480
   129  H    0.984762
   130  H    1.004013
   131  H    0.997924
   132  H    1.009349
   133  H    0.992662
   134  H    0.993567
   135  H    1.005242
   136  H    0.981394
   137  H    0.980099
   138  H    0.983563
   139  H    0.984204
   140  H    0.988598
   141  H    0.994430
   142  H    0.995690
   143  H    1.002197
   144  H    1.003736
   145  H    0.987630
   146  H    0.998567
   147  H    1.011295
   148  H    0.997635
   149  H    0.999514
   150  H    0.999614
   151  H    1.011375
   152  H    1.021364
   153  H    1.024131
   154  H    1.015169
   155  H    1.009612
   156  H    1.007973
   157  H    1.003625
   158  H    1.001745
 Sum of Mulliken charges = 624.00000

 Dipole moment (field-independent basis, Debye):
    X=              8.9811    Y=              3.6540    Z=             -5.7852  Tot=             11.2908
 Quadrupole moment (field-independent basis, Debye-Ang):
   XX=            358.4740   YY=             -4.7393   ZZ=             -1.2508
   XY=             68.2475   XZ=           -116.6062   YZ=              6.7382

 Normal termination of Gaussian 16 at Wed Sep 22 07:55:13 2021.
