 Gaussian 16, Revision A.03,
 Gaussian 16:  ES64L-G16RevA.03 25-Dec-2016

 -----------------------------------------------------------
 #p cam-b3lyp/Def2SVP td=(nstates=5, root=1) density=current
 -----------------------------------------------------------

 --------------------------------
 TDDFT excited states in gaussian
 --------------------------------
 Symbolic Z-matrix:
 Charge =  0 Multiplicity = 1

                         Standard orientation:
 ---------------------------------------------------------------------
 Center     Atomic      Atomic             Coordinates (Angstroms)
 Number     Number       Type             X           Y           Z
 ---------------------------------------------------------------------
      1         12           0       -0.811082    0.051755    0.116600
      2          6           0        2.744947    0.039066    0.279626
      3          6           0       -0.732394   -3.383369   -0.011122
      4          6           0       -4.102204    0.261778   -0.091444
      5          6           0       -0.720045    3.626041   -0.251529
      6          7           0        0.869906   -1.556441    0.063320
      7          6           0        2.207392   -1.258661    0.249789
      8          6           0        2.953198   -2.635183    0.320694
      9          6           0        1.811341   -3.776995    0.181349
     10          6           0        0.590917   -2.859290    0.056159
     11          6           0        2.016975   -4.809595   -0.946451
     12          6           0        3.969712   -2.843493    1.518231
     13          6           0        5.385559   -3.148763    1.123978
     14          1           0        5.764691   -3.839637   -0.159281
     15          7           0       -2.293909   -1.435908    0.092791
     16          6           0       -2.042368   -2.770486    0.034271
     17          6           0       -3.319021   -3.418780    0.190553
     18          6           0       -4.299733   -2.411087    0.066531
     19          6           0       -3.611864   -1.081481   -0.012991
     20          6           0       -3.398754   -4.952733    0.268610
     21          6           0       -5.776530   -2.602338   -0.102795
     22          8           0       -6.542495   -1.634442   -0.323528
     23          6           0       -6.341400   -3.973840   -0.066134
     24          7           0       -2.182246    1.770698   -0.204801
     25          6           0       -3.454282    1.574938   -0.169619
     26          6           0       -4.401941    2.888597   -0.228019
     27          6           0       -3.295127    3.951634   -0.299189
     28          6           0       -2.030656    3.129381   -0.250253
     29          6           0       -5.339470    2.806437   -1.487951
     30          6           0       -3.309829    5.065275    0.806192
     31          6           0       -2.887100    4.632496    2.230175
     32          7           0        0.649718    1.467556   -0.089722
     33          6           0        0.508155    2.865376   -0.256083
     34          6           0        1.850159    3.461426   -0.206349
     35          6           0        2.751547    2.391696    0.010539
     36          6           0        1.966633    1.194185    0.118205
     37          6           0        2.169146    4.981767   -0.326421
     38          6           0        4.080677    2.129507    0.187182
     39          8           0        5.065395    2.838788    0.149220
     40          6           0        4.189898    0.599188    0.435927
     41          6           0        5.139956    0.049882   -0.503635
     42          8           0        4.859639   -0.346600   -1.640472
     43          8           0        6.441890    0.252442   -0.030575
     44          6           0        7.506588   -0.101443   -1.001795
     45          1           0       -0.835762   -4.429854   -0.306763
     46          1           0       -5.168675    0.303375   -0.322805
     47          1           0       -0.635913    4.709736   -0.355856
     48          1           0        3.603354   -2.499065   -0.542555
     49          1           0        1.817946   -4.390028    1.081501
     50          1           0        2.007355   -5.824230   -0.546247
     51          1           0        2.906088   -4.690539   -1.565417
     52          1           0        1.154065   -4.659739   -1.595324
     53          1           0        3.609553   -3.631129    2.180350
     54          1           0        3.999695   -1.885308    2.037023
     55          1           0        5.715756   -3.958480    1.775664
     56          1           0        5.964587   -2.231908    1.228641
     57          1           0       -2.434068   -5.402707    0.504264
     58          1           0       -3.760916   -5.349684   -0.678872
     59          1           0       -4.112089   -5.145426    1.069292
     60          1           0       -6.065653   -4.402764    0.897259
     61          1           0       -5.898321   -4.607471   -0.835397
     62          1           0       -7.412916   -3.953474   -0.260865
     63          1           0       -4.986956    2.997013    0.685607
     64          1           0       -3.251083    4.363337   -1.307746
     65          1           0       -4.816121    2.233872   -2.253654
     66          1           0       -5.478052    3.817337   -1.872948
     67          1           0       -6.328291    2.364552   -1.362510
     68          1           0       -4.254391    5.607198    0.771210
     69          1           0       -2.629349    5.852162    0.482344
     70          1           0       -3.123452    3.610136    2.523260
     71          1           0       -3.276469    5.367234    2.935818
     72          1           0       -1.806438    4.771892    2.254667
     73          1           0        2.827959    5.345168    0.462319
     74          1           0        1.278160    5.607099   -0.370381
     75          1           0        2.868182    5.131587   -1.149608
     76          1           0        4.585270    0.572587    1.450813
     77          1           0        7.515565    0.602267   -1.833757
     78          1           0        7.388640   -1.080900   -1.463896
     79          1           0        8.420827   -0.224914   -0.421004
 ---------------------------------------------------------------------

 SCF Done:  E(RCAM-B3LYP) =  -2034.90404612     A.U. after   19 cycles

 Excitation energies and oscillator strengths:

 Excited State   1:      Singlet-A      1.7536 eV  707.03 nm  f=0.3745  <S**2>=0.000
     155 ->158         0.18849
     156 ->157         0.68192
     155 <-158         0.10760
 This state for optimization and/or second-order correction.
 Total Energy, E(TD-HF/TD-DFT) =  -2034.83960255
 Copying the excited state density for this state as the 1-particle RhoCI density.

 Excited State   2:      Singlet-A      2.2093 eV  561.19 nm  f=0.1090  <S**2>=0.000
     155 ->157         0.64203
     156 ->158        -0.28087

 Excited State   3:      Singlet-A      3.4181 eV  362.73 nm  f=0.1659  <S**2>=0.000
     150 ->157         0.15121
     152 ->157         0.42545
     153 ->157        -0.23705
     154 ->157        -0.19524
     155 ->157         0.13462
     156 ->158         0.41027

 Excited State   4:      Singlet-A      3.4901 eV  355.24 nm  f=0.0056  <S**2>=0.000
     150 ->157        -0.17160
     151 ->157         0.53707
     151 ->159        -0.30168
     151 ->160         0.19671

 Excited State   5:      Singlet-A      3.5801 eV  346.31 nm  f=0.1805  <S**2>=0.000
     152 ->159         0.10886
     153 ->157         0.39950
     153 ->159         0.17897
     153 ->160         0.12448
     154 ->157         0.34051
     155 ->157         0.14084
     156 ->158         0.31339

 The electronic state is 1-A.
 Alpha  occ. eigenvalues --  -46.89811 -19.24262 -19.19287 -19.18766 -19.17519
 Alpha  occ. eigenvalues --  -14.42669 -14.41876 -14.39758 -14.39671 -10.38605
 Alpha  occ. eigenvalues --  -10.35060 -10.33294 -10.31897 -10.31712 -10.31411
 Alpha  occ. eigenvalues --  -10.31094 -10.30892 -10.30783 -10.30195 -10.29848
 Alpha  occ. eigenvalues --  -10.29354 -10.28818 -10.28770 -10.28371 -10.28098
 Alpha  occ. eigenvalues --  -10.28052 -10.27982 -10.27976 -10.27974 -10.27943
 Alpha  occ. eigenvalues --  -10.27684 -10.27400 -10.27329 -10.27221 -10.27129
 Alpha  occ. eigenvalues --  -10.27019 -10.26593 -10.26349 -10.26323 -10.25997
 Alpha  occ. eigenvalues --  -10.25967 -10.25865 -10.23891  -3.18147  -1.93061
 Alpha  occ. eigenvalues --   -1.92638  -1.92403  -1.14348  -1.09241  -1.08457
 Alpha  occ. eigenvalues --   -1.06305  -1.06104  -1.03692  -1.03026  -1.01696
 Alpha  occ. eigenvalues --   -0.92275  -0.89742  -0.88278  -0.87820  -0.87246
 Alpha  occ. eigenvalues --   -0.86785  -0.85471  -0.84315  -0.83366  -0.82532
 Alpha  occ. eigenvalues --   -0.82217  -0.80668  -0.80041  -0.78315  -0.77572
 Alpha  occ. eigenvalues --   -0.76437  -0.75724  -0.74972  -0.72517  -0.71552
 Alpha  occ. eigenvalues --   -0.70459  -0.69031  -0.67833  -0.66907  -0.65309
 Alpha  occ. eigenvalues --   -0.64899  -0.64637  -0.64229  -0.61410  -0.60221
 Alpha  occ. eigenvalues --   -0.59496  -0.58599  -0.58123  -0.57933  -0.57518
 Alpha  occ. eigenvalues --   -0.56274  -0.56014  -0.55263  -0.54943  -0.53587
 Alpha  occ. eigenvalues --   -0.53233  -0.53009  -0.52832  -0.52620  -0.52016
 Alpha  occ. eigenvalues --   -0.51545  -0.51282  -0.50800  -0.50447  -0.49843
 Alpha  occ. eigenvalues --   -0.49502  -0.49240  -0.49207  -0.48947  -0.48855
 Alpha  occ. eigenvalues --   -0.48565  -0.47972  -0.47921  -0.47500  -0.47307
 Alpha  occ. eigenvalues --   -0.46729  -0.46603  -0.46507  -0.46155  -0.45813
 Alpha  occ. eigenvalues --   -0.45479  -0.44922  -0.44590  -0.44216  -0.43773
 Alpha  occ. eigenvalues --   -0.43739  -0.43437  -0.43195  -0.42716  -0.42469
 Alpha  occ. eigenvalues --   -0.42356  -0.41856  -0.41816  -0.41573  -0.41366
 Alpha  occ. eigenvalues --   -0.41249  -0.41135  -0.40581  -0.40111  -0.39769
 Alpha  occ. eigenvalues --   -0.39110  -0.36934  -0.36622  -0.36357  -0.36090
 Alpha  occ. eigenvalues --   -0.35487  -0.33927  -0.33665  -0.33039  -0.31307
 Alpha  occ. eigenvalues --   -0.31198  -0.30321  -0.29956  -0.29550  -0.23783
 Alpha  occ. eigenvalues --   -0.21237
 Alpha virt. eigenvalues --   -0.08534  -0.01777   0.00149   0.02331   0.02592
 Alpha virt. eigenvalues --    0.05017   0.05546   0.06457   0.06701   0.07863
 Alpha virt. eigenvalues --    0.08596   0.08958   0.09411   0.09920   0.10758

 Mulliken charges:
               1
     1  Mg   0.802085
     2  C    0.012294
     3  C   -0.081053
     4  C   -0.055464
     5  C   -0.096821
     6  N   -0.258103
     7  C   -0.033753
     8  C   -0.026819
     9  C   -0.054795
    10  C    0.058004
    11  C    0.064860
    12  C    0.043320
    13  C   -0.088730
    14  H    0.019247
    15  N   -0.400054
    16  C    0.110442
    17  C   -0.170113
    18  C   -0.027706
    19  C    0.135447
    20  C    0.121681
    21  C   -0.018648
    22  O   -0.241537
    23  C    0.070143
    24  N   -0.219137
    25  C    0.006718
    26  C   -0.060410
    27  C    0.076406
    28  C   -0.038143
    29  C    0.046510
    30  C    0.013144
    31  C    0.019261
    32  N   -0.388619
    33  C    0.152848
    34  C   -0.162303
    35  C    0.058237
    36  C    0.122396
    37  C    0.127031
    38  C   -0.042384
    39  O   -0.160432
    40  C    0.005587
    41  C    0.205441
    42  O   -0.235398
    43  O   -0.349585
    44  C    0.190621
    45  H   -0.016284
    46  H   -0.000066
    47  H   -0.032473
    48  H    0.039545
    49  H    0.021966
    50  H    0.013869
    51  H    0.028265
    52  H    0.016474
    53  H    0.010899
    54  H    0.012877
    55  H    0.026509
    56  H    0.041727
    57  H    0.018837
    58  H    0.035647
    59  H    0.019357
    60  H    0.027486
    61  H    0.026236
    62  H    0.026423
    63  H    0.029024
    64  H    0.013060
    65  H    0.025432
    66  H    0.012800
    67  H    0.045513
    68  H    0.009128
    69  H    0.001669
    70  H    0.032281
    71  H    0.019329
    72  H    0.017151
    73  H    0.025518
    74  H    0.014522
    75  H    0.032968
    76  H    0.044738
    77  H    0.046054
    78  H    0.025863
    79  H    0.035940
 Sum of Mulliken charges =  -0.00000

 Dipole moment (field-independent basis, Debye):
    X=             -0.7268    Y=             -1.1192    Z=              1.9576  Tot=              2.3692
 Quadrupole moment (field-independent basis, Debye-Ang):
   XX=           -278.6581   YY=           -219.8982   ZZ=           -258.0745
   XY=            -25.1670   XZ=              1.9362   YZ=             -3.2542

 Normal termination of Gaussian 16 at Tue Oct 12 14:00:30 2021.
