 Gaussian 16, Revision A.03,
 Gaussian 16:  ES64L-G16RevA.03 25-Dec-2016

 ----------------------------------------------------------
 #p cam-b3lyp/Def2SVP td=(nstates=5) density=(transition=1)
 ----------------------------------------------------------

 --------------------------------
 TDDFT excited states in gaussian
 --------------------------------
 Symbolic Z-matrix:
 Charge =  0 Multiplicity = 1

                         Standard orientation:
 ---------------------------------------------------------------------
 Center     Atomic      Atomic             Coordinates (Angstroms)
 Number     Number       Type             X           Y           Z
 ---------------------------------------------------------------------
      1         12           0       -8.897678    0.292575    0.616418
      2          6           0       -8.023829   -1.860897   -1.970541
      3          6           0       -6.772388   -1.505478    2.683742
      4          6           0       -9.203791    2.564519    2.997547
      5          6           0      -10.583813    2.290508   -1.651564
      6          7           0       -7.438699   -1.363743    0.355098
      7          6           0       -7.355601   -2.179424   -0.754700
      8          6           0       -6.504996   -3.393138   -0.523021
      9          6           0       -6.441023   -3.440045    1.067262
     10          6           0       -6.864021   -2.020001    1.419122
     11          6           0       -7.099971   -4.632719    1.910120
     12          6           0       -5.098121   -3.398895   -1.282416
     13          6           0       -4.393639   -2.028904   -1.513217
     14          1           0       -2.901059   -2.052318   -1.286816
     15          7           0       -8.008764    0.574485    2.540446
     16          6           0       -7.157779   -0.305140    3.221109
     17          6           0       -6.745947    0.233950    4.488160
     18          6           0       -7.436397    1.463735    4.606439
     19          6           0       -8.245927    1.623104    3.361764
     20          6           0       -5.975481   -0.636159    5.482507
     21          6           0       -7.307972    2.351478    5.865228
     22          8           0       -6.526245    2.079647    6.782165
     23          6           0       -8.213102    3.508828    5.931677
     24          7           0       -9.680371    2.205310    0.568791
     25          6           0       -9.924126    2.822122    1.784359
     26          6           0      -10.828555    4.067749    1.657354
     27          6           0      -11.034352    4.040641    0.087291
     28          6           0      -10.367803    2.823003   -0.377554
     29          6           0      -12.116637    4.121901    2.416534
     30          6           0      -10.386343    5.317446   -0.653170
     31          6           0      -11.344030    5.907151   -1.655451
     32          7           0       -9.436257    0.175231   -1.393165
     33          6           0      -10.130209    1.074161   -2.181744
     34          6           0      -10.211117    0.568035   -3.571025
     35          6           0       -9.384304   -0.608236   -3.531424
     36          6           0       -8.958069   -0.771679   -2.208205
     37          6           0      -10.714516    1.214119   -4.797408
     38          6           0       -8.740783   -1.696362   -4.297994
     39          8           0       -8.744676   -1.900175   -5.489981
     40          6           0       -7.880428   -2.560434   -3.320752
     41          6           0       -8.297549   -3.961854   -3.380283
     42          8           0       -7.665407   -4.962562   -3.719392
     43          8           0       -9.710620   -3.974610   -3.245065
     44          6           0      -10.333641   -5.315353   -3.221336
     45          1           0       -6.305833   -2.232833    3.352147
     46          1           0       -9.535886    3.273708    3.758455
     47          1           0      -11.199790    2.950172   -2.265307
     48          1           0       -7.003127   -4.282102   -0.909784
     49          1           0       -5.362831   -3.504190    1.215990
     50          1           0       -7.511253   -5.455798    1.326019
     51          1           0       -7.955381   -4.325283    2.511524
     52          1           0       -6.318869   -5.152226    2.465862
     53          1           0       -5.172219   -3.946376   -2.221456
     54          1           0       -4.439917   -4.032571   -0.688054
     55          1           0       -4.846417   -1.253841   -0.894102
     56          1           0       -4.530085   -1.714267   -2.547493
     57          1           0       -5.297786   -0.074437    6.126167
     58          1           0       -5.308670   -1.300334    4.933279
     59          1           0       -6.733228   -1.123520    6.096476
     60          1           0       -9.228715    3.144841    6.084184
     61          1           0       -8.114669    4.105750    5.024438
     62          1           0       -7.885141    4.071161    6.805885
     63          1           0      -10.198908    4.943243    1.817666
     64          1           0      -12.101221    3.836542   -0.003238
     65          1           0      -12.663452    4.973083    2.010510
     66          1           0      -11.870523    4.402989    3.440524
     67          1           0      -12.639743    3.167161    2.350663
     68          1           0       -9.455208    4.971004   -1.101387
     69          1           0       -9.997884    6.115191   -0.018816
     70          1           0      -10.946059    5.711714   -2.650915
     71          1           0      -11.316020    6.997257   -1.664958
     72          1           0      -12.300147    5.386802   -1.602908
     73          1           0      -11.139752    2.210704   -4.669718
     74          1           0      -11.531208    0.585270   -5.150194
     75          1           0       -9.778517    1.363781   -5.335185
     76          1           0       -6.857919   -2.434547   -3.675969
     77          1           0      -11.033027   -5.222366   -2.389695
     78          1           0       -9.734270   -6.211751   -3.061949
     79          1           0      -10.990440   -5.321641   -4.091405
     80         12           0        8.957827    0.710067   -0.250486
     81          6           0        7.487518   -2.443379    0.700190
     82          6           0        5.723539    1.748073   -1.121835
     83          6           0       10.257248    3.628213   -1.009315
     84          6           0       12.124937   -0.627240    0.383667
     85          7           0        6.833036   -0.319894   -0.213836
     86          6           0        6.471638   -1.479610    0.395835
     87          6           0        4.965274   -1.586598    0.568654
     88          6           0        4.377911   -0.374507   -0.348390
     89          6           0        5.709255    0.389188   -0.604572
     90          6           0        3.585025   -0.826087   -1.600429
     91          6           0        4.521248   -1.505693    2.068279
     92          6           0        3.692462   -2.725818    2.546905
     93          1           0        2.158724   -2.352218    2.976518
     94          7           0        8.131323    2.396020   -0.938742
     95          6           0        6.771345    2.691765   -1.292508
     96          6           0        6.575810    4.081350   -1.769312
     97          6           0        7.904359    4.609487   -1.666616
     98          6           0        8.809219    3.548114   -1.194278
     99          6           0        5.244375    4.668714   -2.241811
    100          6           0        8.393716    5.952546   -2.055140
    101          8           0        9.474231    6.438318   -1.738486
    102          6           0        7.421670    6.884351   -2.805192
    103          7           0       10.861315    1.419341   -0.133412
    104          6           0       11.169874    2.673290   -0.535822
    105          6           0       12.650437    2.901589   -0.662862
    106          6           0       13.286262    1.574941   -0.179393
    107          6           0       12.029738    0.722025    0.106544
    108          6           0       13.102489    3.388687   -2.023568
    109          6           0       14.158260    1.816478    1.188943
    110          6           0       15.697849    1.300887    1.143118
    111          7           0        9.720024   -1.233409    0.153411
    112          6           0       11.058603   -1.574660    0.463254
    113          6           0       11.072442   -2.977571    0.893127
    114          6           0        9.700150   -3.264805    1.116719
    115          6           0        8.939159   -2.242390    0.547918
    116          6           0       12.250439   -3.916899    1.133587
    117          6           0        8.801261   -4.405171    1.451883
    118          8           0        8.964994   -5.612477    1.782109
    119          6           0        7.340658   -3.828592    1.299942
    120          6           0        6.554531   -4.753350    0.418087
    121          8           0        6.968031   -5.228836   -0.601384
    122          8           0        5.362575   -5.052821    1.017257
    123          6           0        4.683329   -6.211309    0.383945
    124          1           0        4.725081    1.972945   -1.502042
    125          1           0       10.750823    4.572904   -1.248037
    126          1           0       13.100362   -1.054629    0.624213
    127          1           0        4.676641   -2.528422    0.101937
    128          1           0        3.751841    0.313624    0.220235
    129          1           0        4.103756   -0.535338   -2.514400
    130          1           0        2.581856   -0.397883   -1.591048
    131          1           0        3.355919   -1.890076   -1.660407
    132          1           0        3.906022   -0.626220    2.260106
    133          1           0        5.379149   -1.452403    2.739082
    134          1           0        4.038637   -3.131959    3.497690
    135          1           0        3.704312   -3.586450    1.878859
    136          1           0        4.336928    4.139476   -1.949329
    137          1           0        5.170425    4.862888   -3.311778
    138          1           0        5.189636    5.648767   -1.766818
    139          1           0        7.131901    6.442382   -3.758462
    140          1           0        7.830217    7.886042   -2.942835
    141          1           0        6.528909    6.997406   -2.190156
    142          1           0       12.915680    3.741576   -0.019434
    143          1           0       13.872354    1.106100   -0.969278
    144          1           0       13.402702    4.436850   -2.032563
    145          1           0       12.337336    3.369048   -2.799534
    146          1           0       13.918825    2.746051   -2.353937
    147          1           0       13.726116    1.355571    2.076555
    148          1           0       14.233744    2.870619    1.454454
    149          1           0       15.950758    1.238685    0.084507
    150          1           0       15.817774    0.335406    1.636333
    151          1           0       16.382159    2.059497    1.522133
    152          1           0       12.044327   -4.642748    1.919960
    153          1           0       13.059157   -3.319538    1.556186
    154          1           0       12.510592   -4.256106    0.130807
    155          1           0        6.889762   -3.912200    2.288456
    156          1           0        4.598088   -5.994378   -0.680671
    157          1           0        3.674360   -6.165874    0.793554
    158          1           0        5.139581   -7.198856    0.451844
 ---------------------------------------------------------------------

 SCF Done:  E(RCAM-B3LYP) =  -4069.80234364     A.U. after   19 cycles

 Excitation energies and oscillator strengths:

 Excited State   1:      Singlet-A      1.6722 eV  741.46 nm  f=0.3592  <S**2>=0.000
     310 -> 316        0.18785
     312 -> 313        0.68410
     310 <- 316        0.11175
 This state for optimization and/or second-order correction.
 Total Energy, E(TD-HF/TD-DFT) =  -4069.74089285
 Copying the excited state density for this state as the 1-particle RhoCI density.

 Excited State   2:      Singlet-A      1.7179 eV  721.70 nm  f=0.3750  <S**2>=0.000
     309 -> 315        0.18173
     311 -> 314        0.68343
     309 <- 315        0.10501

 Excited State   3:      Singlet-A      2.1740 eV  570.30 nm  f=0.1342  <S**2>=0.000
     310 -> 313        0.64639
     312 -> 316       -0.27682

 Excited State   4:      Singlet-A      2.2047 eV  562.37 nm  f=0.0896  <S**2>=0.000
     309 -> 314        0.62855
     311 -> 315       -0.30494

 Excited State   5:      Singlet-A      2.8359 eV  437.19 nm  f=0.0000  <S**2>=0.000
     312 -> 314        0.70691

 The electronic state is 1-A.
 Alpha  occ. eigenvalues --  -46.89270 -46.88431 -19.25552 -19.24484 -19.20689
 Alpha  occ. eigenvalues --  -19.19647 -19.19173 -19.18982 -19.18864 -19.18590
 Alpha  occ. eigenvalues --  -14.42504 -14.42404 -14.42369 -14.41837 -14.40617
 Alpha  occ. eigenvalues --  -14.39807 -14.39348 -14.39151 -10.39883 -10.38722
 Alpha  occ. eigenvalues --  -10.35280 -10.35255 -10.35047 -10.35034 -10.31835
 Alpha  occ. eigenvalues --  -10.31784 -10.31724 -10.31483 -10.31423 -10.31389
 Alpha  occ. eigenvalues --  -10.31352 -10.31184 -10.30842 -10.30801 -10.30774
 Alpha  occ. eigenvalues --  -10.30702 -10.30572 -10.30353 -10.30240 -10.29879
 Alpha  occ. eigenvalues --  -10.29517 -10.29122 -10.28999 -10.28914 -10.28893
 Alpha  occ. eigenvalues --  -10.28838 -10.28808 -10.28711 -10.28711 -10.28580
 Alpha  occ. eigenvalues --  -10.28513 -10.28509 -10.28425 -10.28393 -10.28365
 Alpha  occ. eigenvalues --  -10.28319 -10.28227 -10.28135 -10.27987 -10.27862
 Alpha  occ. eigenvalues --  -10.27826 -10.27734 -10.27458 -10.27323 -10.27298
 Alpha  occ. eigenvalues --  -10.27273 -10.27216 -10.27161 -10.27129 -10.27104
 Alpha  occ. eigenvalues --  -10.27059 -10.26890 -10.26660 -10.26446 -10.26371
 Alpha  occ. eigenvalues --  -10.26218 -10.26166 -10.26104 -10.26028 -10.26024
 Alpha  occ. eigenvalues --  -10.25969 -10.25905 -10.25842 -10.25548 -10.25409
 Alpha  occ. eigenvalues --  -10.25090  -3.17796  -3.17074  -1.92680  -1.92267
 Alpha  occ. eigenvalues --   -1.92089  -1.91972  -1.91529  -1.91396  -1.16866
 Alpha  occ. eigenvalues --   -1.14965  -1.10522  -1.09880  -1.09521  -1.08589
 Alpha  occ. eigenvalues --   -1.07047  -1.06971  -1.05233  -1.03903  -1.03885
 Alpha  occ. eigenvalues --   -1.03349  -1.03164  -1.02508  -1.02484  -1.01916
 Alpha  occ. eigenvalues --   -0.92629  -0.91477  -0.89809  -0.89382  -0.88543
 Alpha  occ. eigenvalues --   -0.88410  -0.88164  -0.88011  -0.87839  -0.87318
 Alpha  occ. eigenvalues --   -0.87039  -0.86890  -0.86341  -0.85540  -0.84991
 Alpha  occ. eigenvalues --   -0.84614  -0.83913  -0.83080  -0.82874  -0.82565
 Alpha  occ. eigenvalues --   -0.81724  -0.81298  -0.81004  -0.80579  -0.80322
 Alpha  occ. eigenvalues --   -0.79666  -0.78995  -0.78472  -0.77659  -0.77023
 Alpha  occ. eigenvalues --   -0.77010  -0.76682  -0.76366  -0.75926  -0.75903
 Alpha  occ. eigenvalues --   -0.75131  -0.72805  -0.72458  -0.72303  -0.71317
 Alpha  occ. eigenvalues --   -0.69621  -0.69522  -0.69079  -0.68661  -0.68262
 Alpha  occ. eigenvalues --   -0.67491  -0.66998  -0.66995  -0.66570  -0.65831
 Alpha  occ. eigenvalues --   -0.65523  -0.65066  -0.64671  -0.64287  -0.64171
 Alpha  occ. eigenvalues --   -0.63897  -0.62694  -0.62272  -0.60706  -0.60433
 Alpha  occ. eigenvalues --   -0.59538  -0.59165  -0.59102  -0.58634  -0.58453
 Alpha  occ. eigenvalues --   -0.58248  -0.57860  -0.57692  -0.57408  -0.57038
 Alpha  occ. eigenvalues --   -0.56482  -0.56040  -0.55978  -0.55507  -0.55258
 Alpha  occ. eigenvalues --   -0.55181  -0.54967  -0.54792  -0.54400  -0.54039
 Alpha  occ. eigenvalues --   -0.53681  -0.53285  -0.53063  -0.52865  -0.52780
 Alpha  occ. eigenvalues --   -0.52572  -0.52468  -0.52332  -0.52135  -0.52058
 Alpha  occ. eigenvalues --   -0.51777  -0.51551  -0.51371  -0.51280  -0.51264
 Alpha  occ. eigenvalues --   -0.51014  -0.50735  -0.50655  -0.50428  -0.50367
 Alpha  occ. eigenvalues --   -0.49968  -0.49870  -0.49793  -0.49711  -0.49705
 Alpha  occ. eigenvalues --   -0.49428  -0.49331  -0.49113  -0.48987  -0.48716
 Alpha  occ. eigenvalues --   -0.48683  -0.48444  -0.48322  -0.48151  -0.48005
 Alpha  occ. eigenvalues --   -0.47909  -0.47906  -0.47467  -0.47410  -0.47369
 Alpha  occ. eigenvalues --   -0.47072  -0.46953  -0.46748  -0.46663  -0.46458
 Alpha  occ. eigenvalues --   -0.46438  -0.46371  -0.46105  -0.45899  -0.45853
 Alpha  occ. eigenvalues --   -0.45550  -0.45473  -0.45280  -0.45155  -0.45144
 Alpha  occ. eigenvalues --   -0.44888  -0.44853  -0.44811  -0.44715  -0.44670
 Alpha  occ. eigenvalues --   -0.44282  -0.44095  -0.44001  -0.43792  -0.43691
 Alpha  occ. eigenvalues --   -0.43579  -0.43372  -0.43265  -0.43221  -0.42914
 Alpha  occ. eigenvalues --   -0.42760  -0.42637  -0.42507  -0.42298  -0.42120
 Alpha  occ. eigenvalues --   -0.42120  -0.41943  -0.41872  -0.41850  -0.41437
 Alpha  occ. eigenvalues --   -0.41405  -0.41211  -0.40696  -0.40650  -0.40610
 Alpha  occ. eigenvalues --   -0.40336  -0.40153  -0.40094  -0.39292  -0.39289
 Alpha  occ. eigenvalues --   -0.38693  -0.38486  -0.38149  -0.38131  -0.37611
 Alpha  occ. eigenvalues --   -0.37392  -0.37244  -0.37060  -0.36775  -0.36280
 Alpha  occ. eigenvalues --   -0.35797  -0.35403  -0.35319  -0.34955  -0.34538
 Alpha  occ. eigenvalues --   -0.34321  -0.33483  -0.32920  -0.31536  -0.31436
 Alpha  occ. eigenvalues --   -0.31354  -0.30974  -0.30903  -0.30502  -0.30173
 Alpha  occ. eigenvalues --   -0.30119  -0.29818  -0.29287  -0.24262  -0.23807
 Alpha  occ. eigenvalues --   -0.21379  -0.21206
 Alpha virt. eigenvalues --   -0.08881  -0.08829  -0.02409  -0.01734   0.00227
 Alpha virt. eigenvalues --    0.00471   0.01563   0.02151   0.02368   0.03657
 Alpha virt. eigenvalues --    0.03928   0.04330   0.04770   0.05317   0.05685

 Mulliken charges:
               1
     1  Mg  11.999758
     2  C    6.000751
     3  C    5.999506
     4  C    5.998936
     5  C    6.000145
     6  N    7.000102
     7  C    5.998893
     8  C    6.000241
     9  C    5.999676
    10  C    6.000581
    11  C    5.999706
    12  C    5.999885
    13  C    6.000652
    14  H    0.998475
    15  N    6.999709
    16  C    6.001001
    17  C    6.000142
    18  C    6.000183
    19  C    6.000942
    20  C    5.999977
    21  C    6.000081
    22  O    8.000627
    23  C    5.999963
    24  N    6.999790
    25  C    6.001101
    26  C    5.999573
    27  C    6.000365
    28  C    5.999007
    29  C    5.999964
    30  C    6.000297
    31  C    6.000114
    32  N    7.000132
    33  C    5.999000
    34  C    5.999237
    35  C    5.999872
    36  C    5.999097
    37  C    6.000186
    38  C    5.999537
    39  O    7.999395
    40  C    6.000036
    41  C    5.999854
    42  O    8.000102
    43  O    8.000055
    44  C    5.999898
    45  H    1.000944
    46  H    1.000178
    47  H    0.999646
    48  H    1.000479
    49  H    1.000317
    50  H    1.000747
    51  H    1.000118
    52  H    1.000766
    53  H    1.000414
    54  H    1.000637
    55  H    0.999504
    56  H    0.999658
    57  H    1.000407
    58  H    1.000549
    59  H    1.000947
    60  H    1.000542
    61  H    0.999771
    62  H    1.000328
    63  H    0.999739
    64  H    1.000226
    65  H    1.000243
    66  H    0.999982
    67  H    1.000373
    68  H    0.999400
    69  H    0.999354
    70  H    0.999864
    71  H    0.999717
    72  H    1.000339
    73  H    0.999463
    74  H    0.999853
    75  H    0.999150
    76  H    0.999446
    77  H    1.000055
    78  H    1.000186
    79  H    1.000116
    80  Mg  11.995514
    81  C    6.028348
    82  C    5.993418
    83  C    5.965554
    84  C    6.011210
    85  N    7.016956
    86  C    5.964036
    87  C    6.010550
    88  C    5.987326
    89  C    6.031651
    90  C    5.997066
    91  C    6.001833
    92  C    6.002153
    93  H    0.992569
    94  N    6.993095
    95  C    6.039621
    96  C    6.024329
    97  C    6.014458
    98  C    6.032464
    99  C    5.995036
   100  C    6.011504
   101  O    8.031906
   102  C    5.995574
   103  N    6.992054
   104  C    6.040406
   105  C    5.989407
   106  C    6.012289
   107  C    5.968292
   108  C    5.999185
   109  C    6.005090
   110  C    6.000938
   111  N    7.004757
   112  C    5.953458
   113  C    5.969718
   114  C    5.995209
   115  C    5.966563
   116  C    5.999804
   117  C    5.990397
   118  O    7.968880
   119  C    5.995264
   120  C    5.993205
   121  O    7.999725
   122  O    7.998073
   123  C    6.002185
   124  H    1.013580
   125  H    1.001048
   126  H    0.987228
   127  H    1.002392
   128  H    1.001253
   129  H    0.999515
   130  H    1.004028
   131  H    1.014372
   132  H    0.990702
   133  H    1.005021
   134  H    1.003046
   135  H    1.002003
   136  H    1.016812
   137  H    1.020388
   138  H    1.016732
   139  H    1.007797
   140  H    1.015050
   141  H    1.005323
   142  H    0.998882
   143  H    0.996035
   144  H    0.997647
   145  H    0.994640
   146  H    1.010076
   147  H    1.001034
   148  H    0.987231
   149  H    0.995958
   150  H    1.002897
   151  H    0.993500
   152  H    0.984173
   153  H    0.982949
   154  H    0.982487
   155  H    0.995190
   156  H    0.995355
   157  H    0.994727
   158  H    0.999861
 Sum of Mulliken charges = 624.00000

 Dipole moment (field-independent basis, Debye):
    X=             -5.1170    Y=              8.7249    Z=             -3.3150  Tot=             10.6442
 Quadrupole moment (field-independent basis, Debye-Ang):
   XX=            -94.2391   YY=             11.0543   ZZ=              3.1235
   XY=             74.3674   XZ=            -30.9126   YZ=             -5.8261

 Normal termination of Gaussian 16 at Wed Sep 22 16:43:50 2021.
