 Gaussian 16, Revision A.03,
 Gaussian 16:  ES64L-G16RevA.03 25-Dec-2016

 ----------------------------------------------------------
 #p cam-b3lyp/Def2SVP td=(nstates=5) density=(transition=1)
 ----------------------------------------------------------

 --------------------------------
 TDDFT excited states in gaussian
 --------------------------------
 Symbolic Z-matrix:
 Charge =  0 Multiplicity = 1

                         Standard orientation:
 ---------------------------------------------------------------------
 Center     Atomic      Atomic             Coordinates (Angstroms)
 Number     Number       Type             X           Y           Z
 ---------------------------------------------------------------------
      1         12           0      -13.666932   -0.474070    0.288694
      2          6           0      -13.632203    2.907972   -0.697958
      3          6           0      -12.244304    0.418802    3.239899
      4          6           0      -13.617050   -3.747908    1.136895
      5          6           0      -14.699567   -1.330471   -2.914239
      6          7           0      -12.932320    1.394280    1.121724
      7          6           0      -13.125968    2.672714    0.591371
      8          6           0      -12.726697    3.698775    1.608895
      9          6           0      -11.865882    2.873316    2.594484
     10          6           0      -12.387125    1.443136    2.299728
     11          6           0      -10.316200    2.915443    2.408750
     12          6           0      -13.908997    4.463272    2.315056
     13          6           0      -13.737171    5.947692    2.376541
     14          1           0      -14.058818    6.622266    3.723196
     15          7           0      -13.126888   -1.462587    1.964386
     16          6           0      -12.629348   -0.908554    3.155623
     17          6           0      -12.442268   -1.920429    4.117425
     18          6           0      -12.852430   -3.207151    3.527138
     19          6           0      -13.228190   -2.848199    2.189415
     20          6           0      -11.794331   -1.746217    5.459868
     21          6           0      -12.826386   -4.699827    4.074977
     22          8           0      -13.242214   -5.614326    3.403801
     23          6           0      -12.373829   -5.005395    5.495678
     24          7           0      -13.995213   -2.290709   -0.787185
     25          6           0      -13.887818   -3.507712   -0.194000
     26          6           0      -14.186452   -4.669268   -1.257939
     27          6           0      -14.829721   -3.875702   -2.478010
     28          6           0      -14.490580   -2.384363   -2.050817
     29          6           0      -12.968799   -5.525735   -1.702801
     30          6           0      -16.370292   -4.116053   -2.663810
     31          6           0      -16.686563   -4.530656   -4.039226
     32          7           0      -14.039726    0.544192   -1.473905
     33          6           0      -14.562787    0.069416   -2.675726
     34          6           0      -14.781851    1.165546   -3.579699
     35          6           0      -14.406637    2.281357   -2.859593
     36          6           0      -14.003033    1.891523   -1.621569
     37          6           0      -15.406340    0.974705   -4.986521
     38          6           0      -14.251872    3.723366   -2.916016
     39          8           0      -14.381128    4.450362   -3.876247
     40          6           0      -13.704834    4.198608   -1.479578
     41          6           0      -12.407755    4.875481   -1.662037
     42          8           0      -11.396688    4.347703   -2.195230
     43          8           0      -12.520329    6.152791   -1.196609
     44          6           0      -11.439267    7.067461   -1.650154
     45          1           0      -11.748982    0.774513    4.145716
     46          1           0      -13.616944   -4.823978    1.321808
     47          1           0      -14.954810   -1.621175   -3.934919
     48          1           0      -12.029333    4.448476    1.233130
     49          1           0      -12.016746    3.147192    3.638816
     50          1           0       -9.939640    3.874227    2.049934
     51          1           0      -10.058799    2.110745    1.719565
     52          1           0       -9.726713    2.633307    3.280733
     53          1           0      -13.986073    4.009418    3.302889
     54          1           0      -14.869171    4.231069    1.853428
     55          1           0      -14.404619    6.266361    1.575722
     56          1           0      -12.690379    6.201197    2.209532
     57          1           0      -12.466510   -1.782961    6.317429
     58          1           0      -11.373761   -0.743533    5.524851
     59          1           0      -10.980504   -2.417408    5.732944
     60          1           0      -12.591343   -6.061496    5.650399
     61          1           0      -12.807182   -4.309286    6.214423
     62          1           0      -11.333133   -4.705587    5.622273
     63          1           0      -14.840579   -5.419505   -0.813384
     64          1           0      -14.284537   -4.142804   -3.384516
     65          1           0      -11.994715   -5.222780   -1.317367
     66          1           0      -12.840926   -5.557646   -2.785091
     67          1           0      -13.166652   -6.544573   -1.368684
     68          1           0      -16.890158   -3.171459   -2.499585
     69          1           0      -16.789693   -4.891109   -2.022663
     70          1           0      -16.811819   -5.613654   -4.054039
     71          1           0      -16.031096   -4.218958   -4.851665
     72          1           0      -17.607366   -4.043024   -4.359475
     73          1           0      -15.890567   -0.001236   -5.028148
     74          1           0      -14.684791    1.186054   -5.777025
     75          1           0      -16.204267    1.715428   -5.023364
     76          1           0      -14.406761    4.869930   -0.984230
     77          1           0      -11.663651    8.092669   -1.356170
     78          1           0      -11.514861    7.071577   -2.737740
     79          1           0      -10.501764    6.653310   -1.278063
     80         12           0       12.910851   -0.638184   -0.544283
     81          6           0       15.474637    1.749113   -0.088550
     82          6           0       10.685037    1.487578    0.639497
     83          6           0       10.772218   -3.279231   -0.192217
     84          6           0       15.622801   -3.137358   -0.817502
     85          7           0       13.122340    1.381427    0.241104
     86          6           0       14.173487    2.215874    0.106661
     87          6           0       13.708799    3.660680    0.375310
     88          6           0       12.229144    3.579576    0.573767
     89          6           0       11.958991    2.045164    0.526275
     90          6           0       11.729237    4.399106    1.833030
     91          6           0       14.144011    4.783181   -0.625161
     92          6           0       13.204320    6.011045   -0.990319
     93          1           0       13.819536    7.417612   -1.028975
     94          7           0       10.916442   -0.792838   -0.097665
     95          6           0       10.150197    0.244920    0.382949
     96          6           0        8.806651   -0.237993    0.530506
     97          6           0        8.770074   -1.673327    0.333124
     98          6           0       10.190639   -1.977651    0.052945
     99          6           0        7.775747    0.709693    0.994053
    100          6           0        7.580027   -2.664384    0.327575
    101          8           0        7.771623   -3.827064    0.186284
    102          6           0        6.176421   -2.158920    0.246627
    103          7           0       13.209248   -2.900991   -0.458477
    104          6           0       12.101032   -3.675038   -0.435662
    105          6           0       12.443305   -5.194009   -0.562387
    106          6           0       13.983774   -5.170264   -0.803004
    107          6           0       14.335744   -3.667162   -0.678080
    108          6           0       12.063853   -6.048253    0.617917
    109          6           0       14.531956   -5.762857   -2.148115
    110          6           0       14.421449   -4.956496   -3.397775
    111          7           0       15.092280   -0.801065   -0.500875
    112          6           0       15.974787   -1.828280   -0.675494
    113          6           0       17.316288   -1.300714   -0.731275
    114          6           0       17.211617    0.097237   -0.506605
    115          6           0       15.834647    0.339217   -0.325993
    116          6           0       18.592985   -2.061630   -0.803555
    117          6           0       17.928917    1.329795   -0.346343
    118          8           0       19.114877    1.629802   -0.422269
    119          6           0       16.835591    2.467542   -0.117145
    120          6           0       17.142737    3.353831    1.078125
    121          8           0       17.155726    2.964073    2.217186
    122          8           0       17.351061    4.652313    0.641076
    123          6           0       17.690521    5.578329    1.722103
    124          1           0        9.854787    2.173066    0.823946
    125          1           0       10.016885   -4.063588   -0.113644
    126          1           0       16.421032   -3.858653   -1.004115
    127          1           0       14.276226    3.837441    1.289041
    128          1           0       11.759068    4.093645   -0.265053
    129          1           0       12.556642    4.982967    2.235947
    130          1           0       11.235572    3.698346    2.506272
    131          1           0       11.029947    5.183215    1.542150
    132          1           0       14.363668    4.286426   -1.570512
    133          1           0       15.093708    5.235989   -0.339103
    134          1           0       12.411410    5.972800   -0.243102
    135          1           0       12.738179    5.823931   -1.957762
    136          1           0        7.116143    0.129634    1.639071
    137          1           0        7.202345    1.009493    0.117680
    138          1           0        8.031184    1.629517    1.520410
    139          1           0        5.898863   -2.083017    1.297148
    140          1           0        5.594359   -2.826355   -0.389588
    141          1           0        6.072172   -1.140939   -0.129449
    142          1           0       12.041413   -5.625552   -1.479315
    143          1           0       14.653068   -5.586458   -0.050710
    144          1           0       11.422150   -5.505591    1.313276
    145          1           0       12.932048   -6.352701    1.203023
    146          1           0       11.535390   -6.904451    0.199423
    147          1           0       14.046022   -6.717006   -2.352285
    148          1           0       15.552842   -6.099641   -1.966510
    149          1           0       13.618115   -4.226759   -3.294760
    150          1           0       14.164688   -5.423242   -4.348994
    151          1           0       15.415737   -4.533916   -3.545859
    152          1           0       18.759859   -2.755781    0.019596
    153          1           0       19.370798   -1.339209   -0.554880
    154          1           0       18.725813   -2.539634   -1.774500
    155          1           0       16.829552    3.057280   -1.034030
    156          1           0       16.735355    6.086011    1.591494
    157          1           0       18.541351    6.128295    1.320643
    158          1           0       17.853584    5.081544    2.678754
 ---------------------------------------------------------------------

 SCF Done:  E(RCAM-B3LYP) =  -4069.81723145     A.U. after   18 cycles

 Excitation energies and oscillator strengths:

 Excited State   1:      Singlet-A      1.7017 eV  728.60 nm  f=0.3932  <S**2>=0.000
     310 -> 315        0.18692
     312 -> 314        0.68354
     310 <- 315        0.11021
 This state for optimization and/or second-order correction.
 Total Energy, E(TD-HF/TD-DFT) =  -4069.75469603
 Copying the excited state density for this state as the 1-particle RhoCI density.

 Excited State   2:      Singlet-A      1.7438 eV  710.98 nm  f=0.3894  <S**2>=0.000
     309 -> 316       -0.17831
     311 -> 313        0.68432
     309 <- 316       -0.10692

 Excited State   3:      Singlet-A      2.1898 eV  566.19 nm  f=0.0989  <S**2>=0.000
     310 -> 314        0.64185
     312 -> 315       -0.28237

 Excited State   4:      Singlet-A      2.2019 eV  563.07 nm  f=0.1673  <S**2>=0.000
     309 -> 313        0.65353
     311 -> 316        0.24969

 Excited State   5:      Singlet-A      2.9082 eV  426.32 nm  f=0.0000  <S**2>=0.000
     312 -> 313        0.70709

 The electronic state is 1-A.
 Alpha  occ. eigenvalues --  -46.89996 -46.87252 -19.25747 -19.24741 -19.20031
 Alpha  occ. eigenvalues --  -19.19951 -19.19601 -19.19579 -19.19111 -19.18634
 Alpha  occ. eigenvalues --  -14.42217 -14.42135 -14.41783 -14.41573 -14.39497
 Alpha  occ. eigenvalues --  -14.39359 -14.38810 -14.38627 -10.39515 -10.39122
 Alpha  occ. eigenvalues --  -10.36405 -10.35728 -10.35113 -10.34800 -10.32271
 Alpha  occ. eigenvalues --  -10.31629 -10.31264 -10.31128 -10.31123 -10.30887
 Alpha  occ. eigenvalues --  -10.30713 -10.30699 -10.30694 -10.30690 -10.30506
 Alpha  occ. eigenvalues --  -10.30365 -10.29991 -10.29589 -10.29448 -10.29169
 Alpha  occ. eigenvalues --  -10.29017 -10.29010 -10.28743 -10.28675 -10.28592
 Alpha  occ. eigenvalues --  -10.28213 -10.28184 -10.28135 -10.28044 -10.27974
 Alpha  occ. eigenvalues --  -10.27933 -10.27928 -10.27845 -10.27838 -10.27834
 Alpha  occ. eigenvalues --  -10.27708 -10.27677 -10.27659 -10.27560 -10.27481
 Alpha  occ. eigenvalues --  -10.27366 -10.27297 -10.27288 -10.27030 -10.27022
 Alpha  occ. eigenvalues --  -10.26787 -10.26782 -10.26724 -10.26576 -10.26561
 Alpha  occ. eigenvalues --  -10.26544 -10.26422 -10.26352 -10.26260 -10.26191
 Alpha  occ. eigenvalues --  -10.26177 -10.26128 -10.25863 -10.25772 -10.25401
 Alpha  occ. eigenvalues --  -10.25395 -10.25108 -10.24967 -10.24881 -10.24713
 Alpha  occ. eigenvalues --  -10.24428  -3.18304  -3.15981  -1.93178  -1.92769
 Alpha  occ. eigenvalues --   -1.92595  -1.90885  -1.90425  -1.90305  -1.16295
 Alpha  occ. eigenvalues --   -1.15844  -1.12898  -1.11772  -1.10398  -1.09212
 Alpha  occ. eigenvalues --   -1.08543  -1.06421  -1.05017  -1.04223  -1.03414
 Alpha  occ. eigenvalues --   -1.03142  -1.02624  -1.02484  -1.01837  -1.01498
 Alpha  occ. eigenvalues --   -0.92656  -0.91615  -0.89308  -0.89285  -0.88879
 Alpha  occ. eigenvalues --   -0.88730  -0.88259  -0.88099  -0.87373  -0.87176
 Alpha  occ. eigenvalues --   -0.87102  -0.86485  -0.86096  -0.85898  -0.84391
 Alpha  occ. eigenvalues --   -0.84004  -0.83899  -0.83661  -0.82982  -0.82528
 Alpha  occ. eigenvalues --   -0.82176  -0.82000  -0.81265  -0.80841  -0.80739
 Alpha  occ. eigenvalues --   -0.80404  -0.78305  -0.78288  -0.77401  -0.77161
 Alpha  occ. eigenvalues --   -0.77101  -0.76850  -0.75857  -0.75810  -0.74956
 Alpha  occ. eigenvalues --   -0.74653  -0.72955  -0.72329  -0.71471  -0.71003
 Alpha  occ. eigenvalues --   -0.69816  -0.69275  -0.68684  -0.68205  -0.68181
 Alpha  occ. eigenvalues --   -0.67665  -0.66907  -0.66615  -0.65590  -0.65248
 Alpha  occ. eigenvalues --   -0.64921  -0.64645  -0.64305  -0.64141  -0.64117
 Alpha  occ. eigenvalues --   -0.64014  -0.62025  -0.61710  -0.60394  -0.60189
 Alpha  occ. eigenvalues --   -0.60028  -0.59554  -0.59323  -0.58806  -0.58351
 Alpha  occ. eigenvalues --   -0.58284  -0.58000  -0.57765  -0.57694  -0.57387
 Alpha  occ. eigenvalues --   -0.56228  -0.56151  -0.55882  -0.55758  -0.55587
 Alpha  occ. eigenvalues --   -0.55391  -0.55075  -0.55055  -0.54587  -0.54061
 Alpha  occ. eigenvalues --   -0.53907  -0.53723  -0.53627  -0.53514  -0.53345
 Alpha  occ. eigenvalues --   -0.52769  -0.52702  -0.52659  -0.52376  -0.51954
 Alpha  occ. eigenvalues --   -0.51896  -0.51731  -0.51624  -0.51197  -0.51103
 Alpha  occ. eigenvalues --   -0.50970  -0.50933  -0.50829  -0.50618  -0.50526
 Alpha  occ. eigenvalues --   -0.50299  -0.50185  -0.50036  -0.49875  -0.49529
 Alpha  occ. eigenvalues --   -0.49525  -0.49478  -0.49203  -0.49177  -0.48984
 Alpha  occ. eigenvalues --   -0.48794  -0.48772  -0.48598  -0.48341  -0.48026
 Alpha  occ. eigenvalues --   -0.47746  -0.47697  -0.47331  -0.47209  -0.47138
 Alpha  occ. eigenvalues --   -0.46857  -0.46766  -0.46718  -0.46532  -0.46218
 Alpha  occ. eigenvalues --   -0.46032  -0.45919  -0.45853  -0.45783  -0.45555
 Alpha  occ. eigenvalues --   -0.45476  -0.45431  -0.45156  -0.44820  -0.44748
 Alpha  occ. eigenvalues --   -0.44631  -0.44563  -0.44525  -0.44408  -0.44333
 Alpha  occ. eigenvalues --   -0.44091  -0.43718  -0.43644  -0.43471  -0.43421
 Alpha  occ. eigenvalues --   -0.43249  -0.43001  -0.42993  -0.42953  -0.42932
 Alpha  occ. eigenvalues --   -0.42685  -0.42612  -0.42346  -0.42343  -0.42036
 Alpha  occ. eigenvalues --   -0.42015  -0.41955  -0.41830  -0.41464  -0.41296
 Alpha  occ. eigenvalues --   -0.41021  -0.40877  -0.40598  -0.40546  -0.40155
 Alpha  occ. eigenvalues --   -0.40128  -0.39224  -0.39194  -0.38963  -0.38914
 Alpha  occ. eigenvalues --   -0.38425  -0.38119  -0.37921  -0.37908  -0.37897
 Alpha  occ. eigenvalues --   -0.37387  -0.36904  -0.36840  -0.36407  -0.36061
 Alpha  occ. eigenvalues --   -0.35914  -0.35719  -0.34628  -0.34317  -0.34225
 Alpha  occ. eigenvalues --   -0.33558  -0.33228  -0.33154  -0.31826  -0.31793
 Alpha  occ. eigenvalues --   -0.31344  -0.30933  -0.30840  -0.30611  -0.30056
 Alpha  occ. eigenvalues --   -0.29832  -0.29633  -0.29345  -0.24041  -0.23826
 Alpha  occ. eigenvalues --   -0.21600  -0.21056
 Alpha virt. eigenvalues --   -0.09083  -0.08644  -0.01626  -0.01341   0.00314
 Alpha virt. eigenvalues --    0.00668   0.01159   0.02512   0.02722   0.03380
 Alpha virt. eigenvalues --    0.04425   0.04508   0.05332   0.05685   0.05948

 Mulliken charges:
               1
     1  Mg  12.000054
     2  C    6.001050
     3  C    6.000178
     4  C    5.998892
     5  C    5.999917
     6  N    7.000610
     7  C    5.998786
     8  C    6.000395
     9  C    5.999735
    10  C    6.000637
    11  C    5.999744
    12  C    6.000156
    13  C    6.000107
    14  H    0.999556
    15  N    6.999829
    16  C    6.000908
    17  C    6.000807
    18  C    6.000451
    19  C    6.001162
    20  C    5.999682
    21  C    6.000460
    22  O    8.000698
    23  C    5.999881
    24  N    6.999545
    25  C    6.001274
    26  C    5.999725
    27  C    6.000199
    28  C    5.999459
    29  C    5.999975
    30  C    6.000180
    31  C    6.000121
    32  N    7.000095
    33  C    5.999039
    34  C    5.998917
    35  C    6.000137
    36  C    5.998855
    37  C    6.000072
    38  C    5.999446
    39  O    7.999067
    40  C    5.999819
    41  C    5.999887
    42  O    8.000183
    43  O    7.999836
    44  C    6.000008
    45  H    1.000662
    46  H    1.000048
    47  H    0.999435
    48  H    1.000059
    49  H    0.999993
    50  H    1.000668
    51  H    1.000375
    52  H    1.000297
    53  H    0.999505
    54  H    0.999913
    55  H    1.000014
    56  H    1.000133
    57  H    1.000535
    58  H    1.000727
    59  H    1.000956
    60  H    1.000293
    61  H    0.999991
    62  H    1.000501
    63  H    0.999771
    64  H    0.999950
    65  H    1.000237
    66  H    1.000279
    67  H    0.999840
    68  H    0.999999
    69  H    0.999460
    70  H    0.999646
    71  H    1.000100
    72  H    0.999788
    73  H    0.999341
    74  H    0.999339
    75  H    0.999202
    76  H    0.999592
    77  H    0.999696
    78  H    0.999957
    79  H    1.000164
    80  Mg  11.998746
    81  C    5.968399
    82  C    6.014533
    83  C    6.022674
    84  C    5.993283
    85  N    6.984864
    86  C    6.039727
    87  C    5.992616
    88  C    6.013220
    89  C    5.965676
    90  C    5.999870
    91  C    5.998862
    92  C    6.002228
    93  H    0.997750
    94  N    7.011098
    95  C    5.956135
    96  C    5.981264
    97  C    5.980835
    98  C    5.965523
    99  C    6.007841
   100  C    5.986395
   101  O    7.974596
   102  C    6.005000
   103  N    7.001523
   104  C    5.968837
   105  C    6.013052
   106  C    5.996107
   107  C    6.027118
   108  C    6.000621
   109  C    5.994532
   110  C    5.991613
   111  N    6.995457
   112  C    6.036758
   113  C    6.037594
   114  C    5.999823
   115  C    6.039056
   116  C    5.996043
   117  C    6.013346
   118  O    8.029489
   119  C    6.004057
   120  C    6.003771
   121  O    8.003580
   122  O    8.001418
   123  C    5.998436
   124  H    0.991060
   125  H    0.995172
   126  H    1.012027
   127  H    0.997711
   128  H    0.994642
   129  H    0.987740
   130  H    1.003644
   131  H    0.997131
   132  H    0.997500
   133  H    0.995920
   134  H    1.007420
   135  H    1.002197
   136  H    0.981374
   137  H    0.978298
   138  H    0.979182
   139  H    0.990970
   140  H    0.985814
   141  H    0.996256
   142  H    0.997943
   143  H    0.998641
   144  H    1.007437
   145  H    0.990468
   146  H    0.998479
   147  H    1.012011
   148  H    0.998591
   149  H    1.010564
   150  H    1.008209
   151  H    0.993219
   152  H    1.024108
   153  H    1.014609
   154  H    1.021822
   155  H    1.006118
   156  H    1.006208
   157  H    1.001988
   158  H    1.002158
 Sum of Mulliken charges = 624.00000

 Dipole moment (field-independent basis, Debye):
    X=             10.9486    Y=             -0.6368    Z=             -1.2534  Tot=             11.0385
 Quadrupole moment (field-independent basis, Debye-Ang):
   XX=            277.9846   YY=              2.3694   ZZ=              0.9886
   XY=            -13.3916   XZ=            -25.1474   YZ=              1.8653

 Normal termination of Gaussian 16 at Tue Sep 21 21:23:42 2021.
