 Gaussian 16, Revision A.03,
 Gaussian 16:  ES64L-G16RevA.03 25-Dec-2016

 -----------------------------------
 #p cam-b3lyp/Def2SVP td=(nstates=5)
 -----------------------------------

 --------------------------------
 TDDFT excited states in gaussian
 --------------------------------
 Symbolic Z-matrix:
 Charge =  0 Multiplicity = 1

                         Standard orientation:
 ---------------------------------------------------------------------
 Center     Atomic      Atomic             Coordinates (Angstroms)
 Number     Number       Type             X           Y           Z
 ---------------------------------------------------------------------
      1         12           0      -31.325843   -0.091624   -0.200722
      2          6           0      -27.884962    0.499940    0.047596
      3          6           0      -30.704911   -3.053161    1.473917
      4          6           0      -34.624922   -0.583925   -0.075336
      5          6           0      -31.814475    3.253093   -1.092068
      6          7           0      -29.380634   -1.070821    0.869444
      7          6           0      -28.102816   -0.678727    0.704163
      8          6           0      -27.100269   -1.590207    1.370294
      9          6           0      -28.061202   -2.829546    1.528962
     10          6           0      -29.489751   -2.329954    1.339243
     11          6           0      -27.758131   -3.879212    0.426626
     12          6           0      -26.480141   -0.929155    2.607803
     13          6           0      -27.362696   -0.084786    3.550469
     14          1           0      -27.237823   -0.396054    5.037211
     15          7           0      -32.492164   -1.587250    0.565796
     16          6           0      -32.025442   -2.758962    1.100006
     17          6           0      -33.100570   -3.758936    1.064266
     18          6           0      -34.324680   -3.038076    0.762979
     19          6           0      -33.822442   -1.681788    0.385260
     20          6           0      -32.933760   -5.213276    1.649733
     21          6           0      -35.753144   -3.584264    0.828069
     22          8           0      -35.952570   -4.751237    1.020841
     23          6           0      -36.919519   -2.665899    0.603013
     24          7           0      -32.997134    1.290892   -0.345592
     25          6           0      -34.326307    0.829349   -0.370515
     26          6           0      -35.373234    1.974090   -0.706377
     27          6           0      -34.397387    3.185933   -1.090767
     28          6           0      -32.956891    2.532120   -0.870697
     29          6           0      -36.541550    1.717791   -1.783947
     30          6           0      -34.595955    4.566343   -0.313579
     31          6           0      -34.260550    5.810327   -1.275876
     32          7           0      -30.130735    1.589066   -0.539030
     33          6           0      -30.470112    2.850762   -0.983484
     34          6           0      -29.253059    3.618356   -1.217698
     35          6           0      -28.168014    2.759745   -0.903981
     36          6           0      -28.764707    1.542676   -0.413224
     37          6           0      -29.159610    4.981093   -1.852596
     38          6           0      -26.688022    2.582867   -0.742242
     39          8           0      -25.787246    3.383651   -0.858206
     40          6           0      -26.505888    1.108349   -0.182309
     41          6           0      -25.702462    0.356553   -1.207672
     42          8           0      -24.461055    0.481044   -1.356710
     43          8           0      -26.510595   -0.578891   -1.837459
     44          6           0      -25.831125   -1.516420   -2.667744
     45          1           0      -30.500710   -4.028973    1.919695
     46          1           0      -35.694659   -0.689579   -0.268754
     47          1           0      -31.973349    4.226851   -1.560324
     48          1           0      -26.325794   -1.914757    0.675598
     49          1           0      -28.043233   -3.371352    2.473626
     50          1           0      -28.715045   -4.344602    0.189103
     51          1           0      -26.969282   -4.556943    0.749898
     52          1           0      -27.473785   -3.537524   -0.569108
     53          1           0      -25.757704   -0.210045    2.222942
     54          1           0      -25.968700   -1.701524    3.182363
     55          1           0      -28.409560   -0.262231    3.305360
     56          1           0      -27.071435    0.959344    3.439866
     57          1           0      -32.972553   -5.280967    2.737278
     58          1           0      -31.993812   -5.640486    1.300160
     59          1           0      -33.632402   -5.961963    1.278054
     60          1           0      -37.869943   -3.150265    0.829396
     61          1           0      -36.971424   -2.279380   -0.415029
     62          1           0      -36.776095   -1.929488    1.394173
     63          1           0      -35.804237    2.113878    0.284272
     64          1           0      -34.459136    3.414470   -2.154359
     65          1           0      -37.398028    1.323687   -1.238171
     66          1           0      -36.224044    1.022120   -2.560200
     67          1           0      -36.773371    2.665058   -2.271250
     68          1           0      -33.858460    4.677772    0.481189
     69          1           0      -35.592144    4.630896    0.124774
     70          1           0      -33.428068    6.394417   -0.883347
     71          1           0      -35.133764    6.458184   -1.346744
     72          1           0      -33.892673    5.616176   -2.282795
     73          1           0      -29.735965    5.680981   -1.248504
     74          1           0      -29.591074    4.948272   -2.853257
     75          1           0      -28.136836    5.356507   -1.881391
     76          1           0      -25.846608    1.236250    0.675943
     77          1           0      -26.544112   -2.256521   -3.030341
     78          1           0      -24.953683   -1.925211   -2.166358
     79          1           0      -25.496193   -1.067438   -3.602765
     80         12           0       31.051586    0.521897   -0.327767
     81          6           0       28.779267   -2.134437    0.156839
     82          6           0       28.843355    2.640290    1.346690
     83          6           0       33.640351    2.700564    0.079769
     84          6           0       33.354286   -1.941284   -1.536143
     85          7           0       29.072088    0.267230    0.581767
     86          6           0       28.367260   -0.879428    0.685279
     87          6           0       27.076840   -0.670243    1.542739
     88          6           0       26.994163    0.925332    1.546387
     89          6           0       28.422521    1.362311    1.086021
     90          6           0       25.987779    1.668969    0.639243
     91          6           0       27.299085   -1.314115    2.963396
     92          6           0       26.026195   -1.968763    3.568262
     93          1           0       25.811349   -1.739124    5.119636
     94          7           0       31.187210    2.545741    0.424989
     95          6           0       30.137986    3.201222    1.012764
     96          6           0       30.594300    4.504180    1.316540
     97          6           0       31.992464    4.581104    1.043867
     98          6           0       32.351628    3.256653    0.434963
     99          6           0       29.748783    5.597566    1.925685
    100          6           0       32.920833    5.680359    1.433747
    101          8           0       32.551735    6.628063    2.108558
    102          6           0       34.327724    5.716227    1.130103
    103          7           0       33.245461    0.315903   -0.596680
    104          6           0       34.044170    1.465195   -0.502747
    105          6           0       35.419935    1.194140   -1.026287
    106          6           0       35.381283   -0.308365   -1.492037
    107          6           0       33.939840   -0.693208   -1.206793
    108          6           0       35.734736    2.195919   -2.144591
    109          6           0       36.563345   -1.179640   -0.922256
    110          6           0       37.436887   -1.873625   -1.922908
    111          7           0       31.101243   -1.637574   -0.686925
    112          6           0       32.084278   -2.433086   -1.222408
    113          6           0       31.567783   -3.797725   -1.466799
    114          6           0       30.287645   -3.692158   -0.861026
    115          6           0       30.038575   -2.381149   -0.500558
    116          6           0       32.287501   -5.022865   -2.008477
    117          6           0       29.167971   -4.486777   -0.430813
    118          8           0       28.985594   -5.711932   -0.505595
    119          6           0       28.130520   -3.571162    0.218425
    120          6           0       26.818220   -3.696185   -0.442895
    121          8           0       25.847154   -4.028206    0.134495
    122          8           0       26.798106   -3.206527   -1.716791
    123          6           0       25.410909   -3.119948   -2.222457
    124          1           0       28.145234    3.349621    1.797082
    125          1           0       34.400021    3.480290    0.153922
    126          1           0       33.915522   -2.826064   -1.845605
    127          1           0       26.245572   -1.147718    1.023686
    128          1           0       27.050897    1.391735    2.529791
    129          1           0       25.741775    1.061366   -0.232365
    130          1           0       26.282461    2.662158    0.300213
    131          1           0       25.076416    1.762695    1.228817
    132          1           0       27.722145   -0.586288    3.656358
    133          1           0       28.059771   -2.077468    2.799558
    134          1           0       26.166246   -3.029028    3.356996
    135          1           0       25.233608   -1.586359    2.924707
    136          1           0       30.095742    6.619477    1.772117
    137          1           0       29.747950    5.352864    2.987519
    138          1           0       28.672561    5.527523    1.767634
    139          1           0       34.413993    5.717322    0.042768
    140          1           0       34.853347    4.882679    1.596839
    141          1           0       34.744488    6.637375    1.537511
    142          1           0       36.146457    1.195768   -0.214074
    143          1           0       35.302228   -0.503907   -2.561662
    144          1           0       35.049369    3.043471   -2.169432
    145          1           0       35.664421    1.735879   -3.130248
    146          1           0       36.657684    2.724812   -1.908671
    147          1           0       36.075713   -1.905835   -0.271893
    148          1           0       37.324479   -0.603293   -0.397597
    149          1           0       37.438679   -2.932476   -1.665597
    150          1           0       38.472552   -1.539348   -1.858861
    151          1           0       37.168021   -1.651238   -2.955598
    152          1           0       32.865289   -5.543755   -1.244705
    153          1           0       32.900721   -4.809390   -2.884876
    154          1           0       31.442320   -5.676179   -2.224802
    155          1           0       27.917023   -3.918607    1.228450
    156          1           0       25.453577   -2.724501   -3.237633
    157          1           0       24.806812   -2.476829   -1.582634
    158          1           0       24.927760   -4.084258   -2.376023
 ---------------------------------------------------------------------

 SCF Done:  E(RCAM-B3LYP) =  -4069.77891693     A.U. after   19 cycles

 Excitation energies and oscillator strengths:

 Excited State   1:      Singlet-A      1.6804 eV  737.81 nm  f=0.4070  <S**2>=0.000
     309 -> 315        0.17287
     311 -> 313        0.68702
     309 <- 315        0.10657
 This state for optimization and/or second-order correction.
 Total Energy, E(TD-HF/TD-DFT) =  -4069.71716209
 Copying the excited state density for this state as the 1-particle RhoCI density.

 Excited State   2:      Singlet-A      1.7468 eV  709.76 nm  f=0.3591  <S**2>=0.000
     310 -> 316        0.19411
     312 -> 314        0.68069
     310 <- 316        0.10946

 Excited State   3:      Singlet-A      2.2017 eV  563.14 nm  f=0.1140  <S**2>=0.000
     309 -> 313        0.64204
     311 -> 315       -0.28114

 Excited State   4:      Singlet-A      2.2374 eV  554.14 nm  f=0.1042  <S**2>=0.000
     310 -> 314        0.63526
     312 -> 316       -0.29902

 Excited State   5:      Singlet-A      3.1170 eV  397.76 nm  f=0.0000  <S**2>=0.000
     312 -> 313        0.70711

 The electronic state is 1-A.
 Alpha  occ. eigenvalues --  -46.90841 -46.90396 -19.26040 -19.25116 -19.20013
 Alpha  occ. eigenvalues --  -19.19921 -19.19546 -19.19040 -19.18848 -19.17325
 Alpha  occ. eigenvalues --  -14.42979 -14.42706 -14.42260 -14.41812 -14.40523
 Alpha  occ. eigenvalues --  -14.39910 -14.39475 -14.39304 -10.39975 -10.38734
 Alpha  occ. eigenvalues --  -10.35788 -10.35305 -10.34777 -10.33509 -10.32831
 Alpha  occ. eigenvalues --  -10.32247 -10.31989 -10.31979 -10.31864 -10.31831
 Alpha  occ. eigenvalues --  -10.31824 -10.31129 -10.31068 -10.30992 -10.30850
 Alpha  occ. eigenvalues --  -10.30587 -10.30211 -10.30187 -10.29886 -10.29862
 Alpha  occ. eigenvalues --  -10.29582 -10.29549 -10.29312 -10.29265 -10.29087
 Alpha  occ. eigenvalues --  -10.29036 -10.28957 -10.28913 -10.28774 -10.28537
 Alpha  occ. eigenvalues --  -10.28525 -10.28509 -10.28465 -10.28442 -10.28429
 Alpha  occ. eigenvalues --  -10.28392 -10.28174 -10.28152 -10.28066 -10.27994
 Alpha  occ. eigenvalues --  -10.27909 -10.27793 -10.27788 -10.27752 -10.27747
 Alpha  occ. eigenvalues --  -10.27722 -10.27544 -10.27484 -10.27045 -10.26973
 Alpha  occ. eigenvalues --  -10.26875 -10.26812 -10.26664 -10.26522 -10.26429
 Alpha  occ. eigenvalues --  -10.26394 -10.26294 -10.26261 -10.26220 -10.26177
 Alpha  occ. eigenvalues --  -10.25946 -10.25887 -10.25755 -10.25454 -10.25294
 Alpha  occ. eigenvalues --  -10.25263  -3.18988  -3.18759  -1.93902  -1.93622
 Alpha  occ. eigenvalues --   -1.93424  -1.93283  -1.93234  -1.93049  -1.17976
 Alpha  occ. eigenvalues --   -1.16457  -1.11505  -1.10657  -1.09556  -1.09044
 Alpha  occ. eigenvalues --   -1.08959  -1.07049  -1.05119  -1.04786  -1.03888
 Alpha  occ. eigenvalues --   -1.03754  -1.03440  -1.02963  -1.02540  -1.01897
 Alpha  occ. eigenvalues --   -0.92634  -0.92513  -0.89429  -0.89025  -0.89019
 Alpha  occ. eigenvalues --   -0.88337  -0.88240  -0.88066  -0.87741  -0.87346
 Alpha  occ. eigenvalues --   -0.87020  -0.86049  -0.85828  -0.85666  -0.84887
 Alpha  occ. eigenvalues --   -0.84851  -0.84660  -0.83351  -0.82718  -0.82713
 Alpha  occ. eigenvalues --   -0.82520  -0.81882  -0.80933  -0.80808  -0.80557
 Alpha  occ. eigenvalues --   -0.80368  -0.78665  -0.77618  -0.77537  -0.77290
 Alpha  occ. eigenvalues --   -0.76874  -0.76707  -0.76501  -0.76421  -0.75437
 Alpha  occ. eigenvalues --   -0.75323  -0.73151  -0.72815  -0.72524  -0.72060
 Alpha  occ. eigenvalues --   -0.69934  -0.69404  -0.69379  -0.69271  -0.68221
 Alpha  occ. eigenvalues --   -0.67964  -0.67160  -0.66904  -0.66357  -0.65899
 Alpha  occ. eigenvalues --   -0.65718  -0.65001  -0.64896  -0.64839  -0.64656
 Alpha  occ. eigenvalues --   -0.64630  -0.63719  -0.63313  -0.60086  -0.60032
 Alpha  occ. eigenvalues --   -0.60029  -0.59275  -0.58999  -0.58958  -0.58894
 Alpha  occ. eigenvalues --   -0.58315  -0.58179  -0.57797  -0.57348  -0.57084
 Alpha  occ. eigenvalues --   -0.56515  -0.56295  -0.56093  -0.56086  -0.55562
 Alpha  occ. eigenvalues --   -0.55492  -0.55141  -0.55065  -0.54559  -0.54302
 Alpha  occ. eigenvalues --   -0.53666  -0.53512  -0.53389  -0.53216  -0.53203
 Alpha  occ. eigenvalues --   -0.53064  -0.52830  -0.52788  -0.52662  -0.52272
 Alpha  occ. eigenvalues --   -0.51930  -0.51763  -0.51638  -0.51477  -0.51443
 Alpha  occ. eigenvalues --   -0.51338  -0.51089  -0.50896  -0.50700  -0.50555
 Alpha  occ. eigenvalues --   -0.50052  -0.50048  -0.49941  -0.49863  -0.49719
 Alpha  occ. eigenvalues --   -0.49570  -0.49553  -0.49274  -0.49044  -0.48936
 Alpha  occ. eigenvalues --   -0.48693  -0.48625  -0.48404  -0.48378  -0.48209
 Alpha  occ. eigenvalues --   -0.47572  -0.47532  -0.47336  -0.47315  -0.47240
 Alpha  occ. eigenvalues --   -0.46967  -0.46951  -0.46800  -0.46688  -0.46673
 Alpha  occ. eigenvalues --   -0.46360  -0.46336  -0.46318  -0.46084  -0.45764
 Alpha  occ. eigenvalues --   -0.45692  -0.45559  -0.45327  -0.45207  -0.45143
 Alpha  occ. eigenvalues --   -0.45094  -0.44885  -0.44860  -0.44689  -0.44356
 Alpha  occ. eigenvalues --   -0.44251  -0.44020  -0.43957  -0.43859  -0.43639
 Alpha  occ. eigenvalues --   -0.43600  -0.43387  -0.43334  -0.43269  -0.43008
 Alpha  occ. eigenvalues --   -0.42987  -0.42884  -0.42786  -0.42652  -0.42302
 Alpha  occ. eigenvalues --   -0.42227  -0.42215  -0.42004  -0.41787  -0.41737
 Alpha  occ. eigenvalues --   -0.41284  -0.41237  -0.41032  -0.40797  -0.40377
 Alpha  occ. eigenvalues --   -0.40140  -0.39922  -0.39637  -0.39239  -0.39100
 Alpha  occ. eigenvalues --   -0.38947  -0.38681  -0.38124  -0.37903  -0.37642
 Alpha  occ. eigenvalues --   -0.37277  -0.37241  -0.37194  -0.36893  -0.36784
 Alpha  occ. eigenvalues --   -0.36407  -0.36320  -0.34926  -0.34690  -0.34395
 Alpha  occ. eigenvalues --   -0.34138  -0.33497  -0.33159  -0.31498  -0.31375
 Alpha  occ. eigenvalues --   -0.31208  -0.30978  -0.30905  -0.30610  -0.30396
 Alpha  occ. eigenvalues --   -0.30012  -0.29733  -0.29204  -0.24513  -0.24036
 Alpha  occ. eigenvalues --   -0.21579  -0.21396
 Alpha virt. eigenvalues --   -0.09388  -0.08637  -0.02257  -0.02081   0.00092
 Alpha virt. eigenvalues --    0.00281   0.00765   0.01210   0.02006   0.02425
 Alpha virt. eigenvalues --    0.04433   0.04687   0.05441   0.05487   0.05912

 Mulliken charges:
               1
     1  Mg   0.821364
     2  C    0.141383
     3  C   -0.072404
     4  C   -0.088181
     5  C   -0.079395
     6  N   -0.220267
     7  C   -0.143080
     8  C    0.066447
     9  C   -0.054789
    10  C   -0.010667
    11  C    0.063593
    12  C    0.064047
    13  C   -0.078563
    14  H    0.015492
    15  N   -0.372565
    16  C    0.163203
    17  C   -0.137161
    18  C   -0.058524
    19  C    0.190590
    20  C    0.093536
    21  C   -0.010336
    22  O   -0.168285
    23  C    0.051844
    24  N   -0.300583
    25  C   -0.021030
    26  C   -0.011939
    27  C   -0.040257
    28  C    0.044999
    29  C    0.055019
    30  C    0.036440
    31  C   -0.036868
    32  N   -0.352634
    33  C    0.125098
    34  C   -0.196526
    35  C    0.022489
    36  C    0.045490
    37  C    0.117943
    38  C    0.064009
    39  O   -0.137420
    40  C   -0.139049
    41  C    0.228295
    42  O   -0.237481
    43  O   -0.322908
    44  C    0.183475
    45  H   -0.018132
    46  H   -0.048435
    47  H   -0.045700
    48  H    0.002313
    49  H   -0.000444
    50  H    0.003830
    51  H    0.026707
    52  H    0.004875
    53  H    0.013103
    54  H    0.020352
    55  H    0.050680
    56  H    0.037467
    57  H    0.040190
    58  H    0.005493
    59  H    0.031860
    60  H    0.019346
    61  H    0.059874
    62  H    0.032469
    63  H    0.026038
    64  H    0.015640
    65  H    0.028253
    66  H    0.025961
    67  H    0.028342
    68  H    0.025552
    69  H    0.018999
    70  H    0.017226
    71  H    0.020680
    72  H    0.021739
    73  H    0.015704
    74  H    0.029791
    75  H    0.034192
    76  H    0.055831
    77  H    0.031237
    78  H    0.037709
    79  H    0.027414
    80  Mg   0.801155
    81  C    0.004417
    82  C   -0.071522
    83  C   -0.019786
    84  C   -0.048259
    85  N   -0.286850
    86  C   -0.055418
    87  C   -0.042438
    88  C   -0.052347
    89  C    0.058017
    90  C    0.080544
    91  C    0.048731
    92  C   -0.050671
    93  H    0.026239
    94  N   -0.365232
    95  C    0.114123
    96  C   -0.149633
    97  C   -0.022457
    98  C    0.090982
    99  C    0.140519
   100  C   -0.050229
   101  O   -0.214555
   102  C    0.079033
   103  N   -0.287390
   104  C    0.025728
   105  C   -0.009799
   106  C   -0.012921
   107  C    0.028448
   108  C    0.074438
   109  C    0.039551
   110  C   -0.004087
   111  N   -0.281376
   112  C    0.026151
   113  C   -0.155021
   114  C    0.014936
   115  C    0.076313
   116  C    0.107434
   117  C    0.020279
   118  O   -0.190066
   119  C    0.052723
   120  C    0.149207
   121  O   -0.180114
   122  O   -0.336492
   123  C    0.181928
   124  H   -0.017964
   125  H   -0.053346
   126  H   -0.027258
   127  H    0.012533
   128  H    0.009882
   129  H    0.010240
   130  H    0.025069
   131  H    0.017239
   132  H    0.017871
   133  H    0.012945
   134  H    0.042888
   135  H    0.031798
   136  H    0.047183
   137  H    0.015836
   138  H   -0.004943
   139  H    0.029971
   140  H    0.043485
   141  H    0.024762
   142  H    0.021283
   143  H    0.015154
   144  H    0.014944
   145  H    0.018906
   146  H    0.014595
   147  H    0.016982
   148  H    0.015936
   149  H    0.020659
   150  H    0.008632
   151  H    0.012711
   152  H    0.041370
   153  H    0.029835
   154  H    0.041879
   155  H    0.031442
   156  H    0.027485
   157  H    0.035980
   158  H    0.039782
 Sum of Mulliken charges =  -0.00000

 Dipole moment (field-independent basis, Debye):
    X=             -1.8339    Y=              0.6568    Z=             -5.1896  Tot=              5.5432
 Quadrupole moment (field-independent basis, Debye-Ang):
   XX=            -25.6788   YY=           -573.9613   ZZ=           -506.3650
   XY=              1.5546   XZ=            -47.8493   YZ=             -5.3895

 Normal termination of Gaussian 16 at Thu Sep  2 00:01:21 2021.
