 Gaussian 16, Revision A.03,
 Gaussian 16:  ES64L-G16RevA.03 25-Dec-2016

 -----------------------------------------------------
 #p cam-b3lyp/Def2SVP td=(nstates=5) density=(current)
 -----------------------------------------------------

 --------------------------------
 TDDFT excited states in gaussian
 --------------------------------
 Symbolic Z-matrix:
 Charge =  0 Multiplicity = 1

                         Standard orientation:
 ---------------------------------------------------------------------
 Center     Atomic      Atomic             Coordinates (Angstroms)
 Number     Number       Type             X           Y           Z
 ---------------------------------------------------------------------
      1         12           0        0.807274    0.182252   -0.172958
      2          6           0       -2.687659    0.051262   -0.207873
      3          6           0        0.741451   -3.285554   -0.262334
      4          6           0        4.024182    0.271290    0.290560
      5          6           0        0.576455    3.702197    0.143878
      6          7           0       -0.832869   -1.478372    0.177926
      7          6           0       -2.135265   -1.261941   -0.032653
      8          6           0       -2.817770   -2.588628   -0.059835
      9          6           0       -1.733875   -3.608103    0.368433
     10          6           0       -0.506328   -2.775077    0.056982
     11          6           0       -1.737450   -4.172156    1.790331
     12          6           0       -3.398715   -2.917183   -1.471719
     13          6           0       -4.879011   -3.404947   -1.587446
     14          1           0       -5.510893   -4.205518   -0.406255
     15          7           0        2.238952   -1.332261   -0.155378
     16          6           0        1.982157   -2.674894   -0.399414
     17          6           0        3.249257   -3.329514   -0.438263
     18          6           0        4.256442   -2.324801   -0.145558
     19          6           0        3.555839   -1.057891    0.002700
     20          6           0        3.446188   -4.850606   -0.618805
     21          6           0        5.790486   -2.482355    0.060374
     22          8           0        6.531305   -1.587427    0.318650
     23          6           0        6.349218   -3.875266   -0.154113
     24          7           0        2.074347    1.775340    0.151567
     25          6           0        3.384915    1.537981    0.382767
     26          6           0        4.223819    2.821664    0.631712
     27          6           0        3.130046    3.928053    0.308473
     28          6           0        1.842924    3.125364    0.160660
     29          6           0        4.827707    2.830510    2.152197
     30          6           0        3.517774    4.867817   -0.876143
     31          6           0        2.940186    4.558922   -2.245787
     32          7           0       -0.712453    1.669063   -0.087787
     33          6           0       -0.647445    3.035784   -0.050323
     34          6           0       -2.052781    3.572466   -0.098553
     35          6           0       -2.867138    2.419235   -0.162509
     36          6           0       -2.024995    1.259343   -0.112950
     37          6           0       -2.502153    4.996941    0.082370
     38          6           0       -4.245086    1.939161   -0.232139
     39          8           0       -5.282204    2.608220   -0.250040
     40          6           0       -4.145483    0.428923   -0.425314
     41          6           0       -5.061910   -0.173383    0.600873
     42          8           0       -4.804892   -0.297326    1.784338
     43          8           0       -6.223620   -0.342556   -0.008914
     44          6           0       -7.411774   -0.519384    0.811181
     45          1           0        0.726427   -4.370759   -0.145616
     46          1           0        5.113530    0.338610    0.265721
     47          1           0        0.507434    4.789165    0.226415
     48          1           0       -3.649756   -2.565249    0.643264
     49          1           0       -1.877185   -4.481690   -0.267631
     50          1           0       -2.554311   -3.851024    2.436884
     51          1           0       -0.801808   -3.928765    2.294530
     52          1           0       -1.792450   -5.255217    1.682785
     53          1           0       -2.767751   -3.585785   -2.056972
     54          1           0       -3.300464   -1.932777   -1.929103
     55          1           0       -4.863450   -4.047015   -2.469036
     56          1           0       -5.514408   -2.540803   -1.779734
     57          1           0        4.060378   -5.301050    0.160982
     58          1           0        4.019057   -5.090255   -1.514758
     59          1           0        2.519128   -5.420589   -0.693155
     60          1           0        6.042098   -4.312476   -1.104404
     61          1           0        6.064396   -4.486259    0.702520
     62          1           0        7.434104   -3.868234   -0.049047
     63          1           0        5.070142    2.906896   -0.049663
     64          1           0        2.994862    4.644028    1.119033
     65          1           0        4.247295    3.596286    2.666968
     66          1           0        5.848297    3.209180    2.212179
     67          1           0        4.652491    1.907583    2.706166
     68          1           0        4.586736    4.695705   -1.002601
     69          1           0        3.366605    5.921113   -0.640770
     70          1           0        3.043290    3.476864   -2.335827
     71          1           0        3.614491    5.122368   -2.890299
     72          1           0        1.885243    4.729384   -2.459044
     73          1           0       -1.759759    5.750436    0.345599
     74          1           0       -3.250478    5.037616    0.873988
     75          1           0       -3.035339    5.242513   -0.835516
     76          1           0       -4.578197    0.057398   -1.354409
     77          1           0       -7.349178   -0.414303    1.893824
     78          1           0       -7.655876   -1.569582    0.648258
     79          1           0       -8.267792   -0.139878    0.253093
 ---------------------------------------------------------------------

 SCF Done:  E(RCAM-B3LYP) =  -2034.90298077     A.U. after   17 cycles

 Excitation energies and oscillator strengths:

 Excited State   1:      Singlet-A      1.7292 eV  716.99 nm  f=0.3975  <S**2>=0.000
     155 ->158        -0.18726
     156 ->157         0.68373
     155 <-158        -0.10978
 This state for optimization and/or second-order correction.
 Total Energy, E(TD-HF/TD-DFT) =  -2034.83943225
 Copying the excited state density for this state as the 1-particle RhoCI density.

 Excited State   2:      Singlet-A      2.2139 eV  560.04 nm  f=0.1007  <S**2>=0.000
     155 ->157         0.64246
     156 ->158         0.28232

 Excited State   3:      Singlet-A      3.3334 eV  371.94 nm  f=0.0022  <S**2>=0.000
     153 ->157        -0.25798
     154 ->157         0.63932

 Excited State   4:      Singlet-A      3.4515 eV  359.22 nm  f=0.0875  <S**2>=0.000
     150 ->157        -0.28482
     150 ->159         0.19080
     153 ->157         0.43869
     154 ->157         0.17545
     156 ->158        -0.35365

 Excited State   5:      Singlet-A      3.5189 eV  352.34 nm  f=0.0247  <S**2>=0.000
     150 ->157         0.47890
     150 ->159        -0.31938
     153 ->157         0.30482
     156 ->158        -0.18531

 The electronic state is 1-A.
 Alpha  occ. eigenvalues --  -46.88798 -19.26265 -19.19650 -19.19420 -19.18629
 Alpha  occ. eigenvalues --  -14.41788 -14.41603 -14.39320 -14.38744 -10.39159
 Alpha  occ. eigenvalues --  -10.35471 -10.34501 -10.32062 -10.31270 -10.31077
 Alpha  occ. eigenvalues --  -10.30795 -10.30646 -10.29743 -10.29567 -10.29489
 Alpha  occ. eigenvalues --  -10.29389 -10.29263 -10.28983 -10.28381 -10.28287
 Alpha  occ. eigenvalues --  -10.28213 -10.28057 -10.27568 -10.27153 -10.27128
 Alpha  occ. eigenvalues --  -10.27018 -10.26699 -10.26694 -10.26611 -10.26495
 Alpha  occ. eigenvalues --  -10.26347 -10.26311 -10.25952 -10.25911 -10.25801
 Alpha  occ. eigenvalues --  -10.25392 -10.25215 -10.25082  -3.17254  -1.92162
 Alpha  occ. eigenvalues --   -1.91745  -1.91515  -1.18341  -1.11372  -1.09618
 Alpha  occ. eigenvalues --   -1.08678  -1.05023  -1.03782  -1.02608  -1.01868
 Alpha  occ. eigenvalues --   -0.93360  -0.88726  -0.88623  -0.88030  -0.87104
 Alpha  occ. eigenvalues --   -0.86243  -0.85540  -0.84449  -0.83735  -0.82625
 Alpha  occ. eigenvalues --   -0.81418  -0.80792  -0.80031  -0.77916  -0.77348
 Alpha  occ. eigenvalues --   -0.77013  -0.76315  -0.75122  -0.72683  -0.71716
 Alpha  occ. eigenvalues --   -0.69534  -0.68900  -0.68050  -0.66107  -0.65274
 Alpha  occ. eigenvalues --   -0.64974  -0.64655  -0.64346  -0.62815  -0.59858
 Alpha  occ. eigenvalues --   -0.59664  -0.59212  -0.58469  -0.58108  -0.57316
 Alpha  occ. eigenvalues --   -0.56873  -0.56012  -0.54967  -0.54799  -0.54683
 Alpha  occ. eigenvalues --   -0.53599  -0.53264  -0.52945  -0.52527  -0.52031
 Alpha  occ. eigenvalues --   -0.51706  -0.51349  -0.51243  -0.51050  -0.50138
 Alpha  occ. eigenvalues --   -0.49687  -0.49409  -0.49205  -0.48851  -0.48676
 Alpha  occ. eigenvalues --   -0.48376  -0.48122  -0.47970  -0.47308  -0.46901
 Alpha  occ. eigenvalues --   -0.46412  -0.46022  -0.45907  -0.45871  -0.45662
 Alpha  occ. eigenvalues --   -0.45597  -0.45361  -0.45010  -0.44829  -0.44458
 Alpha  occ. eigenvalues --   -0.43759  -0.43336  -0.43262  -0.43068  -0.42951
 Alpha  occ. eigenvalues --   -0.42718  -0.42170  -0.41759  -0.41655  -0.41208
 Alpha  occ. eigenvalues --   -0.41007  -0.40729  -0.40283  -0.39624  -0.39297
 Alpha  occ. eigenvalues --   -0.38397  -0.37160  -0.37111  -0.36722  -0.36398
 Alpha  occ. eigenvalues --   -0.36221  -0.34403  -0.34065  -0.33156  -0.31411
 Alpha  occ. eigenvalues --   -0.30782  -0.30384  -0.29925  -0.28955  -0.23794
 Alpha  occ. eigenvalues --   -0.21075
 Alpha virt. eigenvalues --   -0.08488  -0.01520   0.00192   0.02818   0.02874
 Alpha virt. eigenvalues --    0.05064   0.05603   0.05895   0.06950   0.07675
 Alpha virt. eigenvalues --    0.08908   0.09058   0.09474   0.10165   0.10889

 Mulliken charges:
               1
     1  Mg   0.796411
     2  C   -0.001845
     3  C   -0.055351
     4  C   -0.053088
     5  C   -0.082748
     6  N   -0.231071
     7  C   -0.000633
     8  C   -0.055087
     9  C   -0.039122
    10  C   -0.019592
    11  C    0.092200
    12  C    0.030771
    13  C   -0.055756
    14  H    0.020934
    15  N   -0.407387
    16  C    0.188584
    17  C   -0.143665
    18  C   -0.061786
    19  C    0.112680
    20  C    0.112137
    21  C    0.004720
    22  O   -0.162691
    23  C    0.039018
    24  N   -0.324709
    25  C    0.069202
    26  C   -0.061498
    27  C   -0.006050
    28  C    0.068484
    29  C    0.060372
    30  C    0.013628
    31  C    0.021124
    32  N   -0.346079
    33  C    0.107733
    34  C   -0.171180
    35  C    0.013227
    36  C    0.113607
    37  C    0.114654
    38  C    0.060055
    39  O   -0.187030
    40  C   -0.024779
    41  C    0.155076
    42  O   -0.220576
    43  O   -0.295299
    44  C    0.188536
    45  H   -0.033271
    46  H   -0.003289
    47  H   -0.035754
    48  H    0.019449
    49  H   -0.001165
    50  H    0.027713
    51  H    0.021499
    52  H    0.010271
    53  H    0.013226
    54  H    0.006163
    55  H    0.029887
    56  H    0.041027
    57  H    0.017398
    58  H    0.020002
    59  H    0.012428
    60  H    0.037318
    61  H    0.030833
    62  H    0.013650
    63  H    0.028379
    64  H    0.008037
    65  H    0.000966
    66  H    0.025790
    67  H    0.039773
    68  H   -0.001690
    69  H    0.005672
    70  H    0.008874
    71  H    0.021086
    72  H    0.022218
    73  H    0.012660
    74  H    0.036435
    75  H    0.034031
    76  H    0.042126
    77  H    0.066702
    78  H    0.007721
    79  H    0.037705
 Sum of Mulliken charges =  -0.00000

 Dipole moment (field-independent basis, Debye):
    X=              0.4802    Y=             -2.5148    Z=             -1.8226  Tot=              3.1427
 Quadrupole moment (field-independent basis, Debye-Ang):
   XX=           -267.6336   YY=           -224.1825   ZZ=           -258.8951
   XY=             22.2279   XZ=              1.5549   YZ=              3.8254

 Normal termination of Gaussian 16 at Fri Oct  8 16:16:12 2021.
