 Gaussian 16, Revision A.03,
 Gaussian 16:  ES64L-G16RevA.03 25-Dec-2016

 ----------------------------------------------------------
 #p cam-b3lyp/Def2SVP td=(nstates=5) density=(transition=1)
 ----------------------------------------------------------

 --------------------------------
 TDDFT excited states in gaussian
 --------------------------------
 Symbolic Z-matrix:
 Charge =  0 Multiplicity = 1

                         Standard orientation:
 ---------------------------------------------------------------------
 Center     Atomic      Atomic             Coordinates (Angstroms)
 Number     Number       Type             X           Y           Z
 ---------------------------------------------------------------------
      1         12           0       12.702546    0.370649    0.370850
      2          6           0        9.255771   -0.254289   -0.380165
      3          6           0       13.182200    0.621603   -3.114910
      4          6           0       15.942405    0.242113    0.807836
      5          6           0       12.057074   -0.267226    3.647884
      6          7           0       11.338408    0.248042   -1.493960
      7          6           0        9.992674    0.094728   -1.465822
      8          6           0        9.451174    0.303079   -2.870530
      9          6           0       10.652093    0.617777   -3.806436
     10          6           0       11.789377    0.528249   -2.770700
     11          6           0       10.780644   -0.402741   -5.072951
     12          6           0        8.386478    1.479424   -2.950915
     13          6           0        7.087541    1.176685   -3.698615
     14          1           0        7.071439    0.199071   -4.941537
     15          7           0       14.352139    0.372131   -0.988770
     16          6           0       14.319880    0.505900   -2.297750
     17          6           0       15.677192    0.477844   -2.765048
     18          6           0       16.568618    0.518068   -1.663068
     19          6           0       15.647010    0.339481   -0.571793
     20          6           0       16.051932    0.714003   -4.227224
     21          6           0       18.060443    0.770469   -1.510962
     22          8           0       18.640899    0.688952   -0.443983
     23          6           0       18.789525    1.194297   -2.756254
     24          7           0       13.819639   -0.317605    1.944157
     25          6           0       15.193033   -0.066836    1.943395
     26          6           0       15.819436   -0.102645    3.363902
     27          6           0       14.497353   -0.104196    4.220317
     28          6           0       13.359358   -0.235638    3.208182
     29          6           0       16.729458   -1.328303    3.529980
     30          6           0       14.258336    1.255806    5.031823
     31          6           0       14.483373    1.253084    6.506732
     32          7           0       11.040777   -0.032208    1.443025
     33          6           0       10.942414   -0.303310    2.790679
     34          6           0        9.595883   -0.702776    3.191346
     35          6           0        8.866427   -0.695283    1.949164
     36          6           0        9.803700   -0.410295    0.928291
     37          6           0        9.147470   -0.832471    4.602035
     38          6           0        7.550537   -0.816848    1.340727
     39          8           0        6.472683   -1.040595    1.921239
     40          6           0        7.748907   -0.558359   -0.259658
     41          6           0        7.339723   -1.803132   -0.890733
     42          8           0        7.825586   -2.881856   -0.629507
     43          8           0        6.375413   -1.600416   -1.796260
     44          6           0        5.735901   -2.725439   -2.547991
     45          1           0       13.376969    0.781840   -4.177299
     46          1           0       16.933119    0.599413    1.098671
     47          1           0       11.884032   -0.380662    4.719846
     48          1           0        9.008365   -0.642203   -3.184359
     49          1           0       10.539247    1.580471   -4.305310
     50          1           0        9.821517   -0.872074   -5.292029
     51          1           0       11.540037   -1.124524   -4.771084
     52          1           0       11.143022    0.139959   -5.945873
     53          1           0        8.770523    2.425470   -3.330039
     54          1           0        8.054260    1.729476   -1.943413
     55          1           0        6.597313    2.089473   -4.037792
     56          1           0        6.441078    0.797469   -2.907165
     57          1           0       16.336797    1.741327   -4.454894
     58          1           0       15.291928    0.324360   -4.905150
     59          1           0       16.910201    0.071847   -4.423692
     60          1           0       18.256754    1.906289   -3.387309
     61          1           0       19.072760    0.378768   -3.420212
     62          1           0       19.632529    1.824485   -2.472747
     63          1           0       16.408584    0.806644    3.479897
     64          1           0       14.555199   -0.937616    4.920559
     65          1           0       16.940224   -1.863493    2.604206
     66          1           0       16.284045   -2.073461    4.188170
     67          1           0       17.672947   -1.015499    3.978485
     68          1           0       13.253437    1.669208    4.946119
     69          1           0       14.837575    2.088171    4.633836
     70          1           0       15.303895    1.921864    6.763534
     71          1           0       14.739070    0.213386    6.711897
     72          1           0       13.588357    1.589202    7.030163
     73          1           0        8.110517   -0.519568    4.719372
     74          1           0        9.881747   -0.298247    5.204698
     75          1           0        9.214377   -1.892068    4.852535
     76          1           0        7.113864    0.249745   -0.620183
     77          1           0        5.420742   -3.496505   -1.844729
     78          1           0        6.412522   -3.187615   -3.267214
     79          1           0        4.932973   -2.407875   -3.212671
     80         12           0      -12.188770   -0.644952   -0.565393
     81          6           0      -12.234104    2.880138   -0.581338
     82          6           0       -8.808654   -0.476421   -0.957276
     83          6           0      -12.054197   -3.971441    0.207792
     84          6           0      -15.626440   -0.468755    0.357319
     85          7           0      -10.653905    1.053334   -0.608150
     86          6           0      -10.868706    2.393521   -0.757180
     87          6           0       -9.555802    3.195059   -0.783653
     88          6           0       -8.602576    1.999823   -1.278922
     89          6           0       -9.404597    0.770817   -0.929782
     90          6           0       -8.224629    2.019178   -2.784350
     91          6           0       -9.091209    3.755094    0.635464
     92          6           0       -8.171663    4.965568    0.683346
     93          1           0       -6.701480    4.863575    1.142351
     94          7           0      -10.650853   -2.139705   -0.410096
     95          6           0       -9.361995   -1.851171   -0.753338
     96          6           0       -8.593682   -3.013133   -0.843084
     97          6           0       -9.508830   -4.088893   -0.534178
     98          6           0      -10.811404   -3.452336   -0.189150
     99          6           0       -7.118654   -3.061330   -1.223055
    100          6           0       -9.093266   -5.542428   -0.558975
    101          8           0       -7.911584   -5.845020   -0.866838
    102          6           0      -10.085768   -6.735848   -0.327866
    103          7           0      -13.642340   -1.947514    0.155743
    104          6           0      -13.341311   -3.320180    0.367828
    105          6           0      -14.613502   -4.105083    0.528307
    106          6           0      -15.670755   -3.047261    0.912352
    107          6           0      -15.006552   -1.741368    0.386682
    108          6           0      -15.180655   -4.903870   -0.666962
    109          6           0      -15.891875   -2.951007    2.512954
    110          6           0      -16.852606   -3.928187    3.173529
    111          7           0      -13.669997    0.905284   -0.372267
    112          6           0      -15.005217    0.821835   -0.006967
    113          6           0      -15.586446    2.071782    0.093910
    114          6           0      -14.531226    2.957938   -0.182584
    115          6           0      -13.381598    2.190600   -0.435211
    116          6           0      -17.021025    2.332261    0.429509
    117          6           0      -14.221938    4.272592   -0.393420
    118          8           0      -14.944408    5.248016   -0.451572
    119          6           0      -12.678871    4.288560   -0.403852
    120          6           0      -12.291511    4.921583    0.899227
    121          8           0      -12.615750    4.503851    1.967142
    122          8           0      -11.573477    6.096639    0.670072
    123          6           0      -11.328332    6.821445    1.868210
    124          1           0       -7.767263   -0.480406   -1.286555
    125          1           0      -12.113241   -5.060614    0.267627
    126          1           0      -16.707580   -0.504098    0.505282
    127          1           0       -9.533341    3.931871   -1.585893
    128          1           0       -7.667002    2.108199   -0.730938
    129          1           0       -7.234538    2.475721   -2.771066
    130          1           0       -8.888378    2.655647   -3.369417
    131          1           0       -8.146876    1.011064   -3.191818
    132          1           0       -8.530601    2.994199    1.178556
    133          1           0      -10.000420    3.907497    1.217429
    134          1           0       -8.693861    5.663449    1.339453
    135          1           0       -8.177002    5.411474   -0.311130
    136          1           0       -6.741743   -3.890917   -1.822180
    137          1           0       -6.702580   -2.991894   -0.218257
    138          1           0       -6.875372   -2.220757   -1.872975
    139          1           0      -10.844894   -6.732044   -1.109583
    140          1           0      -10.466970   -6.527038    0.671534
    141          1           0       -9.634331   -7.720976   -0.211031
    142          1           0      -14.462820   -4.756288    1.388699
    143          1           0      -16.634476   -3.234139    0.438482
    144          1           0      -16.121759   -4.529787   -1.069674
    145          1           0      -14.992879   -5.971952   -0.555274
    146          1           0      -14.490203   -4.675955   -1.478859
    147          1           0      -16.256724   -1.926733    2.586719
    148          1           0      -14.942015   -3.036482    3.041082
    149          1           0      -16.346507   -4.419681    4.003992
    150          1           0      -17.159933   -4.677918    2.443923
    151          1           0      -17.711580   -3.412039    3.603097
    152          1           0      -17.010577    3.080116    1.221888
    153          1           0      -17.519840    1.458746    0.851153
    154          1           0      -17.587413    2.733382   -0.411149
    155          1           0      -12.354968    4.908585   -1.239058
    156          1           0      -12.122929    7.550823    2.023059
    157          1           0      -10.458000    7.476157    1.809685
    158          1           0      -11.271635    6.174031    2.741611
 ---------------------------------------------------------------------

 SCF Done:  E(RCAM-B3LYP) =  -4069.78020468     A.U. after   17 cycles

 Excitation energies and oscillator strengths:

 Excited State   1:      Singlet-A      1.6832 eV  736.60 nm  f=0.4427  <S**2>=0.000
     310 -> 316        0.17193
     312 -> 314        0.68325
     310 <- 316        0.10655
 This state for optimization and/or second-order correction.
 Total Energy, E(TD-HF/TD-DFT) =  -4069.71834864
 Copying the excited state density for this state as the 1-particle RhoCI density.

 Excited State   2:      Singlet-A      1.7070 eV  726.33 nm  f=0.3717  <S**2>=0.000
     309 -> 315       -0.18441
     311 -> 313        0.67868
     309 <- 315       -0.10762

 Excited State   3:      Singlet-A      2.1435 eV  578.42 nm  f=0.1318  <S**2>=0.000
     309 -> 313        0.65026
     311 -> 315        0.26014

 Excited State   4:      Singlet-A      2.1994 eV  563.72 nm  f=0.1322  <S**2>=0.000
     310 -> 314        0.65022
     312 -> 316       -0.26296

 Excited State   5:      Singlet-A      2.7196 eV  455.89 nm  f=0.0000  <S**2>=0.000
     312 -> 313        0.70705

 The electronic state is 1-A.
 Alpha  occ. eigenvalues --  -46.90275 -46.88621 -19.25361 -19.25253 -19.20889
 Alpha  occ. eigenvalues --  -19.19531 -19.19010 -19.18509 -19.18060 -19.17835
 Alpha  occ. eigenvalues --  -14.43137 -14.42632 -14.41881 -14.41714 -14.39780
 Alpha  occ. eigenvalues --  -14.39375 -14.39168 -14.39089 -10.39665 -10.38493
 Alpha  occ. eigenvalues --  -10.35789 -10.35458 -10.34975 -10.33322 -10.32524
 Alpha  occ. eigenvalues --  -10.32365 -10.32285 -10.31596 -10.31334 -10.30957
 Alpha  occ. eigenvalues --  -10.30902 -10.30744 -10.30677 -10.30520 -10.30272
 Alpha  occ. eigenvalues --  -10.30189 -10.29907 -10.29650 -10.29585 -10.29195
 Alpha  occ. eigenvalues --  -10.29180 -10.29051 -10.29026 -10.28765 -10.28565
 Alpha  occ. eigenvalues --  -10.28285 -10.28268 -10.28213 -10.28182 -10.28168
 Alpha  occ. eigenvalues --  -10.28022 -10.28020 -10.28013 -10.27935 -10.27917
 Alpha  occ. eigenvalues --  -10.27825 -10.27805 -10.27798 -10.27728 -10.27630
 Alpha  occ. eigenvalues --  -10.27623 -10.27511 -10.27417 -10.27368 -10.27292
 Alpha  occ. eigenvalues --  -10.27088 -10.27019 -10.26663 -10.26573 -10.26560
 Alpha  occ. eigenvalues --  -10.26455 -10.26449 -10.26431 -10.26317 -10.26227
 Alpha  occ. eigenvalues --  -10.26064 -10.26061 -10.26052 -10.25809 -10.25786
 Alpha  occ. eigenvalues --  -10.25626 -10.25578 -10.25568 -10.25462 -10.25023
 Alpha  occ. eigenvalues --  -10.24128  -3.18566  -3.17250  -1.93465  -1.93014
 Alpha  occ. eigenvalues --   -1.92864  -1.92115  -1.91711  -1.91560  -1.17607
 Alpha  occ. eigenvalues --   -1.16551  -1.10847  -1.10014  -1.09475  -1.08436
 Alpha  occ. eigenvalues --   -1.07360  -1.07270  -1.05717  -1.04651  -1.04612
 Alpha  occ. eigenvalues --   -1.03883  -1.03511  -1.03147  -1.01886  -1.01879
 Alpha  occ. eigenvalues --   -0.94306  -0.92164  -0.88928  -0.88685  -0.88646
 Alpha  occ. eigenvalues --   -0.88637  -0.88266  -0.88104  -0.87529  -0.87110
 Alpha  occ. eigenvalues --   -0.87065  -0.87023  -0.86407  -0.85870  -0.84348
 Alpha  occ. eigenvalues --   -0.84230  -0.84124  -0.83603  -0.82879  -0.82666
 Alpha  occ. eigenvalues --   -0.81852  -0.81837  -0.81288  -0.80698  -0.80654
 Alpha  occ. eigenvalues --   -0.80311  -0.78267  -0.78036  -0.77672  -0.77356
 Alpha  occ. eigenvalues --   -0.76909  -0.76869  -0.76281  -0.75937  -0.75656
 Alpha  occ. eigenvalues --   -0.74844  -0.73577  -0.72486  -0.72222  -0.71417
 Alpha  occ. eigenvalues --   -0.69453  -0.68753  -0.68445  -0.68397  -0.67801
 Alpha  occ. eigenvalues --   -0.67653  -0.67127  -0.66984  -0.66276  -0.65558
 Alpha  occ. eigenvalues --   -0.65331  -0.65167  -0.64716  -0.64624  -0.64501
 Alpha  occ. eigenvalues --   -0.64186  -0.62783  -0.62419  -0.60504  -0.60491
 Alpha  occ. eigenvalues --   -0.60119  -0.59581  -0.59231  -0.59152  -0.58992
 Alpha  occ. eigenvalues --   -0.58818  -0.58493  -0.58042  -0.58028  -0.57473
 Alpha  occ. eigenvalues --   -0.56469  -0.56085  -0.55754  -0.55752  -0.55281
 Alpha  occ. eigenvalues --   -0.55165  -0.55044  -0.54363  -0.53814  -0.53521
 Alpha  occ. eigenvalues --   -0.53501  -0.53320  -0.53166  -0.52993  -0.52917
 Alpha  occ. eigenvalues --   -0.52762  -0.52623  -0.52571  -0.52362  -0.52236
 Alpha  occ. eigenvalues --   -0.52099  -0.51799  -0.51408  -0.51292  -0.51190
 Alpha  occ. eigenvalues --   -0.51184  -0.50785  -0.50589  -0.50564  -0.50527
 Alpha  occ. eigenvalues --   -0.50120  -0.50073  -0.49975  -0.49797  -0.49715
 Alpha  occ. eigenvalues --   -0.49318  -0.49259  -0.49029  -0.48961  -0.48783
 Alpha  occ. eigenvalues --   -0.48757  -0.48567  -0.48398  -0.48398  -0.48149
 Alpha  occ. eigenvalues --   -0.47907  -0.47720  -0.47433  -0.47312  -0.47189
 Alpha  occ. eigenvalues --   -0.46974  -0.46746  -0.46610  -0.46565  -0.46360
 Alpha  occ. eigenvalues --   -0.46315  -0.46193  -0.46117  -0.45985  -0.45892
 Alpha  occ. eigenvalues --   -0.45745  -0.45305  -0.45247  -0.45102  -0.45044
 Alpha  occ. eigenvalues --   -0.44687  -0.44562  -0.44511  -0.44238  -0.43825
 Alpha  occ. eigenvalues --   -0.43816  -0.43734  -0.43596  -0.43301  -0.43300
 Alpha  occ. eigenvalues --   -0.43212  -0.43022  -0.42909  -0.42760  -0.42610
 Alpha  occ. eigenvalues --   -0.42554  -0.42475  -0.42468  -0.42146  -0.41841
 Alpha  occ. eigenvalues --   -0.41520  -0.41511  -0.41417  -0.41292  -0.41283
 Alpha  occ. eigenvalues --   -0.41143  -0.41012  -0.40978  -0.40554  -0.40472
 Alpha  occ. eigenvalues --   -0.40295  -0.40272  -0.39722  -0.39359  -0.39336
 Alpha  occ. eigenvalues --   -0.38453  -0.38395  -0.37923  -0.37771  -0.37606
 Alpha  occ. eigenvalues --   -0.37104  -0.36975  -0.36914  -0.36549  -0.36547
 Alpha  occ. eigenvalues --   -0.36225  -0.36157  -0.35465  -0.35016  -0.34457
 Alpha  occ. eigenvalues --   -0.33755  -0.33373  -0.33011  -0.31697  -0.31407
 Alpha  occ. eigenvalues --   -0.31240  -0.30739  -0.30412  -0.30088  -0.29986
 Alpha  occ. eigenvalues --   -0.29884  -0.29472  -0.29394  -0.24283  -0.23834
 Alpha  occ. eigenvalues --   -0.21997  -0.20963
 Alpha virt. eigenvalues --   -0.09551  -0.08720  -0.02440  -0.01120  -0.00037
 Alpha virt. eigenvalues --    0.00115   0.01455   0.01776   0.02076   0.02639
 Alpha virt. eigenvalues --    0.04344   0.04753   0.05194   0.05520   0.05550

 Mulliken charges:
               1
     1  Mg  12.002450
     2  C    5.975609
     3  C    6.015827
     4  C    6.031714
     5  C    5.988676
     6  N    6.991844
     7  C    6.027509
     8  C    5.989209
     9  C    6.015180
    10  C    5.966109
    11  C    6.000753
    12  C    5.998774
    13  C    5.999157
    14  H    1.007633
    15  N    7.008443
    16  C    5.958714
    17  C    5.974695
    18  C    5.987446
    19  C    5.959567
    20  C    6.004407
    21  C    5.985994
    22  O    7.973011
    23  C    6.008324
    24  N    7.009314
    25  C    5.952587
    26  C    6.011478
    27  C    5.990878
    28  C    6.028038
    29  C    6.003877
    30  C    5.991358
    31  C    5.999523
    32  N    6.999764
    33  C    6.035523
    34  C    6.038349
    35  C    6.000286
    36  C    6.037711
    37  C    5.995059
    38  C    6.014268
    39  O    8.028537
    40  C    6.007464
    41  C    6.005186
    42  O    8.002149
    43  O    8.002031
    44  C    5.997394
    45  H    0.989640
    46  H    0.994671
    47  H    1.012151
    48  H    1.000135
    49  H    0.993874
    50  H    0.986197
    51  H    1.001794
    52  H    0.999584
    53  H    1.009027
    54  H    0.991830
    55  H    1.002374
    56  H    0.993744
    57  H    0.977179
    58  H    0.981181
    59  H    0.981989
    60  H    0.995013
    61  H    0.990100
    62  H    0.984962
    63  H    0.999693
    64  H    1.003248
    65  H    1.004581
    66  H    0.987222
    67  H    0.996746
    68  H    0.994287
    69  H    1.013989
    70  H    1.007267
    71  H    1.002671
    72  H    0.997857
    73  H    1.019230
    74  H    1.019388
    75  H    1.024724
    76  H    1.009309
    77  H    1.000659
    78  H    1.006777
    79  H    1.005087
    80  Mg  12.000155
    81  C    5.999807
    82  C    6.002971
    83  C    6.001398
    84  C    5.996584
    85  N    7.001114
    86  C    6.003448
    87  C    5.998755
    88  C    6.001367
    89  C    5.995935
    90  C    6.000448
    91  C    5.999883
    92  C    6.000030
    93  H    1.000328
    94  N    7.001072
    95  C    5.994840
    96  C    5.998212
    97  C    5.998553
    98  C    5.995530
    99  C    6.000031
   100  C    5.998911
   101  O    7.996995
   102  C    6.000157
   103  N    6.998544
   104  C    5.996904
   105  C    6.001178
   106  C    5.999153
   107  C    6.004425
   108  C    5.999698
   109  C    5.999817
   110  C    6.000024
   111  N    6.999766
   112  C    6.004651
   113  C    6.002302
   114  C    6.000923
   115  C    6.002426
   116  C    5.999631
   117  C    6.001977
   118  O    8.003977
   119  C    5.999356
   120  C    6.000438
   121  O    8.000356
   122  O    8.000357
   123  C    5.999530
   124  H    0.999057
   125  H    0.998993
   126  H    1.000709
   127  H    1.000322
   128  H    0.999246
   129  H    0.999231
   130  H    0.998993
   131  H    1.000815
   132  H    1.000987
   133  H    0.999455
   134  H    0.999957
   135  H    1.000392
   136  H    0.998315
   137  H    0.997520
   138  H    0.997832
   139  H    0.999229
   140  H    0.999084
   141  H    0.998477
   142  H    0.999822
   143  H    1.000237
   144  H    0.998738
   145  H    0.999984
   146  H    1.000283
   147  H    0.999263
   148  H    1.000973
   149  H    1.000433
   150  H    1.000591
   151  H    0.999911
   152  H    1.001724
   153  H    1.002245
   154  H    1.002211
   155  H    1.001373
   156  H    1.000556
   157  H    1.000724
   158  H    1.000362
 Sum of Mulliken charges = 624.00000

 Dipole moment (field-independent basis, Debye):
    X=             -9.6082    Y=             -0.6711    Z=              6.7784  Tot=             11.7777
 Quadrupole moment (field-independent basis, Debye-Ang):
   XX=           -204.3359   YY=              0.0314   ZZ=              3.7084
   XY=            -29.8322   XZ=             83.3876   YZ=              0.1296

 Normal termination of Gaussian 16 at Wed Sep 22 08:06:58 2021.
