 Gaussian 16, Revision A.03,
 Gaussian 16:  ES64L-G16RevA.03 25-Dec-2016

 ----------------------------------------------------------
 #p cam-b3lyp/Def2SVP td=(nstates=5) density=(transition=1)
 ----------------------------------------------------------

 --------------------------------
 TDDFT excited states in gaussian
 --------------------------------
 Symbolic Z-matrix:
 Charge =  0 Multiplicity = 1

                         Standard orientation:
 ---------------------------------------------------------------------
 Center     Atomic      Atomic             Coordinates (Angstroms)
 Number     Number       Type             X           Y           Z
 ---------------------------------------------------------------------
      1         12           0      -32.840549   -0.178946   -0.817317
      2          6           0      -29.603119    1.253144   -0.436131
      3          6           0      -31.452053   -3.304784   -0.633034
      4          6           0      -36.010037   -1.492566   -0.127533
      5          6           0      -34.230851    3.022226   -0.407410
      6          7           0      -30.673214   -0.869243   -0.290036
      7          6           0      -29.538938   -0.162072   -0.420703
      8          6           0      -28.383841   -1.109829   -0.687298
      9          6           0      -28.955099   -2.608693   -0.685094
     10          6           0      -30.512709   -2.193610   -0.673854
     11          6           0      -28.506834   -3.314030   -1.984838
     12          6           0      -27.277976   -0.917656    0.337992
     13          6           0      -27.717122   -0.631684    1.793726
     14          1           0      -27.533424   -1.782704    2.820219
     15          7           0      -33.660623   -2.176139   -0.513100
     16          6           0      -32.860923   -3.297295   -0.466429
     17          6           0      -33.756413   -4.410727   -0.429819
     18          6           0      -35.107677   -3.955191   -0.184447
     19          6           0      -35.011491   -2.478746   -0.309483
     20          6           0      -33.274354   -5.842119   -0.380382
     21          6           0      -36.314395   -4.786305    0.254277
     22          8           0      -36.187650   -5.976236    0.469935
     23          6           0      -37.622467   -4.236620    0.449664
     24          7           0      -34.820143    0.632300   -0.234181
     25          6           0      -35.926592   -0.093518   -0.169688
     26          6           0      -37.168032    0.725974    0.143014
     27          6           0      -36.491832    2.138942    0.411125
     28          6           0      -35.128146    1.972125   -0.155642
     29          6           0      -38.245622    0.754049   -1.047901
     30          6           0      -36.568733    2.510224    1.963364
     31          6           0      -37.437414    3.641781    2.435048
     32          7           0      -32.142652    1.704246   -0.740222
     33          6           0      -32.836519    2.930800   -0.700142
     34          6           0      -31.898211    4.063010   -0.812910
     35          6           0      -30.667050    3.412317   -0.734168
     36          6           0      -30.811553    1.990975   -0.564778
     37          6           0      -32.189982    5.580943   -1.075040
     38          6           0      -29.226495    3.685850   -0.715268
     39          8           0      -28.558729    4.729113   -0.807977
     40          6           0      -28.476133    2.324190   -0.541922
     41          6           0      -27.813095    2.568766    0.769563
     42          8           0      -28.380841    2.838454    1.796854
     43          8           0      -26.491793    2.574022    0.618397
     44          6           0      -25.610777    2.717758    1.829629
     45          1           0      -31.014383   -4.275297   -0.875327
     46          1           0      -37.057518   -1.761397    0.022743
     47          1           0      -34.753974    3.951167   -0.168813
     48          1           0      -28.084789   -0.721246   -1.660810
     49          1           0      -28.654774   -3.169799    0.200216
     50          1           0      -27.914342   -4.186331   -1.709621
     51          1           0      -27.869928   -2.709844   -2.631427
     52          1           0      -29.423018   -3.644736   -2.473328
     53          1           0      -26.638977   -0.088931    0.032918
     54          1           0      -26.671747   -1.820262    0.420073
     55          1           0      -28.777142   -0.458734    1.979083
     56          1           0      -27.128388    0.237581    2.086989
     57          1           0      -32.186577   -5.902668   -0.337605
     58          1           0      -33.731955   -6.372042   -1.216480
     59          1           0      -33.744022   -6.310709    0.483741
     60          1           0      -37.707929   -3.506500    1.254763
     61          1           0      -38.319720   -5.041622    0.681064
     62          1           0      -37.815227   -3.736919   -0.500292
     63          1           0      -37.651218    0.459438    1.082669
     64          1           0      -37.211608    2.807167   -0.061972
     65          1           0      -37.908792    0.106541   -1.857984
     66          1           0      -38.274203    1.774504   -1.430412
     67          1           0      -39.273196    0.514991   -0.769648
     68          1           0      -35.606928    2.867289    2.331700
     69          1           0      -36.859982    1.645285    2.557733
     70          1           0      -36.889903    4.560277    2.646616
     71          1           0      -37.813991    3.203378    3.359807
     72          1           0      -38.358554    3.779935    1.868665
     73          1           0      -32.558655    6.011261   -0.144309
     74          1           0      -32.889390    5.631926   -1.909664
     75          1           0      -31.244601    6.079486   -1.288308
     76          1           0      -27.822888    2.230342   -1.410204
     77          1           0      -25.449681    3.757777    2.114285
     78          1           0      -24.632650    2.265439    1.661009
     79          1           0      -26.126586    2.162144    2.612765
     80         12           0       32.617025    0.461937   -0.326756
     81          6           0       30.453763   -1.987509    0.885706
     82          6           0       30.866368    2.834173    1.459937
     83          6           0       34.827387    2.583479   -1.502195
     84          6           0       34.931972   -2.199741   -1.242743
     85          7           0       30.748415    0.373304    1.013791
     86          6           0       30.045521   -0.734434    1.396519
     87          6           0       28.885985   -0.360132    2.249816
     88          6           0       29.051772    1.196866    2.466645
     89          6           0       30.315685    1.547964    1.588538
     90          6           0       27.765391    2.025712    2.223571
     91          6           0       28.850102   -1.126748    3.594229
     92          6           0       27.484369   -1.776048    3.811113
     93          1           0       26.751830   -1.478735    5.154243
     94          7           0       32.797839    2.455515   -0.078986
     95          6           0       31.963243    3.295452    0.656867
     96          6           0       32.465472    4.643167    0.422633
     97          6           0       33.623540    4.605432   -0.484879
     98          6           0       33.774891    3.151033   -0.805954
     99          6           0       31.978103    5.795883    1.147587
    100          6           0       34.441985    5.796340   -0.767953
    101          8           0       34.200552    6.907247   -0.344250
    102          6           0       35.721834    5.762513   -1.528023
    103          7           0       34.539583    0.207947   -1.165340
    104          6           0       35.116021    1.261443   -1.828606
    105          6           0       36.416431    0.824922   -2.469702
    106          6           0       36.637843   -0.545450   -1.947899
    107          6           0       35.355630   -0.873823   -1.361658
    108          6           0       36.481361    0.996684   -4.042630
    109          6           0       37.689214   -0.601739   -0.786928
    110          6           0       38.455337   -1.836164   -0.656361
    111          7           0       32.713502   -1.682717   -0.251166
    112          6           0       33.655930   -2.613459   -0.707729
    113          6           0       33.071042   -3.917417   -0.686011
    114          6           0       31.851102   -3.748275   -0.041909
    115          6           0       31.683391   -2.347443    0.249118
    116          6           0       33.740932   -5.135058   -1.206965
    117          6           0       30.728906   -4.429053    0.469768
    118          8           0       30.461759   -5.609965    0.459285
    119          6           0       29.774821   -3.348484    1.025734
    120          6           0       28.470725   -3.468053    0.354543
    121          8           0       28.161777   -2.939624   -0.726806
    122          8           0       27.691615   -4.384310    1.023074
    123          6           0       26.314125   -4.610976    0.616982
    124          1           0       30.229427    3.537366    1.999548
    125          1           0       35.662368    3.165130   -1.900758
    126          1           0       35.646074   -2.963870   -1.556852
    127          1           0       28.033078   -0.400165    1.571700
    128          1           0       29.298814    1.469804    3.492136
    129          1           0       26.985251    1.266542    2.291462
    130          1           0       27.738945    2.633514    1.319088
    131          1           0       27.619507    2.730391    3.041894
    132          1           0       28.948619   -0.488685    4.472256
    133          1           0       29.657094   -1.857758    3.547766
    134          1           0       27.797443   -2.817450    3.884242
    135          1           0       26.893378   -1.591230    2.915290
    136          1           0       31.166492    5.466351    1.796627
    137          1           0       31.517790    6.579883    0.545544
    138          1           0       32.775689    6.187717    1.779774
    139          1           0       35.400278    5.160513   -2.377924
    140          1           0       36.467578    5.237264   -0.930715
    141          1           0       36.026626    6.763189   -1.835138
    142          1           0       37.135607    1.539689   -2.071405
    143          1           0       36.801374   -1.345900   -2.669525
    144          1           0       35.632491    1.580941   -4.398316
    145          1           0       36.650878    0.074507   -4.599563
    146          1           0       37.276122    1.667467   -4.367797
    147          1           0       37.191290   -0.379340    0.156927
    148          1           0       38.432395    0.186885   -0.903579
    149          1           0       39.330206   -1.772571   -1.304312
    150          1           0       37.854649   -2.720978   -0.869603
    151          1           0       38.949821   -1.859085    0.315288
    152          1           0       34.295621   -4.919477   -2.120071
    153          1           0       33.067799   -5.978065   -1.363771
    154          1           0       34.508491   -5.341477   -0.461020
    155          1           0       29.485042   -3.530667    2.060681
    156          1           0       26.116241   -5.150375   -0.309353
    157          1           0       25.777237   -3.662623    0.608685
    158          1           0       25.922665   -5.279016    1.383277
 ---------------------------------------------------------------------

 SCF Done:  E(RCAM-B3LYP) =  -4069.74205608     A.U. after   19 cycles

 Excitation energies and oscillator strengths:

 Excited State   1:      Singlet-A      1.6751 eV  740.15 nm  f=0.3625  <S**2>=0.000
     309 -> 316       -0.18826
     311 -> 313        0.68338
     309 <- 316       -0.11090
 This state for optimization and/or second-order correction.
 Total Energy, E(TD-HF/TD-DFT) =  -4069.68049655
 Copying the excited state density for this state as the 1-particle RhoCI density.

 Excited State   2:      Singlet-A      1.6890 eV  734.07 nm  f=0.3583  <S**2>=0.000
     310 -> 315        0.20076
     312 -> 314        0.68046
     310 <- 315        0.11491

 Excited State   3:      Singlet-A      2.1859 eV  567.20 nm  f=0.1031  <S**2>=0.000
     309 -> 313        0.63557
     311 -> 316        0.29758

 Excited State   4:      Singlet-A      2.1999 eV  563.59 nm  f=0.0718  <S**2>=0.000
     310 -> 314        0.61855
     312 -> 315       -0.32994

 Excited State   5:      Singlet-A      3.1628 eV  392.01 nm  f=0.0000  <S**2>=0.000
     312 -> 313        0.70711

 The electronic state is 1-A.
 Alpha  occ. eigenvalues --  -46.90222 -46.88955 -19.25088 -19.24883 -19.19377
 Alpha  occ. eigenvalues --  -19.18868 -19.18864 -19.18369 -19.18079 -19.17392
 Alpha  occ. eigenvalues --  -14.42441 -14.42338 -14.41984 -14.41942 -14.40280
 Alpha  occ. eigenvalues --  -14.40150 -14.39549 -14.39181 -10.39104 -10.38738
 Alpha  occ. eigenvalues --  -10.34979 -10.34332 -10.34222 -10.33716 -10.32470
 Alpha  occ. eigenvalues --  -10.32018 -10.31691 -10.31632 -10.31584 -10.31581
 Alpha  occ. eigenvalues --  -10.31400 -10.31075 -10.31063 -10.30989 -10.30938
 Alpha  occ. eigenvalues --  -10.30748 -10.30715 -10.30485 -10.29965 -10.29878
 Alpha  occ. eigenvalues --  -10.29860 -10.29104 -10.28998 -10.28865 -10.28829
 Alpha  occ. eigenvalues --  -10.28738 -10.28567 -10.28559 -10.28413 -10.28394
 Alpha  occ. eigenvalues --  -10.28384 -10.28329 -10.28230 -10.28164 -10.28136
 Alpha  occ. eigenvalues --  -10.28108 -10.28074 -10.27981 -10.27861 -10.27823
 Alpha  occ. eigenvalues --  -10.27679 -10.27450 -10.27372 -10.27307 -10.27220
 Alpha  occ. eigenvalues --  -10.27188 -10.27152 -10.27024 -10.26999 -10.26921
 Alpha  occ. eigenvalues --  -10.26807 -10.26806 -10.26604 -10.26479 -10.26452
 Alpha  occ. eigenvalues --  -10.26424 -10.26235 -10.26202 -10.25796 -10.25647
 Alpha  occ. eigenvalues --  -10.25563 -10.25527 -10.25198 -10.25059 -10.24876
 Alpha  occ. eigenvalues --  -10.24734  -3.18529  -3.17444  -1.93393  -1.93016
 Alpha  occ. eigenvalues --   -1.92806  -1.92347  -1.91908  -1.91734  -1.17074
 Alpha  occ. eigenvalues --   -1.15462  -1.10224  -1.10069  -1.09854  -1.08828
 Alpha  occ. eigenvalues --   -1.07714  -1.06722  -1.04997  -1.04611  -1.03814
 Alpha  occ. eigenvalues --   -1.03688  -1.03000  -1.02407  -1.01612  -1.01584
 Alpha  occ. eigenvalues --   -0.92665  -0.91956  -0.90776  -0.89605  -0.89062
 Alpha  occ. eigenvalues --   -0.88961  -0.88829  -0.88263  -0.87721  -0.87254
 Alpha  occ. eigenvalues --   -0.87098  -0.86308  -0.86129  -0.85367  -0.85275
 Alpha  occ. eigenvalues --   -0.84696  -0.84555  -0.84054  -0.83468  -0.82862
 Alpha  occ. eigenvalues --   -0.82628  -0.82584  -0.81422  -0.81104  -0.80836
 Alpha  occ. eigenvalues --   -0.80264  -0.78681  -0.77988  -0.77910  -0.77358
 Alpha  occ. eigenvalues --   -0.77132  -0.76398  -0.76319  -0.76309  -0.75395
 Alpha  occ. eigenvalues --   -0.74975  -0.73421  -0.72865  -0.72045  -0.71731
 Alpha  occ. eigenvalues --   -0.69349  -0.69120  -0.68910  -0.68535  -0.68130
 Alpha  occ. eigenvalues --   -0.68005  -0.67528  -0.66691  -0.66478  -0.65942
 Alpha  occ. eigenvalues --   -0.65592  -0.65286  -0.65203  -0.64765  -0.64695
 Alpha  occ. eigenvalues --   -0.64040  -0.62428  -0.62045  -0.60751  -0.60294
 Alpha  occ. eigenvalues --   -0.59508  -0.59476  -0.59281  -0.58988  -0.58973
 Alpha  occ. eigenvalues --   -0.58701  -0.57928  -0.57812  -0.57424  -0.57272
 Alpha  occ. eigenvalues --   -0.56417  -0.56326  -0.55910  -0.55850  -0.55493
 Alpha  occ. eigenvalues --   -0.55155  -0.55044  -0.54916  -0.54519  -0.54445
 Alpha  occ. eigenvalues --   -0.54254  -0.53873  -0.53541  -0.53205  -0.53066
 Alpha  occ. eigenvalues --   -0.52843  -0.52625  -0.52560  -0.52500  -0.52302
 Alpha  occ. eigenvalues --   -0.52107  -0.52028  -0.51760  -0.51753  -0.51692
 Alpha  occ. eigenvalues --   -0.51535  -0.51296  -0.51242  -0.50680  -0.50425
 Alpha  occ. eigenvalues --   -0.50167  -0.50019  -0.49812  -0.49697  -0.49668
 Alpha  occ. eigenvalues --   -0.49492  -0.49398  -0.49223  -0.49130  -0.48957
 Alpha  occ. eigenvalues --   -0.48861  -0.48573  -0.48520  -0.48516  -0.48266
 Alpha  occ. eigenvalues --   -0.47805  -0.47631  -0.47310  -0.47145  -0.47011
 Alpha  occ. eigenvalues --   -0.46959  -0.46908  -0.46801  -0.46611  -0.46603
 Alpha  occ. eigenvalues --   -0.46326  -0.46298  -0.46220  -0.45811  -0.45750
 Alpha  occ. eigenvalues --   -0.45607  -0.45317  -0.45315  -0.45188  -0.45104
 Alpha  occ. eigenvalues --   -0.44945  -0.44900  -0.44597  -0.44490  -0.44362
 Alpha  occ. eigenvalues --   -0.44059  -0.43955  -0.43695  -0.43683  -0.43581
 Alpha  occ. eigenvalues --   -0.43439  -0.43242  -0.43220  -0.43073  -0.42977
 Alpha  occ. eigenvalues --   -0.42894  -0.42576  -0.42395  -0.42096  -0.42003
 Alpha  occ. eigenvalues --   -0.41674  -0.41595  -0.41499  -0.41411  -0.41345
 Alpha  occ. eigenvalues --   -0.41292  -0.41180  -0.40866  -0.40684  -0.40274
 Alpha  occ. eigenvalues --   -0.40126  -0.40030  -0.39809  -0.39223  -0.38649
 Alpha  occ. eigenvalues --   -0.38497  -0.37997  -0.37748  -0.37425  -0.37343
 Alpha  occ. eigenvalues --   -0.37118  -0.36983  -0.36754  -0.36396  -0.36389
 Alpha  occ. eigenvalues --   -0.36332  -0.35717  -0.34358  -0.34257  -0.34110
 Alpha  occ. eigenvalues --   -0.33725  -0.33354  -0.33039  -0.31394  -0.31388
 Alpha  occ. eigenvalues --   -0.30750  -0.30690  -0.30683  -0.30281  -0.29892
 Alpha  occ. eigenvalues --   -0.29668  -0.29451  -0.28929  -0.24320  -0.24289
 Alpha  occ. eigenvalues --   -0.21586  -0.21323
 Alpha virt. eigenvalues --   -0.09174  -0.08774  -0.02562  -0.02523   0.00238
 Alpha virt. eigenvalues --    0.00259   0.01025   0.02337   0.02422   0.02662
 Alpha virt. eigenvalues --    0.04074   0.04779   0.04982   0.05182   0.05447

 Mulliken charges:
               1
     1  Mg  12.000038
     2  C    6.000116
     3  C    5.999780
     4  C    5.999888
     5  C    6.000140
     6  N    7.000058
     7  C    5.999790
     8  C    6.000005
     9  C    5.999897
    10  C    6.000304
    11  C    5.999978
    12  C    6.000015
    13  C    6.000059
    14  H    0.999905
    15  N    6.999934
    16  C    6.000367
    17  C    6.000144
    18  C    6.000084
    19  C    6.000310
    20  C    5.999919
    21  C    6.000108
    22  O    8.000146
    23  C    5.999958
    24  N    7.000014
    25  C    6.000180
    26  C    5.999909
    27  C    6.000117
    28  C    5.999753
    29  C    5.999976
    30  C    6.000023
    31  C    6.000015
    32  N    7.000026
    33  C    5.999668
    34  C    5.999785
    35  C    5.999992
    36  C    5.999717
    37  C    6.000004
    38  C    5.999837
    39  O    7.999746
    40  C    6.000020
    41  C    5.999950
    42  O    7.999977
    43  O    7.999987
    44  C    6.000019
    45  H    1.000055
    46  H    1.000072
    47  H    0.999916
    48  H    1.000048
    49  H    1.000067
    50  H    1.000057
    51  H    1.000090
    52  H    0.999972
    53  H    1.000036
    54  H    0.999947
    55  H    0.999998
    56  H    1.000024
    57  H    1.000173
    58  H    1.000170
    59  H    1.000146
    60  H    1.000089
    61  H    1.000104
    62  H    1.000051
    63  H    1.000018
    64  H    0.999949
    65  H    0.999973
    66  H    1.000092
    67  H    1.000012
    68  H    1.000023
    69  H    0.999893
    70  H    1.000010
    71  H    0.999958
    72  H    0.999958
    73  H    0.999852
    74  H    0.999871
    75  H    0.999899
    76  H    0.999918
    77  H    0.999970
    78  H    0.999956
    79  H    0.999971
    80  Mg  12.001310
    81  C    6.017976
    82  C    5.979230
    83  C    5.975446
    84  C    6.023874
    85  N    7.004605
    86  C    5.965945
    87  C    6.014205
    88  C    5.990981
    89  C    6.029879
    90  C    5.996887
    91  C    6.001075
    92  C    6.001153
    93  H    0.991885
    94  N    6.985792
    95  C    6.050828
    96  C    6.020506
    97  C    6.012751
    98  C    6.044727
    99  C    5.987886
   100  C    6.006761
   101  O    8.018373
   102  C    5.998805
   103  N    7.007558
   104  C    6.034737
   105  C    5.992090
   106  C    6.007733
   107  C    5.960998
   108  C    5.998809
   109  C    6.008238
   110  C    6.000834
   111  N    7.005893
   112  C    5.951318
   113  C    5.976000
   114  C    5.994898
   115  C    5.963718
   116  C    6.001998
   117  C    5.982607
   118  O    7.967167
   119  C    6.002676
   120  C    5.995045
   121  O    7.991942
   122  O    8.000451
   123  C    6.003750
   124  H    1.009812
   125  H    1.011088
   126  H    0.991071
   127  H    0.995943
   128  H    1.000947
   129  H    1.012392
   130  H    0.997257
   131  H    0.999910
   132  H    0.991875
   133  H    1.007404
   134  H    1.004241
   135  H    0.999344
   136  H    1.020789
   137  H    1.023222
   138  H    1.021248
   139  H    1.005885
   140  H    1.010701
   141  H    1.012485
   142  H    0.999656
   143  H    1.002218
   144  H    0.997458
   145  H    1.013025
   146  H    1.002114
   147  H    0.994329
   148  H    0.985150
   149  H    0.994534
   150  H    1.006216
   151  H    0.996197
   152  H    0.980371
   153  H    0.985617
   154  H    0.980944
   155  H    0.990548
   156  H    0.997051
   157  H    0.993635
   158  H    0.995982
 Sum of Mulliken charges = 624.00000

 Dipole moment (field-independent basis, Debye):
    X=              0.7442    Y=             10.6572    Z=              0.0287  Tot=             10.6832
 Quadrupole moment (field-independent basis, Debye-Ang):
   XX=             47.6449   YY=              7.9388   ZZ=              1.4379
   XY=            352.9995   XZ=              0.0673   YZ=             -1.0860

 Normal termination of Gaussian 16 at Tue Sep 21 20:13:08 2021.
