 Gaussian 16, Revision A.03,
 Gaussian 16:  ES64L-G16RevA.03 25-Dec-2016

 ----------------------------------------------------------
 #p cam-b3lyp/Def2SVP td=(nstates=5) density=(transition=1)
 ----------------------------------------------------------

 --------------------------------
 TDDFT excited states in gaussian
 --------------------------------
 Symbolic Z-matrix:
 Charge =  0 Multiplicity = 1

                         Standard orientation:
 ---------------------------------------------------------------------
 Center     Atomic      Atomic             Coordinates (Angstroms)
 Number     Number       Type             X           Y           Z
 ---------------------------------------------------------------------
      1         12           0       16.488556   -0.545605    0.286074
      2          6           0       15.484946    2.400226   -1.310956
      3          6           0       18.006867    1.203971    2.610609
      4          6           0       18.057876   -3.408328    1.356516
      5          6           0       15.302021   -2.401010   -2.473476
      6          7           0       16.602251    1.532390    0.618256
      7          6           0       16.087222    2.598064   -0.086588
      8          6           0       16.254195    3.909792    0.669521
      9          6           0       17.258284    3.496868    1.793100
     10          6           0       17.212218    2.009236    1.746113
     11          6           0       18.647636    4.096696    1.813730
     12          6           0       14.920396    4.565799    1.150016
     13          6           0       15.078050    5.899873    1.887689
     14          1           0       14.231730    7.053400    1.369409
     15          7           0       17.964352   -1.040705    1.818496
     16          6           0       18.343903   -0.161211    2.768837
     17          6           0       19.133326   -0.843722    3.756232
     18          6           0       19.247250   -2.181069    3.339041
     19          6           0       18.409921   -2.247961    2.110519
     20          6           0       19.753809   -0.163414    4.958210
     21          6           0       19.931960   -3.333425    3.997986
     22          8           0       20.116252   -4.475299    3.497970
     23          6           0       20.446203   -3.202268    5.426386
     24          7           0       16.670880   -2.561094   -0.461665
     25          6           0       17.425264   -3.516109    0.130362
     26          6           0       17.139420   -4.949127   -0.575383
     27          6           0       15.899514   -4.623425   -1.480112
     28          6           0       15.877663   -3.128925   -1.446015
     29          6           0       18.435942   -5.409193   -1.349788
     30          6           0       14.568256   -5.112864   -0.801350
     31          6           0       14.269256   -4.704278    0.632670
     32          7           0       15.494190   -0.128705   -1.566485
     33          6           0       15.097034   -1.006261   -2.537689
     34          6           0       14.489875   -0.257989   -3.538052
     35          6           0       14.598479    1.116984   -3.181446
     36          6           0       15.224025    1.145318   -1.962799
     37          6           0       13.922589   -0.714721   -4.835709
     38          6           0       14.342356    2.526561   -3.554915
     39          8           0       13.868944    3.063773   -4.549718
     40          6           0       14.829822    3.412147   -2.281088
     41          6           0       15.636351    4.576995   -2.733217
     42          8           0       16.434489    4.566335   -3.716986
     43          8           0       15.226680    5.625377   -2.031892
     44          6           0       15.551099    6.903844   -2.635174
     45          1           0       18.432046    1.727321    3.469692
     46          1           0       18.520594   -4.335082    1.704089
     47          1           0       14.834384   -3.016119   -3.243855
     48          1           0       16.631356    4.601242   -0.084210
     49          1           0       16.893798    3.727945    2.794617
     50          1           0       18.792843    5.021543    1.255489
     51          1           0       19.364212    3.345924    1.479543
     52          1           0       18.957026    4.140916    2.858151
     53          1           0       14.367363    3.859109    1.769293
     54          1           0       14.277203    4.732741    0.286611
     55          1           0       16.013509    6.391811    1.621792
     56          1           0       14.982432    5.770372    2.966141
     57          1           0       19.666842    0.923023    4.965431
     58          1           0       20.839892   -0.219749    5.027169
     59          1           0       19.357997   -0.518299    5.910281
     60          1           0       21.290655   -2.513729    5.414362
     61          1           0       20.969358   -4.099742    5.755681
     62          1           0       19.661002   -2.972699    6.147612
     63          1           0       16.946899   -5.700799    0.190157
     64          1           0       16.166557   -5.002497   -2.466546
     65          1           0       19.327196   -4.841339   -1.082175
     66          1           0       18.365878   -5.313565   -2.433445
     67          1           0       18.733774   -6.433580   -1.130782
     68          1           0       14.723153   -6.188533   -0.885893
     69          1           0       13.660351   -4.872336   -1.353658
     70          1           0       15.156625   -4.266936    1.090784
     71          1           0       13.817459   -5.463982    1.269576
     72          1           0       13.455553   -3.990422    0.504380
     73          1           0       13.172160   -1.500590   -4.746281
     74          1           0       14.767330   -1.140970   -5.376069
     75          1           0       13.522448    0.106144   -5.429944
     76          1           0       13.897841    3.790756   -1.862159
     77          1           0       14.696019    7.577328   -2.565012
     78          1           0       15.802505    6.887979   -3.695398
     79          1           0       16.374834    7.309660   -2.047007
     80         12           0      -16.145910   -0.825409    0.107756
     81          6           0      -18.183937    2.075913    0.607921
     82          6           0      -13.593483    1.209778   -0.958563
     83          6           0      -14.320071   -3.507156   -0.831585
     84          6           0      -19.106024   -2.735780    0.279701
     85          7           0      -15.942088    1.377300   -0.123126
     86          6           0      -16.852621    2.396420    0.197649
     87          6           0      -16.188493    3.733677   -0.008182
     88          6           0      -14.980540    3.367745   -0.969960
     89          6           0      -14.847776    1.836920   -0.718583
     90          6           0      -15.414633    3.706976   -2.440451
     91          6           0      -15.840316    4.490250    1.322122
     92          6           0      -16.194927    5.887546    1.216749
     93          1           0      -16.221934    6.689662    2.613390
     94          7           0      -14.145800   -1.021744   -0.611019
     95          6           0      -13.262912   -0.073082   -0.945454
     96          6           0      -12.012498   -0.685581   -1.274268
     97          6           0      -12.185779   -2.053720   -1.267739
     98          6           0      -13.636283   -2.291917   -0.823624
     99          6           0      -10.786582    0.143190   -1.773638
    100          6           0      -11.147086   -3.165978   -1.519541
    101          8           0      -11.505590   -4.316248   -1.501817
    102          6           0       -9.684282   -2.832505   -1.694747
    103          7           0      -16.735856   -2.795683   -0.488103
    104          6           0      -15.734078   -3.736023   -0.702122
    105          6           0      -16.290751   -5.122057   -0.664029
    106          6           0      -17.833144   -4.884646   -0.283713
    107          6           0      -17.904351   -3.388838   -0.085517
    108          6           0      -16.039509   -5.889742   -1.917747
    109          6           0      -18.428148   -5.708837    0.985822
    110          6           0      -19.547493   -6.643264    0.746543
    111          7           0      -18.230379   -0.480002    0.431965
    112          6           0      -19.273832   -1.377540    0.461363
    113          6           0      -20.543116   -0.604292    0.813277
    114          6           0      -20.144641    0.735595    0.992598
    115          6           0      -18.736697    0.767465    0.697231
    116          6           0      -21.943098   -1.226373    0.906008
    117          6           0      -20.676680    2.047766    1.203811
    118          8           0      -21.847433    2.418824    1.445595
    119          6           0      -19.475084    2.997168    0.799975
    120          6           0      -19.426163    4.093091    1.906712
    121          8           0      -18.586484    4.034384    2.823629
    122          8           0      -20.328381    5.066498    1.630583
    123          6           0      -20.406684    5.998383    2.807681
    124          1           0      -12.712981    1.844102   -1.083220
    125          1           0      -13.744714   -4.392403   -1.112824
    126          1           0      -20.054072   -3.250025    0.449849
    127          1           0      -16.882361    4.316715   -0.613328
    128          1           0      -14.084333    3.937839   -0.727792
    129          1           0      -16.131005    2.999876   -2.857952
    130          1           0      -14.522005    3.784476   -3.059728
    131          1           0      -15.872061    4.696574   -2.450354
    132          1           0      -14.751922    4.516184    1.380383
    133          1           0      -16.248434    3.985864    2.198307
    134          1           0      -17.234583    6.007424    0.911569
    135          1           0      -15.483513    6.353810    0.534696
    136          1           0       -9.997453   -0.153075   -1.082606
    137          1           0      -10.903187    1.224479   -1.702291
    138          1           0      -10.585807   -0.087036   -2.819874
    139          1           0       -9.115055   -3.727735   -1.945282
    140          1           0       -9.520682   -2.468918   -0.680328
    141          1           0       -9.602043   -2.067295   -2.466569
    142          1           0      -15.759573   -5.565606    0.178327
    143          1           0      -18.415525   -5.183494   -1.154920
    144          1           0      -15.310959   -6.646196   -1.628804
    145          1           0      -15.530832   -5.302753   -2.682313
    146          1           0      -16.920121   -6.334791   -2.381512
    147          1           0      -18.838034   -4.907248    1.600212
    148          1           0      -17.585576   -6.152546    1.514516
    149          1           0      -20.444031   -6.329340    1.280488
    150          1           0      -19.119402   -7.486655    1.287249
    151          1           0      -19.667688   -6.912403   -0.303734
    152          1           0      -22.392191   -1.083792   -0.076252
    153          1           0      -22.563885   -0.747674    1.663293
    154          1           0      -21.846801   -2.271473    1.200372
    155          1           0      -19.790888    3.394202   -0.163803
    156          1           0      -20.933126    5.599460    3.674603
    157          1           0      -20.841771    6.973180    2.589702
    158          1           0      -19.372601    6.235333    3.058744
 ---------------------------------------------------------------------

 SCF Done:  E(RCAM-B3LYP) =  -4069.78943385     A.U. after   19 cycles

 Excitation energies and oscillator strengths:

 Excited State   1:      Singlet-A      1.7143 eV  723.25 nm  f=0.4533  <S**2>=0.000
     310 -> 316       -0.15977
     311 -> 313        0.66369
     312 -> 314       -0.18352
 This state for optimization and/or second-order correction.
 Total Energy, E(TD-HF/TD-DFT) =  -4069.72643567
 Copying the excited state density for this state as the 1-particle RhoCI density.

 Excited State   2:      Singlet-A      1.7192 eV  721.19 nm  f=0.2963  <S**2>=0.000
     309 -> 315        0.18073
     311 -> 313        0.18516
     312 -> 314        0.65720
     309 <- 315        0.10321

 Excited State   3:      Singlet-A      2.1454 eV  577.91 nm  f=0.1683  <S**2>=0.000
     310 -> 313        0.66339
     311 -> 316        0.22681

 Excited State   4:      Singlet-A      2.2689 eV  546.45 nm  f=0.0058  <S**2>=0.000
     309 -> 314        0.54882
     312 -> 315       -0.43684

 Excited State   5:      Singlet-A      2.6525 eV  467.42 nm  f=0.0000  <S**2>=0.000
     312 -> 313        0.70710

 The electronic state is 1-A.
 Alpha  occ. eigenvalues --  -46.89440 -46.89423 -19.26722 -19.26152 -19.19751
 Alpha  occ. eigenvalues --  -19.19478 -19.19165 -19.19110 -19.18740 -19.18515
 Alpha  occ. eigenvalues --  -14.42961 -14.42260 -14.41905 -14.41883 -14.39821
 Alpha  occ. eigenvalues --  -14.39357 -14.39144 -14.38085 -10.39713 -10.39299
 Alpha  occ. eigenvalues --  -10.35812 -10.35667 -10.34899 -10.34888 -10.32179
 Alpha  occ. eigenvalues --  -10.32080 -10.31529 -10.31364 -10.31299 -10.31197
 Alpha  occ. eigenvalues --  -10.31150 -10.31075 -10.30919 -10.30842 -10.30688
 Alpha  occ. eigenvalues --  -10.30472 -10.30155 -10.29823 -10.29315 -10.29165
 Alpha  occ. eigenvalues --  -10.28995 -10.28960 -10.28759 -10.28653 -10.28608
 Alpha  occ. eigenvalues --  -10.28584 -10.28371 -10.28364 -10.28310 -10.28277
 Alpha  occ. eigenvalues --  -10.28230 -10.28145 -10.28103 -10.28099 -10.28030
 Alpha  occ. eigenvalues --  -10.27942 -10.27927 -10.27844 -10.27824 -10.27796
 Alpha  occ. eigenvalues --  -10.27762 -10.27360 -10.27344 -10.27133 -10.27008
 Alpha  occ. eigenvalues --  -10.26924 -10.26558 -10.26547 -10.26539 -10.26531
 Alpha  occ. eigenvalues --  -10.26412 -10.26379 -10.26282 -10.26237 -10.26204
 Alpha  occ. eigenvalues --  -10.26178 -10.25943 -10.25872 -10.25723 -10.25480
 Alpha  occ. eigenvalues --  -10.25351 -10.25094 -10.25019 -10.24950 -10.24921
 Alpha  occ. eigenvalues --  -10.24334  -3.17828  -3.17760  -1.92737  -1.92656
 Alpha  occ. eigenvalues --   -1.92253  -1.92202  -1.92143  -1.92061  -1.18159
 Alpha  occ. eigenvalues --   -1.16037  -1.11728  -1.08858  -1.08426  -1.07840
 Alpha  occ. eigenvalues --   -1.07120  -1.05982  -1.05471  -1.04422  -1.04073
 Alpha  occ. eigenvalues --   -1.03397  -1.03023  -1.02692  -1.02519  -1.01425
 Alpha  occ. eigenvalues --   -0.91916  -0.91210  -0.89659  -0.89344  -0.88927
 Alpha  occ. eigenvalues --   -0.88678  -0.88464  -0.88181  -0.88046  -0.87493
 Alpha  occ. eigenvalues --   -0.87239  -0.87198  -0.85742  -0.85461  -0.84864
 Alpha  occ. eigenvalues --   -0.84400  -0.83823  -0.83774  -0.82970  -0.82598
 Alpha  occ. eigenvalues --   -0.82504  -0.81916  -0.81395  -0.80728  -0.80665
 Alpha  occ. eigenvalues --   -0.80447  -0.78939  -0.78203  -0.77646  -0.77531
 Alpha  occ. eigenvalues --   -0.77418  -0.76525  -0.76185  -0.75460  -0.75294
 Alpha  occ. eigenvalues --   -0.74912  -0.72811  -0.72158  -0.71808  -0.71427
 Alpha  occ. eigenvalues --   -0.69969  -0.69242  -0.68787  -0.68411  -0.67856
 Alpha  occ. eigenvalues --   -0.67744  -0.67402  -0.66360  -0.65592  -0.65262
 Alpha  occ. eigenvalues --   -0.65098  -0.64948  -0.64738  -0.64623  -0.64422
 Alpha  occ. eigenvalues --   -0.64286  -0.62801  -0.62028  -0.61075  -0.59908
 Alpha  occ. eigenvalues --   -0.59838  -0.59309  -0.59102  -0.58593  -0.58421
 Alpha  occ. eigenvalues --   -0.58224  -0.57673  -0.57406  -0.57288  -0.57083
 Alpha  occ. eigenvalues --   -0.56268  -0.56095  -0.55970  -0.55862  -0.55544
 Alpha  occ. eigenvalues --   -0.55524  -0.55379  -0.55046  -0.54457  -0.54311
 Alpha  occ. eigenvalues --   -0.53994  -0.53963  -0.53537  -0.53333  -0.53198
 Alpha  occ. eigenvalues --   -0.52985  -0.52956  -0.52732  -0.52595  -0.52578
 Alpha  occ. eigenvalues --   -0.52441  -0.51899  -0.51778  -0.51635  -0.51239
 Alpha  occ. eigenvalues --   -0.51038  -0.50625  -0.50541  -0.50508  -0.50406
 Alpha  occ. eigenvalues --   -0.50202  -0.50172  -0.50110  -0.49584  -0.49500
 Alpha  occ. eigenvalues --   -0.49167  -0.49104  -0.48918  -0.48915  -0.48639
 Alpha  occ. eigenvalues --   -0.48637  -0.48548  -0.48421  -0.48186  -0.48163
 Alpha  occ. eigenvalues --   -0.47987  -0.47831  -0.47419  -0.47299  -0.47259
 Alpha  occ. eigenvalues --   -0.46826  -0.46605  -0.46555  -0.46532  -0.46444
 Alpha  occ. eigenvalues --   -0.46220  -0.46080  -0.46022  -0.45916  -0.45835
 Alpha  occ. eigenvalues --   -0.45504  -0.45372  -0.45242  -0.44793  -0.44623
 Alpha  occ. eigenvalues --   -0.44530  -0.44516  -0.44344  -0.44337  -0.44073
 Alpha  occ. eigenvalues --   -0.43920  -0.43784  -0.43734  -0.43477  -0.43443
 Alpha  occ. eigenvalues --   -0.43267  -0.43143  -0.43013  -0.42936  -0.42828
 Alpha  occ. eigenvalues --   -0.42646  -0.42414  -0.42353  -0.42135  -0.41990
 Alpha  occ. eigenvalues --   -0.41904  -0.41825  -0.41498  -0.41453  -0.41297
 Alpha  occ. eigenvalues --   -0.41117  -0.40927  -0.40769  -0.40559  -0.40212
 Alpha  occ. eigenvalues --   -0.39830  -0.39670  -0.39312  -0.38832  -0.38731
 Alpha  occ. eigenvalues --   -0.38539  -0.37958  -0.37858  -0.37369  -0.37257
 Alpha  occ. eigenvalues --   -0.37074  -0.36980  -0.36944  -0.36639  -0.36360
 Alpha  occ. eigenvalues --   -0.36135  -0.34777  -0.34140  -0.34012  -0.33986
 Alpha  occ. eigenvalues --   -0.33813  -0.33087  -0.32966  -0.32009  -0.31722
 Alpha  occ. eigenvalues --   -0.31388  -0.31210  -0.30852  -0.30618  -0.30167
 Alpha  occ. eigenvalues --   -0.30067  -0.29323  -0.28570  -0.24243  -0.24129
 Alpha  occ. eigenvalues --   -0.21833  -0.20194
 Alpha virt. eigenvalues --   -0.09432  -0.07564  -0.02500  -0.01349  -0.00088
 Alpha virt. eigenvalues --    0.00016   0.01731   0.01822   0.02410   0.02440
 Alpha virt. eigenvalues --    0.04380   0.04594   0.04870   0.05464   0.05620

 Mulliken charges:
               1
     1  Mg  11.993994
     2  C    6.025892
     3  C    5.989319
     4  C    5.972765
     5  C    6.005076
     6  N    7.017280
     7  C    5.962985
     8  C    6.009118
     9  C    5.990839
    10  C    6.035955
    11  C    5.998310
    12  C    6.002872
    13  C    5.997314
    14  H    1.002747
    15  N    6.989965
    16  C    6.041699
    17  C    6.016220
    18  C    6.020214
    19  C    6.034792
    20  C    5.993781
    21  C    6.009874
    22  O    8.032819
    23  C    5.993564
    24  N    6.992352
    25  C    6.030725
    26  C    5.995566
    27  C    6.012231
    28  C    5.971218
    29  C    5.997979
    30  C    6.010272
    31  C    6.002497
    32  N    7.004772
    33  C    5.965239
    34  C    5.969610
    35  C    6.000251
    36  C    5.962349
    37  C    6.002488
    38  C    5.987322
    39  O    7.974246
    40  C    5.994347
    41  C    5.994264
    42  O    7.998697
    43  O    7.997871
    44  C    6.002053
    45  H    1.009887
    46  H    1.001680
    47  H    0.985570
    48  H    1.002089
    49  H    1.002801
    50  H    1.014961
    51  H    0.999744
    52  H    0.999192
    53  H    0.993971
    54  H    1.007087
    55  H    0.997132
    56  H    0.994509
    57  H    1.017397
    58  H    1.019085
    59  H    1.018948
    60  H    1.007279
    61  H    1.014793
    62  H    1.008557
    63  H    0.998101
    64  H    0.997051
    65  H    0.993650
    66  H    1.010629
    67  H    1.000081
    68  H    0.988382
    69  H    1.002235
    70  H    0.984227
    71  H    0.994370
    72  H    1.005059
    73  H    0.979135
    74  H    0.979083
    75  H    0.984233
    76  H    0.995452
    77  H    0.996848
    78  H    0.999414
    79  H    0.993625
    80  Mg  11.999055
    81  C    6.006589
    82  C    5.996769
    83  C    5.991475
    84  C    6.004306
    85  N    7.003833
    86  C    5.990501
    87  C    6.001772
    88  C    5.996148
    89  C    6.009755
    90  C    5.998753
    91  C    6.001453
    92  C    5.999913
    93  H    0.999951
    94  N    6.995006
    95  C    6.010058
    96  C    6.004653
    97  C    6.003603
    98  C    6.012898
    99  C    5.999657
   100  C    6.002916
   101  O    8.006350
   102  C    5.999632
   103  N    6.998674
   104  C    6.012264
   105  C    5.996071
   106  C    6.004339
   107  C    5.990724
   108  C    5.999571
   109  C    6.000507
   110  C    6.000665
   111  N    7.001774
   112  C    5.988285
   113  C    5.990591
   114  C    6.000360
   115  C    5.990214
   116  C    6.000511
   117  C    5.995717
   118  O    7.992486
   119  C    6.000440
   120  C    5.998918
   121  O    7.997676
   122  O    8.000205
   123  C    6.000723
   124  H    1.003014
   125  H    1.001240
   126  H    0.997738
   127  H    1.000944
   128  H    1.001234
   129  H    1.002455
   130  H    0.999895
   131  H    1.003571
   132  H    0.996799
   133  H    1.001069
   134  H    1.001266
   135  H    0.998425
   136  H    1.003855
   137  H    1.004434
   138  H    1.004575
   139  H    1.003839
   140  H    1.001417
   141  H    1.001549
   142  H    1.000156
   143  H    0.998400
   144  H    1.000119
   145  H    0.999017
   146  H    1.003104
   147  H    1.001604
   148  H    0.997101
   149  H    1.000723
   150  H    0.998397
   151  H    0.998897
   152  H    0.994402
   153  H    0.995124
   154  H    0.994994
   155  H    0.997902
   156  H    0.999737
   157  H    0.998609
   158  H    0.998633
 Sum of Mulliken charges = 624.00000

 Dipole moment (field-independent basis, Debye):
    X=              8.6902    Y=             -1.7162    Z=              7.8095  Tot=             11.8090
 Quadrupole moment (field-independent basis, Debye-Ang):
   XX=            114.3171   YY=             -0.6376   ZZ=              2.6267
   XY=            -25.4628   XZ=            159.7018   YZ=             -4.6367

 Normal termination of Gaussian 16 at Wed Sep 22 04:54:48 2021.
