 Gaussian 16, Revision A.03,
 Gaussian 16:  ES64L-G16RevA.03 25-Dec-2016

 -----------------------------------
 #p cam-b3lyp/Def2SVP td=(nstates=5)
 -----------------------------------

 --------------------------------
 TDDFT excited states in gaussian
 --------------------------------
 Symbolic Z-matrix:
 Charge =  0 Multiplicity = 1

                         Standard orientation:
 ---------------------------------------------------------------------
 Center     Atomic      Atomic             Coordinates (Angstroms)
 Number     Number       Type             X           Y           Z
 ---------------------------------------------------------------------
      1         12           0       -9.701511    0.447433    0.574877
      2          6           0       -9.031183   -2.352925   -1.415081
      3          6           0       -6.733230   -0.278700    2.194356
      4          6           0      -10.069486    3.288427    2.288164
      5          6           0      -12.154582    1.452430   -1.703897
      6          7           0       -7.905495   -1.143520    0.212778
      7          6           0       -7.958181   -2.233051   -0.577171
      8          6           0       -6.741671   -3.120216   -0.464616
      9          6           0       -6.224501   -2.543431    0.908113
     10          6           0       -6.930378   -1.211664    1.141508
     11          6           0       -6.602253   -3.508019    2.063824
     12          6           0       -5.865817   -3.029367   -1.720642
     13          6           0       -5.651408   -1.665770   -2.409927
     14          1           0       -4.207765   -1.305291   -2.739823
     15          7           0       -8.587965    1.364250    2.025468
     16          6           0       -7.475664    0.832867    2.622576
     17          6           0       -7.262565    1.503074    3.911970
     18          6           0       -8.124769    2.671593    3.917080
     19          6           0       -8.982948    2.451593    2.713104
     20          6           0       -6.036808    1.180528    4.849620
     21          6           0       -8.116840    3.815692    4.933959
     22          8           0       -7.441332    3.749102    5.922903
     23          6           0       -8.995297    5.014870    4.722392
     24          7           0      -10.840239    2.250091    0.151469
     25          6           0      -10.927988    3.295349    1.089594
     26          6           0      -11.982802    4.408357    0.679872
     27          6           0      -12.676399    3.726573   -0.593975
     28          6           0      -11.868862    2.353843   -0.714078
     29          6           0      -13.031956    4.973117    1.762522
     30          6           0      -12.710709    4.566397   -1.951364
     31          6           0      -14.050434    4.245661   -2.780984
     32          7           0      -10.531169   -0.284905   -1.197918
     33          6           0      -11.582202    0.191350   -1.954955
     34          6           0      -11.884977   -0.768479   -3.009625
     35          6           0      -10.976662   -1.846210   -2.847103
     36          6           0      -10.108347   -1.462524   -1.762228
     37          6           0      -13.053555   -0.720098   -3.958816
     38          6           0      -10.436765   -3.146811   -3.361662
     39          8           0      -10.722285   -3.772855   -4.357979
     40          6           0       -9.219937   -3.497950   -2.404096
     41          6           0       -9.565865   -4.797199   -1.730044
     42          8           0       -9.485515   -5.920717   -2.286868
     43          8           0       -9.833127   -4.568385   -0.388037
     44          6           0       -9.951017   -5.734990    0.421375
     45          1           0       -5.845769   -0.557213    2.766606
     46          1           0      -10.414226    4.136773    2.883455
     47          1           0      -13.050519    1.681771   -2.284767
     48          1           0       -7.014305   -4.154708   -0.256664
     49          1           0       -5.157145   -2.352957    1.011728
     50          1           0       -6.789696   -2.873533    2.930417
     51          1           0       -5.835241   -4.270454    2.192245
     52          1           0       -7.553301   -4.039931    2.022997
     53          1           0       -6.380419   -3.619716   -2.478153
     54          1           0       -4.898976   -3.477368   -1.490945
     55          1           0       -6.001292   -0.876443   -1.745070
     56          1           0       -6.178754   -1.683185   -3.363277
     57          1           0       -5.084671    1.602952    4.527388
     58          1           0       -5.930579    0.100389    4.950758
     59          1           0       -6.148853    1.459121    5.896811
     60          1           0       -8.776343    5.811781    5.433839
     61          1           0      -10.058888    4.785102    4.789340
     62          1           0       -8.638609    5.382320    3.759812
     63          1           0      -11.296082    5.198693    0.379084
     64          1           0      -13.706016    3.445803   -0.374139
     65          1           0      -12.563017    5.830403    2.244084
     66          1           0      -13.296246    4.213270    2.497450
     67          1           0      -13.947249    5.252905    1.240529
     68          1           0      -11.926749    4.239075   -2.634181
     69          1           0      -12.581134    5.631539   -1.757990
     70          1           0      -13.813734    3.811592   -3.752490
     71          1           0      -14.605935    5.169174   -2.941570
     72          1           0      -14.738804    3.490558   -2.402989
     73          1           0      -12.993825    0.206247   -4.529143
     74          1           0      -13.984838   -0.719983   -3.392007
     75          1           0      -13.036601   -1.536848   -4.680248
     76          1           0       -8.406404   -3.727700   -3.091834
     77          1           0      -10.062466   -5.437953    1.463931
     78          1           0       -9.140562   -6.436766    0.223705
     79          1           0      -10.890291   -6.260091    0.247989
     80         12           0        9.946777    0.551681   -0.169606
     81          6           0        8.304337   -2.267629    0.890425
     82          6           0        6.919432    1.918846   -1.020175
     83          6           0       11.597428    3.364020   -1.350388
     84          6           0       12.990114   -1.043476    0.292931
     85          7           0        7.803065   -0.110140   -0.131442
     86          6           0        7.416720   -1.287235    0.443546
     87          6           0        5.970814   -1.418112    0.442963
     88          6           0        5.455097   -0.220229   -0.338786
     89          6           0        6.795155    0.607217   -0.565380
     90          6           0        4.673784   -0.470776   -1.674718
     91          6           0        5.397340   -1.519682    1.897385
     92          6           0        4.116620   -2.401303    2.098562
     93          1           0        3.157393   -2.533919    0.899424
     94          7           0        9.298611    2.432497   -0.957884
     95          6           0        7.983218    2.783871   -1.208273
     96          6           0        7.952801    4.148990   -1.771306
     97          6           0        9.339940    4.598152   -1.870779
     98          6           0       10.148484    3.474481   -1.366656
     99          6           0        6.690054    4.882803   -2.192386
    100          6           0        9.838750    5.967359   -2.269864
    101          8           0       11.058888    6.202808   -2.222224
    102          6           0        8.977822    7.071421   -2.758646
    103          7           0       11.998190    1.072334   -0.563483
    104          6           0       12.385430    2.280604   -0.982149
    105          6           0       13.917598    2.405911   -0.943661
    106          6           0       14.415545    1.068222   -0.166893
    107          6           0       13.025249    0.347283   -0.066432
    108          6           0       14.509067    2.589691   -2.375219
    109          6           0       15.018982    1.300612    1.245435
    110          6           0       16.523173    1.020632    1.381106
    111          7           0       10.582160   -1.313066    0.398974
    112          6           0       11.866798   -1.844808    0.533079
    113          6           0       11.792014   -3.242779    1.012480
    114          6           0       10.392939   -3.413890    1.135497
    115          6           0        9.711636   -2.229674    0.746269
    116          6           0       12.878205   -4.147497    1.330567
    117          6           0        9.361018   -4.353647    1.620415
    118          8           0        9.445245   -5.438677    2.131645
    119          6           0        7.969348   -3.650568    1.434368
    120          6           0        7.099712   -4.541354    0.649509
    121          8           0        7.310487   -4.715078   -0.561657
    122          8           0        6.012535   -5.015859    1.317385
    123          6           0        4.989292   -5.737853    0.567815
    124          1           0        5.939601    2.325675   -1.278805
    125          1           0       12.099311    4.243133   -1.760528
    126          1           0       13.969055   -1.457097    0.543619
    127          1           0        5.718803   -2.331995   -0.096108
    128          1           0        4.891372    0.458892    0.301891
    129          1           0        4.466133   -1.476924   -2.040372
    130          1           0        5.201096    0.052145   -2.472212
    131          1           0        3.705943    0.029824   -1.712060
    132          1           0        5.256165   -0.518740    2.305341
    133          1           0        6.200543   -1.819903    2.570051
    134          1           0        3.538657   -2.031228    2.945853
    135          1           0        4.347409   -3.453233    2.264106
    136          1           0        5.774662    4.358403   -1.920402
    137          1           0        6.644157    4.994656   -3.276025
    138          1           0        6.576725    5.796096   -1.608576
    139          1           0        9.627664    7.938688   -2.871528
    140          1           0        8.148893    7.306779   -2.089843
    141          1           0        8.475740    6.760994   -3.675129
    142          1           0       14.148863    3.225537   -0.263221
    143          1           0       15.082282    0.456354   -0.774394
    144          1           0       15.210881    3.420249   -2.452080
    145          1           0       13.717608    2.782248   -3.100036
    146          1           0       14.953034    1.619988   -2.601576
    147          1           0       14.538789    0.706447    2.022022
    148          1           0       14.867797    2.324496    1.588050
    149          1           0       17.010166    1.182674    0.419434
    150          1           0       16.645522   -0.026924    1.654541
    151          1           0       16.876985    1.624583    2.215651
    152          1           0       12.567521   -4.971180    1.972932
    153          1           0       13.724612   -3.654104    1.807927
    154          1           0       13.130486   -4.690946    0.419890
    155          1           0        7.655558   -3.540732    2.472985
    156          1           0        5.322226   -6.692412    0.159381
    157          1           0        4.535885   -5.098502   -0.189590
    158          1           0        4.178119   -6.017744    1.239765
 ---------------------------------------------------------------------

 SCF Done:  E(RCAM-B3LYP) =  -4069.84258906     A.U. after   18 cycles

 Excitation energies and oscillator strengths:

 Excited State   1:      Singlet-A      1.7299 eV  716.73 nm  f=0.3929  <S**2>=0.000
     310 -> 316        0.18806
     312 -> 314        0.68047
     310 <- 316        0.10855
 This state for optimization and/or second-order correction.
 Total Energy, E(TD-HF/TD-DFT) =  -4069.77901816
 Copying the excited state density for this state as the 1-particle RhoCI density.

 Excited State   2:      Singlet-A      1.7465 eV  709.91 nm  f=0.3505  <S**2>=0.000
     309 -> 315        0.19365
     311 -> 313        0.67874
     309 <- 315        0.10922

 Excited State   3:      Singlet-A      2.2371 eV  554.21 nm  f=0.1072  <S**2>=0.000
     309 -> 313        0.63358
     311 -> 315       -0.29827

 Excited State   4:      Singlet-A      2.2552 eV  549.77 nm  f=0.0848  <S**2>=0.000
     310 -> 314        0.62373
     312 -> 316       -0.31584

 Excited State   5:      Singlet-A      2.7872 eV  444.83 nm  f=0.0000  <S**2>=0.000
     312 -> 313        0.70698

 The electronic state is 1-A.
 Alpha  occ. eigenvalues --  -46.90534 -46.88886 -19.26160 -19.25995 -19.20133
 Alpha  occ. eigenvalues --  -19.19673 -19.19313 -19.19177 -19.19049 -19.18362
 Alpha  occ. eigenvalues --  -14.42396 -14.41954 -14.41828 -14.41724 -14.40662
 Alpha  occ. eigenvalues --  -14.39610 -14.39490 -14.39246 -10.40096 -10.39573
 Alpha  occ. eigenvalues --  -10.35915 -10.35442 -10.34958 -10.34857 -10.32962
 Alpha  occ. eigenvalues --  -10.32349 -10.32092 -10.31965 -10.31272 -10.30989
 Alpha  occ. eigenvalues --  -10.30912 -10.30721 -10.30651 -10.30610 -10.30419
 Alpha  occ. eigenvalues --  -10.30356 -10.30106 -10.30017 -10.30008 -10.29919
 Alpha  occ. eigenvalues --  -10.29719 -10.29688 -10.29403 -10.29363 -10.29152
 Alpha  occ. eigenvalues --  -10.29078 -10.28727 -10.28695 -10.28656 -10.28599
 Alpha  occ. eigenvalues --  -10.28552 -10.28394 -10.28289 -10.28201 -10.28132
 Alpha  occ. eigenvalues --  -10.28048 -10.28012 -10.27937 -10.27904 -10.27898
 Alpha  occ. eigenvalues --  -10.27860 -10.27858 -10.27771 -10.27524 -10.27489
 Alpha  occ. eigenvalues --  -10.27387 -10.27370 -10.27234 -10.27049 -10.26986
 Alpha  occ. eigenvalues --  -10.26581 -10.26484 -10.26450 -10.26368 -10.26352
 Alpha  occ. eigenvalues --  -10.26311 -10.26097 -10.26068 -10.26066 -10.26063
 Alpha  occ. eigenvalues --  -10.26021 -10.26015 -10.26007 -10.25504 -10.25352
 Alpha  occ. eigenvalues --  -10.25252  -3.18896  -3.17309  -1.93759  -1.93371
 Alpha  occ. eigenvalues --   -1.93186  -1.92230  -1.91748  -1.91616  -1.16577
 Alpha  occ. eigenvalues --   -1.16457  -1.11643  -1.10952  -1.10783  -1.08916
 Alpha  occ. eigenvalues --   -1.07169  -1.07140  -1.05124  -1.04930  -1.04050
 Alpha  occ. eigenvalues --   -1.04027  -1.03375  -1.03098  -1.02032  -1.00956
 Alpha  occ. eigenvalues --   -0.92649  -0.92492  -0.89179  -0.89142  -0.88477
 Alpha  occ. eigenvalues --   -0.88278  -0.87862  -0.87706  -0.87483  -0.87192
 Alpha  occ. eigenvalues --   -0.86733  -0.86255  -0.86182  -0.85805  -0.84995
 Alpha  occ. eigenvalues --   -0.83953  -0.83567  -0.83476  -0.82858  -0.82337
 Alpha  occ. eigenvalues --   -0.82011  -0.81872  -0.81227  -0.80939  -0.80555
 Alpha  occ. eigenvalues --   -0.80504  -0.78434  -0.77673  -0.77567  -0.77418
 Alpha  occ. eigenvalues --   -0.77312  -0.76858  -0.76546  -0.76242  -0.75464
 Alpha  occ. eigenvalues --   -0.74890  -0.72949  -0.72596  -0.72197  -0.71508
 Alpha  occ. eigenvalues --   -0.70070  -0.69543  -0.69264  -0.68360  -0.68353
 Alpha  occ. eigenvalues --   -0.68039  -0.67300  -0.66922  -0.66023  -0.65845
 Alpha  occ. eigenvalues --   -0.65443  -0.65050  -0.65033  -0.64972  -0.64768
 Alpha  occ. eigenvalues --   -0.64330  -0.63847  -0.62736  -0.60169  -0.59854
 Alpha  occ. eigenvalues --   -0.59586  -0.59414  -0.59224  -0.59102  -0.58758
 Alpha  occ. eigenvalues --   -0.58313  -0.58226  -0.57923  -0.57480  -0.57287
 Alpha  occ. eigenvalues --   -0.56431  -0.56226  -0.56051  -0.55982  -0.55633
 Alpha  occ. eigenvalues --   -0.55341  -0.55210  -0.54735  -0.54429  -0.53984
 Alpha  occ. eigenvalues --   -0.53794  -0.53448  -0.53345  -0.53199  -0.52924
 Alpha  occ. eigenvalues --   -0.52920  -0.52790  -0.52411  -0.52218  -0.52084
 Alpha  occ. eigenvalues --   -0.51777  -0.51659  -0.51564  -0.51504  -0.51281
 Alpha  occ. eigenvalues --   -0.51216  -0.51184  -0.50835  -0.50680  -0.50203
 Alpha  occ. eigenvalues --   -0.50195  -0.50073  -0.49956  -0.49851  -0.49845
 Alpha  occ. eigenvalues --   -0.49684  -0.49374  -0.49064  -0.48994  -0.48812
 Alpha  occ. eigenvalues --   -0.48542  -0.48508  -0.48480  -0.48124  -0.47947
 Alpha  occ. eigenvalues --   -0.47721  -0.47470  -0.47460  -0.47372  -0.47200
 Alpha  occ. eigenvalues --   -0.47109  -0.47087  -0.46810  -0.46700  -0.46448
 Alpha  occ. eigenvalues --   -0.46283  -0.46230  -0.45866  -0.45815  -0.45715
 Alpha  occ. eigenvalues --   -0.45711  -0.45515  -0.45459  -0.45342  -0.45205
 Alpha  occ. eigenvalues --   -0.45023  -0.44922  -0.44533  -0.44375  -0.44324
 Alpha  occ. eigenvalues --   -0.44082  -0.43995  -0.43805  -0.43780  -0.43599
 Alpha  occ. eigenvalues --   -0.43524  -0.43485  -0.43405  -0.43164  -0.43120
 Alpha  occ. eigenvalues --   -0.43012  -0.42929  -0.42623  -0.42357  -0.42352
 Alpha  occ. eigenvalues --   -0.42157  -0.42137  -0.41863  -0.41859  -0.41484
 Alpha  occ. eigenvalues --   -0.41364  -0.41164  -0.40915  -0.40698  -0.40537
 Alpha  occ. eigenvalues --   -0.40333  -0.40054  -0.39995  -0.39533  -0.39221
 Alpha  occ. eigenvalues --   -0.39105  -0.38260  -0.38184  -0.37480  -0.37449
 Alpha  occ. eigenvalues --   -0.37331  -0.37241  -0.36908  -0.36739  -0.36625
 Alpha  occ. eigenvalues --   -0.36469  -0.36026  -0.34825  -0.34526  -0.34037
 Alpha  occ. eigenvalues --   -0.33980  -0.33294  -0.33112  -0.31512  -0.31345
 Alpha  occ. eigenvalues --   -0.31130  -0.31034  -0.30891  -0.30750  -0.30697
 Alpha  occ. eigenvalues --   -0.30062  -0.29865  -0.29501  -0.24173  -0.23880
 Alpha  occ. eigenvalues --   -0.21533  -0.20801
 Alpha virt. eigenvalues --   -0.08775  -0.08287  -0.02218  -0.01720  -0.00043
 Alpha virt. eigenvalues --    0.00546   0.00635   0.01872   0.02547   0.03092
 Alpha virt. eigenvalues --    0.04303   0.04456   0.05188   0.05347   0.05725

 Mulliken charges:
               1
     1  Mg   0.821408
     2  C    0.141470
     3  C   -0.072615
     4  C   -0.088107
     5  C   -0.079303
     6  N   -0.220275
     7  C   -0.143205
     8  C    0.066546
     9  C   -0.054736
    10  C   -0.010800
    11  C    0.063580
    12  C    0.064018
    13  C   -0.078126
    14  H    0.014263
    15  N   -0.372545
    16  C    0.163104
    17  C   -0.137124
    18  C   -0.058535
    19  C    0.190459
    20  C    0.093503
    21  C   -0.010421
    22  O   -0.168334
    23  C    0.051875
    24  N   -0.300574
    25  C   -0.021106
    26  C   -0.011926
    27  C   -0.040259
    28  C    0.045006
    29  C    0.055023
    30  C    0.036373
    31  C   -0.036926
    32  N   -0.352681
    33  C    0.125154
    34  C   -0.196419
    35  C    0.022645
    36  C    0.045455
    37  C    0.117931
    38  C    0.064127
    39  O   -0.137099
    40  C   -0.139243
    41  C    0.228320
    42  O   -0.237271
    43  O   -0.322979
    44  C    0.183347
    45  H   -0.018660
    46  H   -0.048294
    47  H   -0.045441
    48  H    0.002470
    49  H   -0.001159
    50  H    0.003963
    51  H    0.026440
    52  H    0.005206
    53  H    0.013426
    54  H    0.019844
    55  H    0.050716
    56  H    0.037798
    57  H    0.039499
    58  H    0.005518
    59  H    0.032000
    60  H    0.019436
    61  H    0.060097
    62  H    0.032288
    63  H    0.025955
    64  H    0.015838
    65  H    0.028274
    66  H    0.026071
    67  H    0.028529
    68  H    0.025441
    69  H    0.019071
    70  H    0.017269
    71  H    0.020873
    72  H    0.021861
    73  H    0.015804
    74  H    0.030026
    75  H    0.034387
    76  H    0.055773
    77  H    0.031294
    78  H    0.037698
    79  H    0.027686
    80  Mg   0.814889
    81  C   -0.017260
    82  C   -0.070423
    83  C   -0.047009
    84  C   -0.073538
    85  N   -0.243864
    86  C   -0.051372
    87  C   -0.008485
    88  C    0.010285
    89  C   -0.041536
    90  C    0.066075
    91  C    0.061657
    92  C   -0.064060
    93  H    0.001060
    94  N   -0.381048
    95  C    0.180002
    96  C   -0.151719
    97  C   -0.018577
    98  C    0.094819
    99  C    0.107291
   100  C   -0.005690
   101  O   -0.232205
   102  C    0.074355
   103  N   -0.261016
   104  C    0.046054
   105  C   -0.044104
   106  C   -0.048501
   107  C    0.017394
   108  C    0.079020
   109  C    0.027455
   110  C    0.003022
   111  N   -0.356639
   112  C    0.120850
   113  C   -0.150003
   114  C   -0.006753
   115  C    0.104795
   116  C    0.121501
   117  C    0.014271
   118  O   -0.146139
   119  C    0.025440
   120  C    0.218351
   121  O   -0.248714
   122  O   -0.321633
   123  C    0.184637
   124  H   -0.049109
   125  H    0.001169
   126  H   -0.028703
   127  H    0.022835
   128  H    0.007948
   129  H    0.027408
   130  H    0.010659
   131  H    0.004964
   132  H   -0.006341
   133  H    0.001771
   134  H    0.030974
   135  H    0.046756
   136  H    0.002097
   137  H    0.041719
   138  H    0.029983
   139  H    0.037760
   140  H    0.020634
   141  H    0.031224
   142  H    0.014348
   143  H    0.014700
   144  H    0.025720
   145  H    0.025028
   146  H    0.008127
   147  H    0.007516
   148  H    0.001698
   149  H    0.019708
   150  H    0.010867
   151  H    0.018616
   152  H    0.025068
   153  H    0.026366
   154  H    0.033684
   155  H    0.036662
   156  H    0.048494
   157  H    0.035169
   158  H    0.031547
 Sum of Mulliken charges =  -0.00000

 Dipole moment (field-independent basis, Debye):
    X=             -4.8716    Y=              5.8739    Z=              4.0919  Tot=              8.6591
 Quadrupole moment (field-independent basis, Debye-Ang):
   XX=           -472.3639   YY=           -537.6283   ZZ=           -550.1335
   XY=            -43.9162   XZ=            -26.2651   YZ=            -35.6263

 Normal termination of Gaussian 16 at Thu Sep  2 02:32:56 2021.
