 Gaussian 16, Revision A.03,
 Gaussian 16:  ES64L-G16RevA.03 25-Dec-2016

 -----------------------------------
 #p cam-b3lyp/Def2SVP td=(nstates=5)
 -----------------------------------

 --------------------------------
 TDDFT excited states in gaussian
 --------------------------------
 Symbolic Z-matrix:
 Charge =  0 Multiplicity = 1

                         Standard orientation:
 ---------------------------------------------------------------------
 Center     Atomic      Atomic             Coordinates (Angstroms)
 Number     Number       Type             X           Y           Z
 ---------------------------------------------------------------------
      1         12           0       19.897176   -0.765415    0.357155
      2          6           0       19.461708    2.145914   -1.514383
      3          6           0       20.613844    1.064057    3.043472
      4          6           0       21.544993   -3.483869    1.614057
      5          6           0       19.189881   -2.636730   -2.494893
      6          7           0       19.860498    1.394468    0.764573
      7          6           0       19.644716    2.351811   -0.129362
      8          6           0       19.588310    3.737199    0.610413
      9          6           0       20.069328    3.365831    2.033589
     10          6           0       20.221890    1.849254    1.965686
     11          6           0       21.517457    3.957018    2.410357
     12          6           0       18.154651    4.438196    0.633959
     13          6           0       18.239042    5.907151    0.397406
     14          1           0       17.550038    6.861989    1.360111
     15          7           0       20.910260   -1.144348    2.102796
     16          6           0       21.085314   -0.248403    3.123988
     17          6           0       21.551705   -0.977197    4.311792
     18          6           0       21.820577   -2.305825    3.879389
     19          6           0       21.462899   -2.327487    2.451314
     20          6           0       21.800741   -0.290112    5.692348
     21          6           0       22.437797   -3.486880    4.687443
     22          8           0       22.630018   -4.607802    4.229802
     23          6           0       22.790728   -3.247801    6.106787
     24          7           0       20.330886   -2.701399   -0.315965
     25          6           0       21.094231   -3.674171    0.336527
     26          6           0       21.355446   -4.861158   -0.627189
     27          6           0       20.099703   -4.807085   -1.603413
     28          6           0       19.865603   -3.279134   -1.434064
     29          6           0       22.744668   -4.806593   -1.298331
     30          6           0       18.883659   -5.593236   -1.203172
     31          6           0       17.939828   -5.080705   -0.156220
     32          7           0       19.224250   -0.417228   -1.564191
     33          6           0       19.013973   -1.253479   -2.636158
     34          6           0       18.586764   -0.519244   -3.829364
     35          6           0       18.844567    0.880249   -3.471809
     36          6           0       19.240489    0.851626   -2.077996
     37          6           0       18.265718   -1.083109   -5.117397
     38          6           0       18.860672    2.256864   -3.951375
     39          8           0       18.688115    2.729792   -5.011656
     40          6           0       19.193749    3.148368   -2.644312
     41          6           0       20.268754    4.184273   -2.856025
     42          8           0       21.465313    4.017870   -2.638701
     43          8           0       19.662973    5.379317   -3.242744
     44          6           0       20.536968    6.543756   -3.473648
     45          1           0       20.697921    1.476316    4.051515
     46          1           0       22.100490   -4.305413    2.071987
     47          1           0       18.888817   -3.285299   -3.319784
     48          1           0       20.313551    4.446416    0.210714
     49          1           0       19.433864    3.688606    2.858253
     50          1           0       21.346478    4.914178    2.903433
     51          1           0       22.160844    4.190936    1.562553
     52          1           0       21.986279    3.267367    3.113252
     53          1           0       17.651624    4.295646    1.590525
     54          1           0       17.426340    4.042747   -0.074197
     55          1           0       17.692867    6.035549   -0.536704
     56          1           0       19.225096    6.344203    0.242495
     57          1           0       22.840524    0.035239    5.674686
     58          1           0       21.553885   -0.953166    6.521868
     59          1           0       21.335417    0.691228    5.790716
     60          1           0       23.257093   -2.317895    6.431798
     61          1           0       23.457989   -4.035659    6.455395
     62          1           0       21.945651   -3.527388    6.736544
     63          1           0       21.265232   -5.733541    0.019406
     64          1           0       20.353490   -5.102497   -2.621307
     65          1           0       22.763739   -4.860119   -2.386866
     66          1           0       23.480239   -5.464253   -0.834625
     67          1           0       23.214010   -3.843568   -1.098104
     68          1           0       19.098415   -6.601552   -0.851290
     69          1           0       18.280181   -5.743820   -2.098408
     70          1           0       17.173201   -4.592844   -0.757931
     71          1           0       18.340555   -4.322697    0.517147
     72          1           0       17.534574   -5.923096    0.405287
     73          1           0       17.464529   -0.462679   -5.519384
     74          1           0       17.884385   -2.088463   -4.940382
     75          1           0       19.134525   -1.042066   -5.773612
     76          1           0       18.280445    3.684804   -2.386953
     77          1           0       21.309539    6.225399   -4.174085
     78          1           0       21.036450    6.842672   -2.552465
     79          1           0       20.109150    7.471255   -3.854555
     80         12           0      -20.642030   -0.500381   -0.268937
     81          6           0      -18.231824    2.006197    0.121729
     82          6           0      -23.050030    1.649995    0.852681
     83          6           0      -22.792280   -3.012893   -0.338960
     84          6           0      -17.994714   -2.696037   -1.242196
     85          7           0      -20.599784    1.593907    0.454910
     86          6           0      -19.543740    2.477617    0.477737
     87          6           0      -20.038032    3.890455    0.727776
     88          6           0      -21.519377    3.664740    1.228325
     89          6           0      -21.743994    2.201807    0.714394
     90          6           0      -21.677722    3.778665    2.739175
     91          6           0      -19.770334    4.784858   -0.537237
     92          6           0      -20.433573    6.187647   -0.453466
     93          1           0      -20.599685    6.779652    0.930687
     94          7           0      -22.580391   -0.647374    0.161934
     95          6           0      -23.410148    0.317840    0.718433
     96          6           0      -24.762385   -0.207850    0.975905
     97          6           0      -24.672611   -1.577362    0.578336
     98          6           0      -23.302772   -1.790315    0.118610
     99          6           0      -25.877471    0.629251    1.480455
    100          6           0      -25.781952   -2.595225    0.643783
    101          8           0      -25.629550   -3.777172    0.227753
    102          6           0      -27.154311   -2.224562    1.137052
    103          7           0      -20.422127   -2.570753   -0.787402
    104          6           0      -21.496965   -3.356751   -0.720602
    105          6           0      -21.093326   -4.871366   -0.998342
    106          6           0      -19.487705   -4.776595   -1.259003
    107          6           0      -19.276185   -3.273311   -1.074292
    108          6           0      -21.508309   -5.740704    0.258614
    109          6           0      -19.032192   -5.204999   -2.719184
    110          6           0      -18.776750   -6.724986   -2.930451
    111          7           0      -18.572824   -0.452430   -0.460297
    112          6           0      -17.617553   -1.368515   -0.974573
    113          6           0      -16.246521   -0.696292   -1.034995
    114          6           0      -16.417609    0.596301   -0.549775
    115          6           0      -17.875068    0.715728   -0.290123
    116          6           0      -14.965840   -1.270075   -1.555125
    117          6           0      -15.790861    1.869896   -0.283648
    118          8           0      -14.622809    2.257005   -0.389451
    119          6           0      -16.983408    2.912861   -0.004011
    120          6           0      -16.737510    3.769052    1.217176
    121          8           0      -17.033771    3.446400    2.335837
    122          8           0      -16.341216    5.075554    0.852206
    123          6           0      -16.498745    6.133826    1.861151
    124          1           0      -23.686345    2.434317    1.268763
    125          1           0      -23.503395   -3.841773   -0.345087
    126          1           0      -17.127830   -3.333335   -1.429319
    127          1           0      -19.431489    4.311073    1.528819
    128          1           0      -22.277546    4.286680    0.751338
    129          1           0      -22.433313    4.548084    2.897128
    130          1           0      -20.696982    3.967734    3.175035
    131          1           0      -22.181653    2.917301    3.176940
    132          1           0      -19.983591    4.082360   -1.342314
    133          1           0      -18.688665    4.909667   -0.574483
    134          1           0      -21.398249    6.030985   -0.936206
    135          1           0      -19.826517    6.881479   -1.034825
    136          1           0      -26.082862    0.181083    2.452445
    137          1           0      -26.737170    0.650205    0.811226
    138          1           0      -25.700676    1.682938    1.700064
    139          1           0      -27.585970   -1.488974    0.459705
    140          1           0      -26.873726   -1.864482    2.127641
    141          1           0      -27.852320   -3.046546    1.293448
    142          1           0      -21.655534   -5.048800   -1.915979
    143          1           0      -18.827057   -5.142927   -0.472075
    144          1           0      -21.955997   -5.172585    1.073858
    145          1           0      -20.629994   -6.239365    0.669371
    146          1           0      -22.293929   -6.406581   -0.097246
    147          1           0      -18.245876   -4.561673   -3.113044
    148          1           0      -19.875804   -4.971450   -3.367892
    149          1           0      -19.406716   -7.033738   -3.763917
    150          1           0      -18.967061   -7.241136   -1.989366
    151          1           0      -17.743770   -6.931162   -3.211714
    152          1           0      -14.779875   -0.777043   -2.509541
    153          1           0      -15.054012   -2.351543   -1.665660
    154          1           0      -14.058242   -1.095120   -0.977784
    155          1           0      -17.067499    3.519343   -0.905326
    156          1           0      -15.652530    6.001976    2.534893
    157          1           0      -17.496864    6.105740    2.298735
    158          1           0      -16.449725    7.077546    1.318590
 ---------------------------------------------------------------------

 SCF Done:  E(RCAM-B3LYP) =  -4069.83074508     A.U. after   17 cycles

 Excitation energies and oscillator strengths:

 Excited State   1:      Singlet-A      1.6811 eV  737.52 nm  f=0.3805  <S**2>=0.000
     310 -> 316       -0.17701
     311 -> 313        0.68646
     310 <- 316       -0.10854
 This state for optimization and/or second-order correction.
 Total Energy, E(TD-HF/TD-DFT) =  -4069.76896566
 Copying the excited state density for this state as the 1-particle RhoCI density.

 Excited State   2:      Singlet-A      1.7141 eV  723.31 nm  f=0.3830  <S**2>=0.000
     309 -> 315        0.19943
     312 -> 314        0.68030
     309 <- 315        0.11162

 Excited State   3:      Singlet-A      2.2559 eV  549.59 nm  f=0.1044  <S**2>=0.000
     310 -> 313        0.63267
     311 -> 316        0.30602

 Excited State   4:      Singlet-A      2.2903 eV  541.34 nm  f=0.0346  <S**2>=0.000
     309 -> 314        0.58797
     312 -> 315       -0.38617

 Excited State   5:      Singlet-A      3.0301 eV  409.18 nm  f=0.0000  <S**2>=0.000
     312 -> 313        0.70710

 The electronic state is 1-A.
 Alpha  occ. eigenvalues --  -46.88072 -46.87893 -19.24994 -19.23979 -19.20302
 Alpha  occ. eigenvalues --  -19.20074 -19.19660 -19.19184 -19.19158 -19.18392
 Alpha  occ. eigenvalues --  -14.42167 -14.42151 -14.41560 -14.41397 -14.39952
 Alpha  occ. eigenvalues --  -14.39878 -14.39258 -14.39199 -10.39666 -10.39422
 Alpha  occ. eigenvalues --  -10.35623 -10.35535 -10.35495 -10.35247 -10.31774
 Alpha  occ. eigenvalues --  -10.31762 -10.31307 -10.30916 -10.30756 -10.30612
 Alpha  occ. eigenvalues --  -10.30565 -10.30560 -10.30367 -10.30358 -10.30315
 Alpha  occ. eigenvalues --  -10.30114 -10.29976 -10.29858 -10.29723 -10.29621
 Alpha  occ. eigenvalues --  -10.29478 -10.29449 -10.29361 -10.29227 -10.29105
 Alpha  occ. eigenvalues --  -10.28754 -10.28638 -10.28543 -10.28353 -10.28298
 Alpha  occ. eigenvalues --  -10.28269 -10.28264 -10.28192 -10.28191 -10.28141
 Alpha  occ. eigenvalues --  -10.27882 -10.27739 -10.27709 -10.27642 -10.27612
 Alpha  occ. eigenvalues --  -10.27576 -10.27534 -10.27513 -10.27162 -10.27053
 Alpha  occ. eigenvalues --  -10.26905 -10.26861 -10.26678 -10.26620 -10.26442
 Alpha  occ. eigenvalues --  -10.26436 -10.26222 -10.26095 -10.26059 -10.26026
 Alpha  occ. eigenvalues --  -10.25987 -10.25905 -10.25788 -10.25766 -10.25569
 Alpha  occ. eigenvalues --  -10.25541 -10.25515 -10.25399 -10.25350 -10.25152
 Alpha  occ. eigenvalues --  -10.24521  -3.16754  -3.16596  -1.91659  -1.91499
 Alpha  occ. eigenvalues --   -1.91194  -1.91084  -1.91027  -1.90923  -1.15478
 Alpha  occ. eigenvalues --   -1.15129  -1.12918  -1.10135  -1.09116  -1.07806
 Alpha  occ. eigenvalues --   -1.07777  -1.07426  -1.05154  -1.04329  -1.03553
 Alpha  occ. eigenvalues --   -1.03468  -1.02843  -1.02799  -1.02111  -1.01377
 Alpha  occ. eigenvalues --   -0.91843  -0.91607  -0.89005  -0.88914  -0.88605
 Alpha  occ. eigenvalues --   -0.88578  -0.87993  -0.87829  -0.87565  -0.87157
 Alpha  occ. eigenvalues --   -0.86872  -0.86727  -0.86323  -0.86280  -0.84249
 Alpha  occ. eigenvalues --   -0.84152  -0.83570  -0.82939  -0.82514  -0.82192
 Alpha  occ. eigenvalues --   -0.81931  -0.81841  -0.80972  -0.80757  -0.80338
 Alpha  occ. eigenvalues --   -0.80003  -0.78964  -0.78219  -0.77419  -0.77245
 Alpha  occ. eigenvalues --   -0.76977  -0.76706  -0.75823  -0.75763  -0.74838
 Alpha  occ. eigenvalues --   -0.74545  -0.72220  -0.72068  -0.71470  -0.71442
 Alpha  occ. eigenvalues --   -0.69412  -0.69200  -0.68616  -0.68470  -0.68276
 Alpha  occ. eigenvalues --   -0.67724  -0.67065  -0.66732  -0.65680  -0.65512
 Alpha  occ. eigenvalues --   -0.65129  -0.64588  -0.64211  -0.64071  -0.63944
 Alpha  occ. eigenvalues --   -0.63765  -0.61776  -0.61266  -0.60637  -0.60122
 Alpha  occ. eigenvalues --   -0.59567  -0.59495  -0.58849  -0.58697  -0.58076
 Alpha  occ. eigenvalues --   -0.57797  -0.57740  -0.57512  -0.57205  -0.56774
 Alpha  occ. eigenvalues --   -0.56152  -0.55948  -0.55780  -0.55499  -0.55321
 Alpha  occ. eigenvalues --   -0.54811  -0.54522  -0.54239  -0.54072  -0.53954
 Alpha  occ. eigenvalues --   -0.53682  -0.53542  -0.53352  -0.53245  -0.52938
 Alpha  occ. eigenvalues --   -0.52511  -0.52487  -0.52210  -0.52141  -0.51900
 Alpha  occ. eigenvalues --   -0.51748  -0.51748  -0.51596  -0.51438  -0.51354
 Alpha  occ. eigenvalues --   -0.51211  -0.51156  -0.50831  -0.50482  -0.50380
 Alpha  occ. eigenvalues --   -0.50149  -0.50063  -0.50045  -0.49591  -0.49535
 Alpha  occ. eigenvalues --   -0.49498  -0.49428  -0.49321  -0.49123  -0.49004
 Alpha  occ. eigenvalues --   -0.48882  -0.48581  -0.48504  -0.48290  -0.48107
 Alpha  occ. eigenvalues --   -0.48054  -0.47964  -0.47773  -0.47385  -0.46937
 Alpha  occ. eigenvalues --   -0.46877  -0.46766  -0.46568  -0.46252  -0.46180
 Alpha  occ. eigenvalues --   -0.46074  -0.46070  -0.45730  -0.45721  -0.45594
 Alpha  occ. eigenvalues --   -0.45479  -0.45206  -0.45170  -0.45159  -0.44923
 Alpha  occ. eigenvalues --   -0.44855  -0.44649  -0.44608  -0.44362  -0.44177
 Alpha  occ. eigenvalues --   -0.44139  -0.43991  -0.43703  -0.43466  -0.43298
 Alpha  occ. eigenvalues --   -0.43224  -0.43121  -0.43069  -0.42894  -0.42776
 Alpha  occ. eigenvalues --   -0.42638  -0.42550  -0.42341  -0.42099  -0.41856
 Alpha  occ. eigenvalues --   -0.41548  -0.41514  -0.41502  -0.41342  -0.41284
 Alpha  occ. eigenvalues --   -0.41159  -0.40909  -0.40472  -0.40330  -0.40208
 Alpha  occ. eigenvalues --   -0.40184  -0.39224  -0.39105  -0.39073  -0.38635
 Alpha  occ. eigenvalues --   -0.38497  -0.38219  -0.38041  -0.37986  -0.37652
 Alpha  occ. eigenvalues --   -0.36950  -0.36650  -0.36562  -0.36505  -0.36273
 Alpha  occ. eigenvalues --   -0.35891  -0.35884  -0.34535  -0.34436  -0.34257
 Alpha  occ. eigenvalues --   -0.34143  -0.33175  -0.32781  -0.31383  -0.31313
 Alpha  occ. eigenvalues --   -0.31194  -0.30987  -0.30929  -0.30511  -0.30488
 Alpha  occ. eigenvalues --   -0.30028  -0.29999  -0.29530  -0.23983  -0.23958
 Alpha  occ. eigenvalues --   -0.20753  -0.20426
 Alpha virt. eigenvalues --   -0.08438  -0.07885  -0.02136  -0.01354  -0.00209
 Alpha virt. eigenvalues --    0.00427   0.02172   0.02445   0.02818   0.03263
 Alpha virt. eigenvalues --    0.04491   0.04590   0.04957   0.05609   0.05878

 Mulliken charges:
               1
     1  Mg   0.845361
     2  C    0.027392
     3  C   -0.076837
     4  C   -0.074868
     5  C   -0.103086
     6  N   -0.243953
     7  C   -0.032115
     8  C    0.000702
     9  C   -0.076708
    10  C    0.082365
    11  C    0.038845
    12  C    0.070133
    13  C   -0.093396
    14  H    0.009732
    15  N   -0.370814
    16  C    0.094387
    17  C   -0.139763
    18  C   -0.061988
    19  C    0.101667
    20  C    0.093658
    21  C    0.039029
    22  O   -0.200725
    23  C    0.041882
    24  N   -0.293926
    25  C    0.034426
    26  C    0.001894
    27  C   -0.010280
    28  C    0.025373
    29  C    0.092689
    30  C    0.017541
    31  C    0.022130
    32  N   -0.363047
    33  C    0.153945
    34  C   -0.162488
    35  C   -0.039990
    36  C    0.088735
    37  C    0.122986
    38  C    0.056386
    39  O   -0.102369
    40  C   -0.071458
    41  C    0.218766
    42  O   -0.220166
    43  O   -0.352110
    44  C    0.187133
    45  H   -0.036733
    46  H   -0.006475
    47  H   -0.034615
    48  H    0.020319
    49  H    0.017651
    50  H    0.008612
    51  H    0.029572
    52  H    0.017089
    53  H    0.013865
    54  H    0.013035
    55  H    0.031528
    56  H    0.030087
    57  H    0.034891
    58  H    0.042252
    59  H    0.009184
    60  H    0.038106
    61  H    0.012033
    62  H    0.038796
    63  H   -0.003751
    64  H   -0.004007
    65  H    0.017222
    66  H    0.021778
    67  H    0.010538
    68  H    0.001273
    69  H   -0.002054
    70  H    0.005414
    71  H    0.031869
    72  H    0.016208
    73  H    0.033385
    74  H    0.015326
    75  H    0.051186
    76  H    0.046761
    77  H    0.036644
    78  H    0.023040
    79  H    0.042899
    80  Mg   0.842092
    81  C   -0.020562
    82  C   -0.090092
    83  C   -0.079643
    84  C   -0.078341
    85  N   -0.250690
    86  C   -0.044699
    87  C   -0.013012
    88  C   -0.082121
    89  C   -0.014520
    90  C    0.091553
    91  C    0.015931
    92  C   -0.044480
    93  H    0.032149
    94  N   -0.411438
    95  C    0.200982
    96  C   -0.144006
    97  C   -0.033953
    98  C    0.153132
    99  C    0.122190
   100  C   -0.007224
   101  O   -0.241921
   102  C    0.080577
   103  N   -0.275390
   104  C    0.019557
   105  C   -0.035745
   106  C    0.002854
   107  C    0.012035
   108  C    0.060818
   109  C    0.002608
   110  C    0.023784
   111  N   -0.368233
   112  C    0.111828
   113  C   -0.177377
   114  C    0.032701
   115  C    0.112088
   116  C    0.110969
   117  C    0.072014
   118  O   -0.179451
   119  C   -0.071614
   120  C    0.225323
   121  O   -0.190695
   122  O   -0.375621
   123  C    0.183817
   124  H   -0.034858
   125  H   -0.005885
   126  H   -0.023970
   127  H    0.008522
   128  H    0.003684
   129  H    0.006445
   130  H    0.036700
   131  H    0.014641
   132  H    0.016683
   133  H    0.015040
   134  H    0.036681
   135  H    0.035931
   136  H    0.032161
   137  H    0.035705
   138  H    0.012028
   139  H    0.044601
   140  H    0.019925
   141  H    0.028108
   142  H    0.024705
   143  H    0.018524
   144  H    0.031726
   145  H    0.016252
   146  H    0.027676
   147  H    0.011366
   148  H   -0.004929
   149  H    0.019985
   150  H    0.018625
   151  H    0.014661
   152  H    0.037889
   153  H    0.005618
   154  H    0.037445
   155  H    0.063017
   156  H    0.049859
   157  H    0.033279
   158  H    0.033981
 Sum of Mulliken charges =  -0.00000

 Dipole moment (field-independent basis, Debye):
    X=             -5.3836    Y=              2.6076    Z=              2.5139  Tot=              6.4887
 Quadrupole moment (field-independent basis, Debye-Ang):
   XX=           -417.7195   YY=           -480.0444   ZZ=           -504.0890
   XY=            -43.7657   XZ=             65.1467   YZ=             29.3946

 Normal termination of Gaussian 16 at Tue Aug 31 23:53:58 2021.
