 Gaussian 16, Revision A.03,
 Gaussian 16:  ES64L-G16RevA.03 25-Dec-2016

 ----------------------------------------------------------
 #p cam-b3lyp/Def2SVP td=(nstates=5) density=(transition=1)
 ----------------------------------------------------------

 --------------------------------
 TDDFT excited states in gaussian
 --------------------------------
 Symbolic Z-matrix:
 Charge =  0 Multiplicity = 1

                         Standard orientation:
 ---------------------------------------------------------------------
 Center     Atomic      Atomic             Coordinates (Angstroms)
 Number     Number       Type             X           Y           Z
 ---------------------------------------------------------------------
      1         12           0      -30.352455    0.404971    0.373426
      2          6           0      -27.818421   -1.911396   -0.294445
      3          6           0      -32.051645   -0.974416   -2.318792
      4          6           0      -32.508601    2.815444    0.707972
      5          6           0      -28.304541    1.765944    2.922441
      6          7           0      -29.787871   -1.024085   -1.418194
      7          6           0      -28.800723   -1.922419   -1.341013
      8          6           0      -28.956012   -2.867595   -2.485207
      9          6           0      -30.078601   -2.258982   -3.360966
     10          6           0      -30.724819   -1.373178   -2.314277
     11          6           0      -29.721525   -1.513154   -4.647901
     12          6           0      -29.311243   -4.310812   -2.005836
     13          6           0      -28.495826   -5.518964   -2.569791
     14          1           0      -27.892377   -5.425581   -4.005943
     15          7           0      -32.161728    0.778576   -0.591307
     16          6           0      -32.739728   -0.044831   -1.548427
     17          6           0      -34.027304    0.501797   -1.829361
     18          6           0      -34.155431    1.715426   -1.041812
     19          6           0      -32.941231    1.831663   -0.248028
     20          6           0      -35.004373   -0.053235   -2.888783
     21          6           0      -35.288901    2.781096   -1.031031
     22          8           0      -35.287200    3.760075   -0.354266
     23          6           0      -36.488523    2.482819   -1.908713
     24          7           0      -30.370911    2.023578    1.649550
     25          6           0      -31.365313    2.933315    1.545031
     26          6           0      -31.249576    4.112179    2.550247
     27          6           0      -30.030066    3.599833    3.430712
     28          6           0      -29.528578    2.378208    2.669803
     29          6           0      -31.020739    5.525403    1.758372
     30          6           0      -30.383833    3.398595    4.937748
     31          6           0      -30.713104    1.993169    5.408179
     32          7           0      -28.445278    0.033688    1.240754
     33          6           0      -27.803822    0.603924    2.307019
     34          6           0      -26.509685   -0.133455    2.523362
     35          6           0      -26.497240   -1.124159    1.515612
     36          6           0      -27.676607   -0.977103    0.712818
     37          6           0      -25.391235    0.224120    3.464109
     38          6           0      -25.734087   -2.232758    0.947573
     39          8           0      -24.636652   -2.664508    1.311994
     40          6           0      -26.638627   -2.854794   -0.112113
     41          6           0      -25.793589   -2.975349   -1.347850
     42          8           0      -25.520607   -2.060361   -2.103024
     43          8           0      -25.279197   -4.193685   -1.314836
     44          6           0      -24.112921   -4.470617   -2.138634
     45          1           0      -32.523212   -1.305235   -3.245993
     46          1           0      -33.301276    3.523184    0.958173
     47          1           0      -27.680632    2.177377    3.719020
     48          1           0      -28.009521   -2.920695   -3.022263
     49          1           0      -30.684710   -3.100306   -3.697234
     50          1           0      -28.664783   -1.484903   -4.914200
     51          1           0      -30.077211   -0.483661   -4.597759
     52          1           0      -30.261866   -2.019614   -5.447364
     53          1           0      -30.372887   -4.545206   -2.080904
     54          1           0      -29.103090   -4.192665   -0.942529
     55          1           0      -29.215876   -6.338043   -2.551592
     56          1           0      -27.680293   -5.738092   -1.881068
     57          1           0      -35.338937    0.699552   -3.602628
     58          1           0      -35.949377   -0.375840   -2.451479
     59          1           0      -34.624869   -0.908528   -3.449408
     60          1           0      -36.896831    1.485751   -1.742372
     61          1           0      -36.195588    2.650741   -2.945172
     62          1           0      -37.249795    3.252817   -1.783683
     63          1           0      -32.143614    4.229087    3.162478
     64          1           0      -29.215713    4.321551    3.492793
     65          1           0      -29.980369    5.780670    1.960238
     66          1           0      -31.570854    6.360656    2.192329
     67          1           0      -31.098080    5.445391    0.673479
     68          1           0      -31.324425    3.936758    5.055910
     69          1           0      -29.647105    3.847609    5.603557
     70          1           0      -31.363423    1.600389    4.625621
     71          1           0      -31.226457    2.200480    6.346818
     72          1           0      -29.934885    1.235035    5.492141
     73          1           0      -25.458196    1.155358    4.026698
     74          1           0      -24.459433    0.290627    2.902305
     75          1           0      -25.279617   -0.644920    4.111734
     76          1           0      -26.911203   -3.894088    0.072439
     77          1           0      -23.626508   -3.663934   -2.686122
     78          1           0      -24.520254   -5.123654   -2.911077
     79          1           0      -23.533839   -5.255812   -1.652439
     80         12           0       30.446281    0.028485   -0.633729
     81          6           0       27.348709   -0.802175    0.928560
     82          6           0       29.109249    3.005431   -1.235503
     83          6           0       33.550262    1.241861   -1.194550
     84          6           0       31.758276   -2.836117    1.031480
     85          7           0       28.493015    0.911638   -0.323181
     86          6           0       27.320616    0.381829    0.258023
     87          6           0       26.122508    1.382675    0.243991
     88          6           0       26.742498    2.584484   -0.523646
     89          6           0       28.188779    2.123572   -0.802561
     90          6           0       25.850504    2.861012   -1.745364
     91          6           0       25.507210    1.816469    1.644018
     92          6           0       24.076238    1.376072    1.930183
     93          1           0       23.051160    2.474824    2.277786
     94          7           0       31.227734    1.791579   -1.222818
     95          6           0       30.470765    2.946389   -1.419475
     96          6           0       31.268129    3.973639   -1.956706
     97          6           0       32.550808    3.482152   -2.114755
     98          6           0       32.528717    2.163112   -1.515577
     99          6           0       30.848375    5.431670   -2.374842
    100          6           0       33.665812    4.279384   -2.749956
    101          8           0       33.517755    5.343846   -3.272597
    102          6           0       35.091510    3.540122   -2.817504
    103          7           0       32.388605   -0.644513   -0.094684
    104          6           0       33.509049    0.033672   -0.490579
    105          6           0       34.748974   -0.703484    0.162482
    106          6           0       34.239262   -2.031810    0.746061
    107          6           0       32.684293   -1.838392    0.575017
    108          6           0       35.965587   -0.793117   -0.714333
    109          6           0       34.578657   -2.098161    2.229928
    110          6           0       34.651690   -3.463009    2.861464
    111          7           0       29.679354   -1.663911    0.510742
    112          6           0       30.328750   -2.734248    1.078086
    113          6           0       29.393807   -3.607743    1.688819
    114          6           0       28.135965   -2.962933    1.623482
    115          6           0       28.420992   -1.719695    0.991424
    116          6           0       29.674840   -4.862016    2.414473
    117          6           0       26.704448   -2.960540    1.953877
    118          8           0       26.033312   -3.855430    2.485168
    119          6           0       26.108929   -1.572619    1.500355
    120          6           0       25.220780   -1.781312    0.388013
    121          8           0       25.664693   -2.026687   -0.758594
    122          8           0       23.961158   -1.706899    0.860932
    123          6           0       22.834679   -1.692629   -0.112135
    124          1           0       28.690183    3.983120   -1.483813
    125          1           0       34.533737    1.641128   -1.451549
    126          1           0       32.083473   -3.788217    1.455217
    127          1           0       25.303992    0.967262   -0.343776
    128          1           0       26.816516    3.491924    0.074898
    129          1           0       26.378279    3.588995   -2.360797
    130          1           0       24.858301    3.257908   -1.531052
    131          1           0       25.681252    1.967057   -2.346663
    132          1           0       25.424200    2.900476    1.565381
    133          1           0       26.184315    1.539979    2.452287
    134          1           0       24.118683    0.647294    2.740341
    135          1           0       23.668908    0.887893    1.044119
    136          1           0       31.535072    6.095511   -1.849218
    137          1           0       29.825072    5.662424   -2.079100
    138          1           0       30.805924    5.625746   -3.446554
    139          1           0       35.734543    4.198556   -3.400755
    140          1           0       34.850462    2.591510   -3.297813
    141          1           0       35.345731    3.449001   -1.761531
    142          1           0       35.026070   -0.039423    0.981986
    143          1           0       34.599728   -2.946751    0.276005
    144          1           0       36.516820   -1.692892   -0.442478
    145          1           0       36.540730    0.111979   -0.518099
    146          1           0       35.757631   -0.733315   -1.782003
    147          1           0       33.910899   -1.498316    2.848980
    148          1           0       35.522988   -1.603947    2.458074
    149          1           0       34.642258   -4.270599    2.129700
    150          1           0       33.786272   -3.572463    3.515365
    151          1           0       35.477905   -3.516411    3.570353
    152          1           0       30.576018   -5.350101    2.041972
    153          1           0       28.802602   -5.494829    2.248825
    154          1           0       29.838807   -4.565142    3.450623
    155          1           0       25.678193   -0.975652    2.304234
    156          1           0       22.079079   -2.225776    0.466700
    157          1           0       23.070000   -2.154355   -1.070607
    158          1           0       22.389664   -0.700389   -0.193745
 ---------------------------------------------------------------------

 SCF Done:  E(RCAM-B3LYP) =  -4069.80822985     A.U. after   17 cycles

 Excitation energies and oscillator strengths:

 Excited State   1:      Singlet-A      1.7225 eV  719.79 nm  f=0.3843  <S**2>=0.000
     309 -> 315       -0.17104
     311 -> 313        0.68727
     309 <- 315       -0.10383
 This state for optimization and/or second-order correction.
 Total Energy, E(TD-HF/TD-DFT) =  -4069.74492887
 Copying the excited state density for this state as the 1-particle RhoCI density.

 Excited State   2:      Singlet-A      1.7293 eV  716.97 nm  f=0.4000  <S**2>=0.000
     310 -> 316       -0.18706
     312 -> 314        0.68356
     310 <- 316       -0.10970

 Excited State   3:      Singlet-A      2.2139 eV  560.03 nm  f=0.1006  <S**2>=0.000
     310 -> 314        0.64246
     312 -> 316        0.28230

 Excited State   4:      Singlet-A      2.2584 eV  549.00 nm  f=0.1173  <S**2>=0.000
     309 -> 313        0.63725
     311 -> 315        0.28974

 Excited State   5:      Singlet-A      3.1988 eV  387.59 nm  f=0.0000  <S**2>=0.000
     312 -> 313        0.70711

 The electronic state is 1-A.
 Alpha  occ. eigenvalues --  -46.88797 -46.88511 -19.26507 -19.26265 -19.19665
 Alpha  occ. eigenvalues --  -19.19650 -19.19639 -19.19419 -19.18734 -19.18629
 Alpha  occ. eigenvalues --  -14.42533 -14.42182 -14.41788 -14.41603 -14.39506
 Alpha  occ. eigenvalues --  -14.39321 -14.38744 -14.38469 -10.39507 -10.39159
 Alpha  occ. eigenvalues --  -10.35478 -10.35470 -10.35390 -10.34501 -10.32841
 Alpha  occ. eigenvalues --  -10.32061 -10.31637 -10.31495 -10.31270 -10.31077
 Alpha  occ. eigenvalues --  -10.30990 -10.30795 -10.30646 -10.30600 -10.30477
 Alpha  occ. eigenvalues --  -10.29743 -10.29617 -10.29567 -10.29488 -10.29389
 Alpha  occ. eigenvalues --  -10.29263 -10.29009 -10.28983 -10.28687 -10.28381
 Alpha  occ. eigenvalues --  -10.28339 -10.28286 -10.28213 -10.28212 -10.28137
 Alpha  occ. eigenvalues --  -10.28057 -10.28023 -10.27955 -10.27778 -10.27620
 Alpha  occ. eigenvalues --  -10.27568 -10.27313 -10.27185 -10.27152 -10.27128
 Alpha  occ. eigenvalues --  -10.27108 -10.27089 -10.27018 -10.26921 -10.26838
 Alpha  occ. eigenvalues --  -10.26699 -10.26694 -10.26611 -10.26495 -10.26441
 Alpha  occ. eigenvalues --  -10.26360 -10.26347 -10.26311 -10.26257 -10.25999
 Alpha  occ. eigenvalues --  -10.25953 -10.25911 -10.25844 -10.25801 -10.25755
 Alpha  occ. eigenvalues --  -10.25437 -10.25392 -10.25215 -10.25167 -10.25082
 Alpha  occ. eigenvalues --  -10.24836  -3.17254  -3.17109  -1.92162  -1.91986
 Alpha  occ. eigenvalues --   -1.91745  -1.91544  -1.91514  -1.91435  -1.18341
 Alpha  occ. eigenvalues --   -1.16643  -1.11982  -1.11372  -1.09618  -1.08677
 Alpha  occ. eigenvalues --   -1.08666  -1.07396  -1.05023  -1.04118  -1.03782
 Alpha  occ. eigenvalues --   -1.03180  -1.02836  -1.02608  -1.01868  -1.01746
 Alpha  occ. eigenvalues --   -0.93360  -0.92212  -0.89667  -0.89347  -0.88726
 Alpha  occ. eigenvalues --   -0.88710  -0.88623  -0.88030  -0.87333  -0.87104
 Alpha  occ. eigenvalues --   -0.86644  -0.86506  -0.86243  -0.85540  -0.84817
 Alpha  occ. eigenvalues --   -0.84449  -0.84238  -0.83735  -0.83296  -0.82625
 Alpha  occ. eigenvalues --   -0.81911  -0.81418  -0.81135  -0.80792  -0.80313
 Alpha  occ. eigenvalues --   -0.80030  -0.77916  -0.77729  -0.77378  -0.77348
 Alpha  occ. eigenvalues --   -0.77013  -0.76684  -0.76315  -0.76257  -0.75130
 Alpha  occ. eigenvalues --   -0.75122  -0.72753  -0.72683  -0.71723  -0.71716
 Alpha  occ. eigenvalues --   -0.69534  -0.69258  -0.68900  -0.68618  -0.68049
 Alpha  occ. eigenvalues --   -0.67755  -0.67243  -0.66107  -0.65698  -0.65603
 Alpha  occ. eigenvalues --   -0.65274  -0.64998  -0.64974  -0.64655  -0.64560
 Alpha  occ. eigenvalues --   -0.64346  -0.62815  -0.62239  -0.60146  -0.59858
 Alpha  occ. eigenvalues --   -0.59664  -0.59633  -0.59431  -0.59212  -0.58519
 Alpha  occ. eigenvalues --   -0.58468  -0.58213  -0.58108  -0.57316  -0.57146
 Alpha  occ. eigenvalues --   -0.56873  -0.56411  -0.56045  -0.56012  -0.54975
 Alpha  occ. eigenvalues --   -0.54967  -0.54799  -0.54691  -0.54683  -0.54279
 Alpha  occ. eigenvalues --   -0.53815  -0.53599  -0.53264  -0.53167  -0.52944
 Alpha  occ. eigenvalues --   -0.52875  -0.52527  -0.52477  -0.52405  -0.52031
 Alpha  occ. eigenvalues --   -0.51706  -0.51682  -0.51477  -0.51349  -0.51243
 Alpha  occ. eigenvalues --   -0.51236  -0.51050  -0.50578  -0.50349  -0.50157
 Alpha  occ. eigenvalues --   -0.50138  -0.49965  -0.49864  -0.49687  -0.49409
 Alpha  occ. eigenvalues --   -0.49205  -0.49175  -0.48922  -0.48851  -0.48675
 Alpha  occ. eigenvalues --   -0.48428  -0.48376  -0.48258  -0.48121  -0.48061
 Alpha  occ. eigenvalues --   -0.47969  -0.47519  -0.47483  -0.47308  -0.46958
 Alpha  occ. eigenvalues --   -0.46901  -0.46418  -0.46412  -0.46295  -0.46087
 Alpha  occ. eigenvalues --   -0.46022  -0.45907  -0.45871  -0.45662  -0.45613
 Alpha  occ. eigenvalues --   -0.45597  -0.45361  -0.45305  -0.45151  -0.45010
 Alpha  occ. eigenvalues --   -0.44923  -0.44829  -0.44733  -0.44457  -0.44316
 Alpha  occ. eigenvalues --   -0.44124  -0.43758  -0.43713  -0.43465  -0.43336
 Alpha  occ. eigenvalues --   -0.43286  -0.43262  -0.43083  -0.43068  -0.42951
 Alpha  occ. eigenvalues --   -0.42796  -0.42718  -0.42559  -0.42306  -0.42170
 Alpha  occ. eigenvalues --   -0.41934  -0.41759  -0.41659  -0.41655  -0.41638
 Alpha  occ. eigenvalues --   -0.41208  -0.41007  -0.40729  -0.40585  -0.40283
 Alpha  occ. eigenvalues --   -0.40213  -0.40112  -0.39623  -0.39297  -0.39157
 Alpha  occ. eigenvalues --   -0.38397  -0.38386  -0.38224  -0.37605  -0.37215
 Alpha  occ. eigenvalues --   -0.37160  -0.37110  -0.36722  -0.36702  -0.36398
 Alpha  occ. eigenvalues --   -0.36221  -0.35999  -0.34403  -0.34338  -0.34165
 Alpha  occ. eigenvalues --   -0.34065  -0.33156  -0.32932  -0.31790  -0.31411
 Alpha  occ. eigenvalues --   -0.30893  -0.30782  -0.30756  -0.30553  -0.30384
 Alpha  occ. eigenvalues --   -0.29925  -0.28955  -0.28929  -0.24271  -0.23794
 Alpha  occ. eigenvalues --   -0.21252  -0.21075
 Alpha virt. eigenvalues --   -0.08753  -0.08488  -0.01698  -0.01520   0.00192
 Alpha virt. eigenvalues --    0.00569   0.02184   0.02737   0.02819   0.02875
 Alpha virt. eigenvalues --    0.04556   0.04750   0.05065   0.05603   0.05639

 Mulliken charges:
               1
     1  Mg  12.000060
     2  C    6.000417
     3  C    5.999413
     4  C    5.999633
     5  C    6.000698
     6  N    6.999901
     7  C    5.999233
     8  C    6.000133
     9  C    5.999738
    10  C    6.001028
    11  C    5.999981
    12  C    6.000046
    13  C    6.000035
    14  H    0.999867
    15  N    6.999663
    16  C    6.001235
    17  C    6.000309
    18  C    6.000469
    19  C    6.000787
    20  C    5.999873
    21  C    6.000363
    22  O    8.000648
    23  C    5.999823
    24  N    7.000164
    25  C    6.000822
    26  C    5.999756
    27  C    6.000287
    28  C    5.999006
    29  C    5.999833
    30  C    6.000043
    31  C    6.000198
    32  N    7.000171
    33  C    5.998846
    34  C    5.999342
    35  C    5.999881
    36  C    5.999151
    37  C    6.000102
    38  C    5.999598
    39  O    7.999279
    40  C    6.000015
    41  C    5.999870
    42  O    7.999846
    43  O    7.999979
    44  C    6.000143
    45  H    1.000249
    46  H    1.000180
    47  H    0.999854
    48  H    0.999956
    49  H    1.000064
    50  H    1.000334
    51  H    0.999896
    52  H    1.000057
    53  H    0.999648
    54  H    1.000173
    55  H    0.999883
    56  H    1.000109
    57  H    1.000455
    58  H    1.000477
    59  H    1.000478
    60  H    1.000152
    61  H    1.000217
    62  H    1.000401
    63  H    1.000032
    64  H    0.999955
    65  H    1.000313
    66  H    1.000114
    67  H    0.999920
    68  H    0.999733
    69  H    0.999988
    70  H    0.999735
    71  H    0.999868
    72  H    1.000174
    73  H    0.999492
    74  H    0.999543
    75  H    0.999521
    76  H    0.999731
    77  H    0.999912
    78  H    0.999820
    79  H    0.999883
    80  Mg  11.999887
    81  C    5.974991
    82  C    6.008923
    83  C    6.025495
    84  C    5.986810
    85  N    6.984209
    86  C    6.032102
    87  C    5.986510
    88  C    6.015685
    89  C    5.967110
    90  C    6.003490
    91  C    5.997388
    92  C    5.997873
    93  H    1.007160
    94  N    7.006726
    95  C    5.959795
    96  C    5.976874
    97  C    5.989747
    98  C    5.958903
    99  C    6.003421
   100  C    5.992415
   101  O    7.982816
   102  C    5.996789
   103  N    7.004108
   104  C    5.968890
   105  C    6.004243
   106  C    5.992428
   107  C    6.033845
   108  C    6.000443
   109  C    5.991597
   110  C    5.999853
   111  N    6.999607
   112  C    6.039931
   113  C    6.026938
   114  C    6.007705
   115  C    6.034265
   116  C    5.997082
   117  C    6.016699
   118  O    8.031423
   119  C    6.002913
   120  C    6.002295
   121  O    8.005173
   122  O    8.001163
   123  C    5.997755
   124  H    0.985931
   125  H    0.994330
   126  H    1.009020
   127  H    1.001584
   128  H    0.997025
   129  H    1.005785
   130  H    0.987606
   131  H    0.989154
   132  H    1.009764
   133  H    0.997846
   134  H    0.994934
   135  H    0.998953
   136  H    0.983341
   137  H    0.981362
   138  H    0.980063
   139  H    0.987768
   140  H    0.992647
   141  H    0.991738
   142  H    0.999576
   143  H    1.003618
   144  H    0.990723
   145  H    1.004317
   146  H    1.002288
   147  H    1.002401
   148  H    1.013356
   149  H    0.999922
   150  H    0.994198
   151  H    1.005948
   152  H    1.019115
   153  H    1.015847
   154  H    1.022646
   155  H    1.011052
   156  H    1.002080
   157  H    1.003175
   158  H    1.007416
 Sum of Mulliken charges = 624.00000

 Dipole moment (field-independent basis, Debye):
    X=             -3.6055    Y=             -9.0329    Z=              4.8029  Tot=             10.8471
 Quadrupole moment (field-independent basis, Debye-Ang):
   XX=           -186.4414   YY=             -3.7943   ZZ=             -1.5061
   XY=           -278.4084   XZ=            152.8629   YZ=              2.7215

 Normal termination of Gaussian 16 at Thu Sep 23 14:32:46 2021.
