 Gaussian 16, Revision A.03,
 Gaussian 16:  ES64L-G16RevA.03 25-Dec-2016

 ----------------------------------------------------------
 #p cam-b3lyp/Def2SVP td=(nstates=5) density=(transition=1)
 ----------------------------------------------------------

 --------------------------------
 TDDFT excited states in gaussian
 --------------------------------
 Symbolic Z-matrix:
 Charge =  0 Multiplicity = 1

                         Standard orientation:
 ---------------------------------------------------------------------
 Center     Atomic      Atomic             Coordinates (Angstroms)
 Number     Number       Type             X           Y           Z
 ---------------------------------------------------------------------
      1         12           0      -21.958047    0.271264   -0.277239
      2          6           0      -18.540260    0.584341    0.147341
      3          6           0      -21.337581   -1.986013   -2.944174
      4          6           0      -25.284744   -0.542374   -0.392307
      5          6           0      -22.542647    2.080929    2.605878
      6          7           0      -20.129555   -0.467550   -1.329425
      7          6           0      -18.834674   -0.272048   -0.897189
      8          6           0      -17.771559   -1.164275   -1.641070
      9          6           0      -18.634434   -1.676173   -2.889096
     10          6           0      -20.163058   -1.344010   -2.435599
     11          6           0      -18.314919   -1.118120   -4.328154
     12          6           0      -17.212805   -2.287551   -0.840474
     13          6           0      -15.728373   -2.362638   -0.538799
     14          1           0      -15.150041   -3.773551   -0.344858
     15          7           0      -23.167099   -1.019813   -1.574316
     16          6           0      -22.669122   -1.802450   -2.633033
     17          6           0      -23.755070   -2.427161   -3.319105
     18          6           0      -24.942529   -2.137005   -2.473250
     19          6           0      -24.512638   -1.198115   -1.391189
     20          6           0      -23.585701   -3.408081   -4.483938
     21          6           0      -26.320084   -2.742534   -2.794430
     22          8           0      -26.598425   -3.514003   -3.707933
     23          6           0      -27.360028   -2.653617   -1.734282
     24          7           0      -23.729129    0.574504    1.086998
     25          6           0      -24.971801    0.284006    0.678321
     26          6           0      -25.887102    0.504489    1.881799
     27          6           0      -25.065600    1.449826    2.877231
     28          6           0      -23.651272    1.412178    2.143639
     29          6           0      -27.183429    1.263537    1.426001
     30          6           0      -24.949884    1.068790    4.410189
     31          6           0      -25.587059    1.947973    5.475862
     32          7           0      -20.777948    1.251994    1.102340
     33          6           0      -21.151527    1.992895    2.227942
     34          6           0      -19.985288    2.447784    2.921256
     35          6           0      -18.897025    1.923723    2.157312
     36          6           0      -19.487324    1.239300    1.024275
     37          6           0      -19.903068    3.259979    4.175173
     38          6           0      -17.502387    1.857488    2.003033
     39          8           0      -16.647351    2.350403    2.711234
     40          6           0      -17.203819    0.932066    0.760472
     41          6           0      -16.167476    1.573626   -0.063576
     42          8           0      -15.000316    1.199788   -0.088265
     43          8           0      -16.705543    2.646441   -0.758594
     44          6           0      -15.704182    3.367216   -1.576382
     45          1           0      -21.273147   -2.658000   -3.802004
     46          1           0      -26.337116   -0.785767   -0.555202
     47          1           0      -22.746214    2.613691    3.536969
     48          1           0      -16.956861   -0.534555   -1.996897
     49          1           0      -18.572761   -2.764975   -2.879319
     50          1           0      -17.353202   -0.608929   -4.266296
     51          1           0      -19.070906   -0.444997   -4.732711
     52          1           0      -18.289488   -1.974794   -5.000591
     53          1           0      -17.407323   -3.196423   -1.411865
     54          1           0      -17.684460   -2.314495    0.141242
     55          1           0      -15.561320   -1.871715    0.419501
     56          1           0      -15.105887   -1.933308   -1.323509
     57          1           0      -22.598689   -3.723749   -4.821228
     58          1           0      -24.170755   -2.927829   -5.267878
     59          1           0      -24.249610   -4.228340   -4.212864
     60          1           0      -28.028072   -1.793905   -1.704713
     61          1           0      -26.952980   -2.841462   -0.740625
     62          1           0      -28.055366   -3.470506   -1.930964
     63          1           0      -26.167374   -0.425490    2.376982
     64          1           0      -25.390666    2.483719    2.766440
     65          1           0      -28.029932    0.704301    1.824458
     66          1           0      -27.297469    1.394683    0.349205
     67          1           0      -27.236162    2.286623    1.799020
     68          1           0      -23.875486    1.006126    4.581527
     69          1           0      -25.460153    0.108835    4.500406
     70          1           0      -25.024264    1.739495    6.386101
     71          1           0      -26.612672    1.616329    5.639306
     72          1           0      -25.579450    3.031831    5.365499
     73          1           0      -18.839385    3.397895    4.370987
     74          1           0      -20.435234    2.709786    4.950588
     75          1           0      -20.339326    4.257074    4.112662
     76          1           0      -16.758389    0.042697    1.207524
     77          1           0      -15.246769    4.164815   -0.991063
     78          1           0      -16.228997    3.682844   -2.478047
     79          1           0      -14.923008    2.700816   -1.941036
     80         12           0       21.097405   -0.853839   -0.008743
     81          6           0       22.048599    2.266922   -1.219234
     82          6           0       18.055039    0.360467    0.779225
     83          6           0       20.434548   -3.782217    1.543900
     84          6           0       24.367883   -1.876908   -0.392272
     85          7           0       20.178027    1.153281   -0.202567
     86          6           0       20.688659    2.207139   -0.916844
     87          6           0       19.691159    3.298406   -1.010870
     88          6           0       18.412541    2.778031   -0.344003
     89          6           0       18.843845    1.319371    0.116682
     90          6           0       17.761666    3.609567    0.750446
     91          6           0       19.485510    3.787642   -2.555039
     92          6           0       19.840754    5.253426   -2.897878
     93          1           0       18.982409    6.056865   -3.843727
     94          7           0       19.439438   -1.650778    0.909010
     95          6           0       18.252016   -0.980716    1.162561
     96          6           0       17.370200   -1.830133    1.877217
     97          6           0       18.043212   -3.057707    2.122407
     98          6           0       19.357727   -2.874119    1.498730
     99          6           0       15.891883   -1.335312    2.126562
    100          6           0       17.483645   -4.222997    2.936566
    101          8           0       18.098175   -5.263095    3.217570
    102          6           0       16.086707   -4.192821    3.378358
    103          7           0       22.265108   -2.532538    0.751649
    104          6           0       21.765506   -3.648099    1.241923
    105          6           0       22.889234   -4.641177    1.614960
    106          6           0       23.947391   -4.170039    0.541107
    107          6           0       23.492158   -2.745308    0.241516
    108          6           0       23.522354   -4.634687    3.055581
    109          6           0       24.068793   -5.048174   -0.795144
    110          6           0       22.870901   -5.197768   -1.640571
    111          7           0       22.972428   -0.015392   -0.638668
    112          6           0       24.258256   -0.578314   -0.757659
    113          6           0       25.160649    0.406460   -1.263309
    114          6           0       24.389606    1.543479   -1.400830
    115          6           0       23.029702    1.200079   -1.105291
    116          6           0       26.606096    0.303998   -1.316915
    117          6           0       24.387356    2.822161   -1.937845
    118          8           0       25.290748    3.512686   -2.420646
    119          6           0       22.915433    3.418132   -1.772837
    120          6           0       23.033602    4.482967   -0.733020
    121          8           0       23.400557    4.447309    0.422754
    122          8           0       22.661978    5.607152   -1.347974
    123          6           0       22.659658    6.847696   -0.505395
    124          1           0       17.053787    0.796233    0.776794
    125          1           0       20.126592   -4.761801    1.913533
    126          1           0       25.383571   -2.236136   -0.569380
    127          1           0       20.120494    4.115905   -0.433005
    128          1           0       17.653291    2.623982   -1.110437
    129          1           0       18.242901    3.101497    1.585306
    130          1           0       16.671569    3.619540    0.753016
    131          1           0       17.999325    4.669377    0.838091
    132          1           0       18.455994    3.586353   -2.849668
    133          1           0       20.136681    3.277980   -3.265640
    134          1           0       20.798015    5.214145   -3.418500
    135          1           0       20.047799    5.843662   -2.006200
    136          1           0       15.672255   -1.431113    3.189731
    137          1           0       15.395069   -2.140946    1.585841
    138          1           0       15.649562   -0.294845    1.909982
    139          1           0       15.887363   -3.311688    3.986672
    140          1           0       16.007010   -4.966188    4.141963
    141          1           0       15.346783   -4.365051    2.596303
    142          1           0       22.603620   -5.628573    1.251956
    143          1           0       24.896734   -4.246966    1.070601
    144          1           0       23.681055   -3.652203    3.498522
    145          1           0       24.456239   -5.175685    2.898817
    146          1           0       22.892824   -5.184392    3.755808
    147          1           0       24.368314   -6.079566   -0.607475
    148          1           0       24.687584   -4.547811   -1.539961
    149          1           0       22.860283   -4.273307   -2.216241
    150          1           0       21.891452   -5.281185   -1.168609
    151          1           0       22.853766   -5.996847   -2.380977
    152          1           0       26.916909    0.559255   -0.303129
    153          1           0       27.098547    0.976159   -2.019027
    154          1           0       26.959614   -0.667847   -1.663099
    155          1           0       22.473967    3.748095   -2.713287
    156          1           0       21.603191    7.045805   -0.323092
    157          1           0       23.168455    7.652439   -1.035586
    158          1           0       23.113230    6.783008    0.484039
 ---------------------------------------------------------------------

 SCF Done:  E(RCAM-B3LYP) =  -4069.77233218     A.U. after   19 cycles

 Excitation energies and oscillator strengths:

 Excited State   1:      Singlet-A      1.7047 eV  727.32 nm  f=0.3870  <S**2>=0.000
     310 -> 316        0.17498
     312 -> 314        0.68516
     310 <- 316        0.10601
 This state for optimization and/or second-order correction.
 Total Energy, E(TD-HF/TD-DFT) =  -4069.70968691
 Copying the excited state density for this state as the 1-particle RhoCI density.

 Excited State   2:      Singlet-A      1.7132 eV  723.69 nm  f=0.3695  <S**2>=0.000
     309 -> 315       -0.17401
     311 -> 313        0.68548
     309 <- 315       -0.10478

 Excited State   3:      Singlet-A      2.1719 eV  570.86 nm  f=0.1597  <S**2>=0.000
     309 -> 313        0.65196
     311 -> 315        0.25356

 Excited State   4:      Singlet-A      2.1770 eV  569.53 nm  f=0.1386  <S**2>=0.000
     310 -> 314        0.65148
     312 -> 316       -0.26309

 Excited State   5:      Singlet-A      2.9561 eV  419.41 nm  f=0.0000  <S**2>=0.000
     312 -> 313        0.70710

 The electronic state is 1-A.
 Alpha  occ. eigenvalues --  -46.90536 -46.89337 -19.25183 -19.25041 -19.19887
 Alpha  occ. eigenvalues --  -19.19161 -19.19069 -19.18661 -19.18357 -19.18206
 Alpha  occ. eigenvalues --  -14.43541 -14.42045 -14.41995 -14.41824 -14.40102
 Alpha  occ. eigenvalues --  -14.39926 -14.39697 -14.38983 -10.39185 -10.38609
 Alpha  occ. eigenvalues --  -10.35325 -10.35066 -10.34245 -10.34152 -10.33162
 Alpha  occ. eigenvalues --  -10.32126 -10.31736 -10.31725 -10.31697 -10.31574
 Alpha  occ. eigenvalues --  -10.31420 -10.31201 -10.30877 -10.30621 -10.30472
 Alpha  occ. eigenvalues --  -10.30279 -10.30179 -10.30101 -10.29885 -10.29786
 Alpha  occ. eigenvalues --  -10.29479 -10.29146 -10.29101 -10.28981 -10.28765
 Alpha  occ. eigenvalues --  -10.28723 -10.28665 -10.28569 -10.28545 -10.28534
 Alpha  occ. eigenvalues --  -10.28490 -10.28344 -10.28322 -10.28316 -10.28278
 Alpha  occ. eigenvalues --  -10.28250 -10.28150 -10.27952 -10.27881 -10.27861
 Alpha  occ. eigenvalues --  -10.27795 -10.27514 -10.27514 -10.27500 -10.27475
 Alpha  occ. eigenvalues --  -10.27470 -10.27386 -10.27152 -10.27078 -10.27041
 Alpha  occ. eigenvalues --  -10.26882 -10.26495 -10.26460 -10.26376 -10.26304
 Alpha  occ. eigenvalues --  -10.26256 -10.26225 -10.26104 -10.26034 -10.25946
 Alpha  occ. eigenvalues --  -10.25801 -10.25572 -10.25463 -10.24963 -10.24730
 Alpha  occ. eigenvalues --  -10.24653  -3.18746  -3.17745  -1.93675  -1.93178
 Alpha  occ. eigenvalues --   -1.93048  -1.92648  -1.92180  -1.92062  -1.17003
 Alpha  occ. eigenvalues --   -1.15596  -1.10108  -1.09825  -1.09118  -1.08558
 Alpha  occ. eigenvalues --   -1.07540  -1.07355  -1.05419  -1.04872  -1.04254
 Alpha  occ. eigenvalues --   -1.04109  -1.03380  -1.02625  -1.02624  -1.01791
 Alpha  occ. eigenvalues --   -0.92642  -0.92209  -0.89556  -0.89436  -0.89217
 Alpha  occ. eigenvalues --   -0.88744  -0.88367  -0.88244  -0.87961  -0.87747
 Alpha  occ. eigenvalues --   -0.87595  -0.87227  -0.86858  -0.85870  -0.84633
 Alpha  occ. eigenvalues --   -0.84570  -0.84286  -0.83895  -0.83069  -0.82951
 Alpha  occ. eigenvalues --   -0.82280  -0.82002  -0.81559  -0.80943  -0.80807
 Alpha  occ. eigenvalues --   -0.80737  -0.78748  -0.77888  -0.77660  -0.77378
 Alpha  occ. eigenvalues --   -0.77241  -0.77042  -0.76277  -0.75944  -0.75578
 Alpha  occ. eigenvalues --   -0.75364  -0.73557  -0.73477  -0.72337  -0.71674
 Alpha  occ. eigenvalues --   -0.69445  -0.69385  -0.69089  -0.69048  -0.68047
 Alpha  occ. eigenvalues --   -0.67771  -0.67207  -0.67188  -0.65754  -0.65684
 Alpha  occ. eigenvalues --   -0.65528  -0.65387  -0.65303  -0.64864  -0.64814
 Alpha  occ. eigenvalues --   -0.63967  -0.63065  -0.62057  -0.60432  -0.60304
 Alpha  occ. eigenvalues --   -0.59921  -0.59804  -0.59513  -0.59306  -0.59121
 Alpha  occ. eigenvalues --   -0.58614  -0.58258  -0.57921  -0.57846  -0.57043
 Alpha  occ. eigenvalues --   -0.56605  -0.56433  -0.56029  -0.55775  -0.55503
 Alpha  occ. eigenvalues --   -0.55476  -0.55052  -0.54865  -0.54828  -0.54702
 Alpha  occ. eigenvalues --   -0.53899  -0.53576  -0.53387  -0.53291  -0.53248
 Alpha  occ. eigenvalues --   -0.52986  -0.52880  -0.52834  -0.52689  -0.52540
 Alpha  occ. eigenvalues --   -0.52185  -0.52149  -0.51901  -0.51896  -0.51381
 Alpha  occ. eigenvalues --   -0.51164  -0.51086  -0.50987  -0.50429  -0.50362
 Alpha  occ. eigenvalues --   -0.50264  -0.49797  -0.49764  -0.49724  -0.49549
 Alpha  occ. eigenvalues --   -0.49450  -0.49196  -0.49194  -0.48988  -0.48924
 Alpha  occ. eigenvalues --   -0.48697  -0.48501  -0.48363  -0.48350  -0.48069
 Alpha  occ. eigenvalues --   -0.48004  -0.47847  -0.47366  -0.47224  -0.47110
 Alpha  occ. eigenvalues --   -0.47063  -0.46834  -0.46758  -0.46666  -0.46637
 Alpha  occ. eigenvalues --   -0.46237  -0.46180  -0.46044  -0.45990  -0.45886
 Alpha  occ. eigenvalues --   -0.45811  -0.45739  -0.45362  -0.45246  -0.45242
 Alpha  occ. eigenvalues --   -0.44725  -0.44632  -0.44574  -0.44473  -0.44170
 Alpha  occ. eigenvalues --   -0.44110  -0.44055  -0.43778  -0.43720  -0.43686
 Alpha  occ. eigenvalues --   -0.43360  -0.43188  -0.43030  -0.42940  -0.42809
 Alpha  occ. eigenvalues --   -0.42503  -0.42477  -0.42284  -0.42214  -0.42107
 Alpha  occ. eigenvalues --   -0.41824  -0.41644  -0.41600  -0.41552  -0.41324
 Alpha  occ. eigenvalues --   -0.41066  -0.40965  -0.40711  -0.40537  -0.40161
 Alpha  occ. eigenvalues --   -0.40017  -0.39762  -0.39522  -0.39519  -0.38935
 Alpha  occ. eigenvalues --   -0.38397  -0.38061  -0.38022  -0.37867  -0.37690
 Alpha  occ. eigenvalues --   -0.37461  -0.37268  -0.37013  -0.36840  -0.36367
 Alpha  occ. eigenvalues --   -0.36118  -0.35948  -0.34545  -0.34473  -0.34368
 Alpha  occ. eigenvalues --   -0.34302  -0.33476  -0.33384  -0.31813  -0.31475
 Alpha  occ. eigenvalues --   -0.31270  -0.31031  -0.30580  -0.30526  -0.30453
 Alpha  occ. eigenvalues --   -0.30241  -0.29982  -0.29630  -0.24665  -0.24013
 Alpha  occ. eigenvalues --   -0.22204  -0.21437
 Alpha virt. eigenvalues --   -0.09776  -0.08975  -0.02387  -0.01614  -0.00028
 Alpha virt. eigenvalues --    0.00286   0.02018   0.02165   0.02289   0.02468
 Alpha virt. eigenvalues --    0.04459   0.05214   0.05346   0.05787   0.06057

 Mulliken charges:
               1
     1  Mg  11.999911
     2  C    5.998790
     3  C    6.000452
     4  C    6.001819
     5  C    5.999770
     6  N    6.999357
     7  C    6.001609
     8  C    5.999488
     9  C    6.000279
    10  C    5.998337
    11  C    6.000252
    12  C    5.999996
    13  C    5.999852
    14  H    1.000354
    15  N    7.000780
    16  C    5.997622
    17  C    5.999130
    18  C    5.999358
    19  C    5.997571
    20  C    6.000146
    21  C    5.999427
    22  O    7.998946
    23  C    6.000377
    24  N    7.000351
    25  C    5.998049
    26  C    6.000524
    27  C    5.999756
    28  C    6.001272
    29  C    6.000156
    30  C    5.999809
    31  C    5.999950
    32  N    6.999691
    33  C    6.002181
    34  C    6.001195
    35  C    6.000258
    36  C    6.001769
    37  C    5.999987
    38  C    6.000840
    39  O    8.001777
    40  C    6.000211
    41  C    6.000259
    42  O    8.000498
    43  O    7.999820
    44  C    5.999810
    45  H    0.999353
    46  H    0.999968
    47  H    1.000654
    48  H    0.999917
    49  H    0.999879
    50  H    0.999282
    51  H    0.999921
    52  H    0.999869
    53  H    1.000471
    54  H    0.999727
    55  H    0.999677
    56  H    1.000124
    57  H    0.999101
    58  H    0.999061
    59  H    0.999194
    60  H    0.999245
    61  H    0.999491
    62  H    0.999374
    63  H    0.999878
    64  H    1.000006
    65  H    0.999930
    66  H    1.000235
    67  H    0.999582
    68  H    0.999664
    69  H    1.000554
    70  H    1.000042
    71  H    1.000339
    72  H    0.999997
    73  H    1.000691
    74  H    1.000922
    75  H    1.000996
    76  H    1.000374
    77  H    1.000040
    78  H    1.000289
    79  H    1.000369
    80  Mg  11.996334
    81  C    5.965816
    82  C    6.007515
    83  C    6.034457
    84  C    6.008421
    85  N    6.980263
    86  C    6.037929
    87  C    5.987744
    88  C    6.005802
    89  C    5.974144
    90  C    6.002287
    91  C    5.997564
    92  C    5.999840
    93  H    1.003805
    94  N    7.009830
    95  C    5.958043
    96  C    5.981747
    97  C    5.984621
    98  C    5.959202
    99  C    6.000623
   100  C    5.987727
   101  O    7.970721
   102  C    6.008809
   103  N    7.022578
   104  C    5.957810
   105  C    6.010508
   106  C    5.990378
   107  C    6.021832
   108  C    5.999007
   109  C    5.989680
   110  C    6.001010
   111  N    6.993336
   112  C    6.035254
   113  C    6.029015
   114  C    6.008112
   115  C    6.033310
   116  C    5.995361
   117  C    6.009155
   118  O    8.035535
   119  C    6.002186
   120  C    6.003962
   121  O    8.002455
   122  O    8.001138
   123  C    5.997628
   124  H    0.985274
   125  H    0.999715
   126  H    1.015850
   127  H    0.999528
   128  H    0.996631
   129  H    1.001045
   130  H    0.998328
   131  H    0.985828
   132  H    1.007783
   133  H    0.994942
   134  H    0.994132
   135  H    1.000297
   136  H    0.981372
   137  H    0.983910
   138  H    0.983698
   139  H    0.994831
   140  H    0.985474
   141  H    0.990923
   142  H    1.001682
   143  H    1.005669
   144  H    0.995669
   145  H    0.992509
   146  H    1.006453
   147  H    1.011364
   148  H    0.996522
   149  H    0.992661
   150  H    1.017427
   151  H    1.004841
   152  H    1.021150
   153  H    1.017130
   154  H    1.017152
   155  H    1.007038
   156  H    1.006927
   157  H    1.001673
   158  H    1.002075
 Sum of Mulliken charges = 624.00000

 Dipole moment (field-independent basis, Debye):
    X=              9.8598    Y=              3.0052    Z=             -3.6701  Tot=             10.9415
 Quadrupole moment (field-independent basis, Debye-Ang):
   XX=            394.3587   YY=             -1.4542   ZZ=             -3.0333
   XY=             44.3664   XZ=            -91.3150   YZ=              4.4122

 Normal termination of Gaussian 16 at Thu Sep 23 02:41:13 2021.
