 Gaussian 16, Revision A.03,
 Gaussian 16:  ES64L-G16RevA.03 25-Dec-2016

 ----------------------------------------------------------
 #p cam-b3lyp/Def2SVP td=(nstates=5) density=(transition=1)
 ----------------------------------------------------------

 --------------------------------
 TDDFT excited states in gaussian
 --------------------------------
 Symbolic Z-matrix:
 Charge =  0 Multiplicity = 1

                         Standard orientation:
 ---------------------------------------------------------------------
 Center     Atomic      Atomic             Coordinates (Angstroms)
 Number     Number       Type             X           Y           Z
 ---------------------------------------------------------------------
      1         12           0       24.395713    0.396239   -0.292872
      2          6           0       23.220143   -1.752098    2.240028
      3          6           0       22.998057    3.020916    1.346739
      4          6           0       25.446390    2.395559   -2.810558
      5          6           0       25.393442   -2.392692   -2.105312
      6          7           0       23.176714    0.600651    1.495026
      7          6           0       22.915684   -0.395180    2.440198
      8          6           0       22.293695    0.223853    3.655724
      9          6           0       21.816293    1.595989    3.123651
     10          6           0       22.737198    1.758481    1.886914
     11          6           0       20.322834    1.719901    2.685453
     12          6           0       23.225861    0.343901    4.919689
     13          6           0       22.600220   -0.119681    6.196588
     14          1           0       22.796471    0.785448    7.427122
     15          7           0       24.326737    2.390908   -0.598309
     16          6           0       23.774088    3.362910    0.252184
     17          6           0       23.990838    4.649101   -0.279496
     18          6           0       24.738494    4.512322   -1.542282
     19          6           0       24.876795    3.091351   -1.688096
     20          6           0       23.427413    5.929651    0.263705
     21          6           0       25.226940    5.570574   -2.624138
     22          8           0       25.856341    5.220573   -3.594217
     23          6           0       25.005623    7.062109   -2.416991
     24          7           0       25.195219    0.033184   -2.240805
     25          6           0       25.523349    1.045920   -3.084130
     26          6           0       26.089254    0.455336   -4.463014
     27          6           0       26.352723   -1.074203   -4.112001
     28          6           0       25.595071   -1.175650   -2.720141
     29          6           0       25.172947    0.613436   -5.707805
     30          6           0       27.871171   -1.459143   -4.003429
     31          6           0       28.194106   -2.614040   -4.855261
     32          7           0       24.290370   -1.655053   -0.040503
     33          6           0       24.841352   -2.671269   -0.819671
     34          6           0       24.632790   -3.942817   -0.182234
     35          6           0       23.982150   -3.631596    0.994279
     36          6           0       23.819500   -2.283942    1.064590
     37          6           0       25.174276   -5.270858   -0.772703
     38          6           0       23.376852   -4.189624    2.189581
     39          8           0       23.195326   -5.356685    2.458451
     40          6           0       22.821278   -2.956168    3.060434
     41          6           0       21.366919   -3.116147    3.242396
     42          8           0       20.535539   -3.201711    2.300809
     43          8           0       21.106949   -3.192908    4.579311
     44          6           0       19.760884   -3.730179    4.911678
     45          1           0       22.487838    3.807725    1.906192
     46          1           0       25.799845    2.964384   -3.672896
     47          1           0       25.647169   -3.260136   -2.717365
     48          1           0       21.368589   -0.257663    3.974923
     49          1           0       21.953818    2.410440    3.835095
     50          1           0       19.636570    1.112039    3.276517
     51          1           0       20.279462    1.446427    1.630892
     52          1           0       19.921975    2.732574    2.650022
     53          1           0       23.518591    1.393137    4.953625
     54          1           0       24.171344   -0.178738    4.771826
     55          1           0       23.068833   -1.096968    6.313471
     56          1           0       21.517241   -0.157545    6.079740
     57          1           0       24.141412    6.587034    0.760333
     58          1           0       22.718620    5.698283    1.057783
     59          1           0       22.890454    6.589135   -0.417571
     60          1           0       25.556270    7.552878   -3.218573
     61          1           0       25.251943    7.367897   -1.399751
     62          1           0       23.936633    7.271883   -2.369935
     63          1           0       26.978979    1.007994   -4.765214
     64          1           0       25.850812   -1.687898   -4.861524
     65          1           0       24.186084    1.043400   -5.533409
     66          1           0       24.977947   -0.330203   -6.217943
     67          1           0       25.707194    1.256816   -6.407413
     68          1           0       28.077899   -1.765791   -2.977407
     69          1           0       28.561986   -0.672401   -4.305903
     70          1           0       28.652795   -2.248568   -5.774407
     71          1           0       27.412753   -3.336362   -5.088903
     72          1           0       28.886441   -3.269099   -4.326307
     73          1           0       25.936664   -5.040942   -1.517399
     74          1           0       24.363755   -5.922752   -1.101776
     75          1           0       25.692638   -5.738993    0.063278
     76          1           0       23.312076   -2.896992    4.032215
     77          1           0       19.672808   -3.890555    5.986084
     78          1           0       19.746563   -4.732485    4.483015
     79          1           0       19.033622   -3.052209    4.464094
     80         12           0      -24.076094    0.585184    0.489481
     81          6           0      -23.678116   -2.771595   -0.702180
     82          6           0      -20.595266    0.990530    0.001014
     83          6           0      -24.501127    3.894344    0.848778
     84          6           0      -27.494092    0.169102    0.249595
     85          7           0      -22.301852   -0.738517   -0.258595
     86          6           0      -22.472872   -2.022685   -0.694305
     87          6           0      -21.209268   -2.495909   -1.395169
     88          6           0      -20.217271   -1.371988   -0.877355
     89          6           0      -21.034737   -0.262725   -0.333941
     90          6           0      -19.142734   -1.795415    0.179681
     91          6           0      -21.469434   -2.645924   -2.928449
     92          6           0      -20.947160   -3.929648   -3.695301
     93          1           0      -19.917608   -3.774635   -4.829040
     94          7           0      -22.794294    2.154113    0.622802
     95          6           0      -21.390311    2.145201    0.411307
     96          6           0      -20.835383    3.468376    0.629066
     97          6           0      -21.996819    4.309877    0.868866
     98          6           0      -23.152948    3.436670    0.791312
     99          6           0      -19.403553    3.750124    0.437631
    100          6           0      -21.887519    5.815823    1.164723
    101          8           0      -20.728678    6.318772    1.087278
    102          6           0      -23.062344    6.742496    1.543346
    103          7           0      -25.754629    1.981500    0.289060
    104          6           0      -25.697537    3.247952    0.653978
    105          6           0      -27.071028    3.830344    0.563547
    106          6           0      -27.999285    2.593500    0.430595
    107          6           0      -27.018597    1.481059    0.220577
    108          6           0      -27.581397    4.836828    1.681492
    109          6           0      -29.098928    2.679526   -0.749370
    110          6           0      -30.597935    2.701746   -0.362159
    111          7           0      -25.341745   -0.967164    0.106502
    112          6           0      -26.683579   -1.000456    0.043557
    113          6           0      -27.158088   -2.296957   -0.275520
    114          6           0      -25.997338   -3.030994   -0.530289
    115          6           0      -24.893188   -2.165077   -0.327057
    116          6           0      -28.529879   -2.836546   -0.348218
    117          6           0      -25.586104   -4.332972   -0.956676
    118          8           0      -26.276755   -5.271459   -1.284989
    119          6           0      -23.944884   -4.189831   -1.137811
    120          6           0      -23.261184   -5.153728   -0.267344
    121          8           0      -23.558935   -5.398315    0.908683
    122          8           0      -22.228369   -5.689736   -1.006606
    123          6           0      -21.400911   -6.691004   -0.335728
    124          1           0      -19.527784    1.177472   -0.125367
    125          1           0      -24.704082    4.966896    0.862522
    126          1           0      -28.550655   -0.073445    0.382518
    127          1           0      -20.904473   -3.411429   -0.887542
    128          1           0      -19.847353   -1.043845   -1.849448
    129          1           0      -19.275491   -1.153558    1.051774
    130          1           0      -18.113194   -1.656793   -0.149625
    131          1           0      -19.242211   -2.807280    0.573720
    132          1           0      -20.937650   -1.763033   -3.282446
    133          1           0      -22.502377   -2.518121   -3.251391
    134          1           0      -21.849977   -4.411632   -4.069973
    135          1           0      -20.623692   -4.657468   -2.951780
    136          1           0      -19.149840    3.379428   -0.555780
    137          1           0      -18.811739    3.158539    1.135809
    138          1           0      -19.053095    4.765122    0.626694
    139          1           0      -23.670638    6.894146    0.651519
    140          1           0      -22.594134    7.541238    2.117638
    141          1           0      -23.616895    6.140652    2.264106
    142          1           0      -27.091936    4.433838   -0.343055
    143          1           0      -28.349967    2.469963    1.455301
    144          1           0      -28.296976    5.474495    1.161824
    145          1           0      -26.722040    5.378436    2.076491
    146          1           0      -28.089873    4.231186    2.431861
    147          1           0      -28.869490    1.816248   -1.373821
    148          1           0      -28.828527    3.522801   -1.384744
    149          1           0      -31.190296    1.982284   -0.925902
    150          1           0      -30.983171    3.708413   -0.526527
    151          1           0      -30.777996    2.544977    0.701538
    152          1           0      -28.538990   -3.924890   -0.297997
    153          1           0      -28.781271   -2.454045   -1.337628
    154          1           0      -29.168049   -2.216744    0.281484
    155          1           0      -23.658566   -4.219316   -2.188512
    156          1           0      -22.005394   -7.480248    0.111832
    157          1           0      -20.779514   -6.208883    0.420380
    158          1           0      -20.754408   -7.161036   -1.076851
 ---------------------------------------------------------------------

 SCF Done:  E(RCAM-B3LYP) =  -4069.81408743     A.U. after   18 cycles

 Excitation energies and oscillator strengths:

 Excited State   1:      Singlet-A      1.6989 eV  729.78 nm  f=0.3863  <S**2>=0.000
     309 -> 315        0.18530
     312 -> 314        0.68536
     309 <- 315        0.11148
 This state for optimization and/or second-order correction.
 Total Energy, E(TD-HF/TD-DFT) =  -4069.75165303
 Copying the excited state density for this state as the 1-particle RhoCI density.

 Excited State   2:      Singlet-A      1.7438 eV  711.01 nm  f=0.3979  <S**2>=0.000
     310 -> 316       -0.17837
     311 -> 313        0.68462
     310 <- 316       -0.10695

 Excited State   3:      Singlet-A      2.2018 eV  563.09 nm  f=0.1596  <S**2>=0.000
     310 -> 313        0.65400
     311 -> 316        0.24979

 Excited State   4:      Singlet-A      2.2522 eV  550.50 nm  f=0.1327  <S**2>=0.000
     309 -> 314        0.64094
     312 -> 315       -0.28918

 Excited State   5:      Singlet-A      3.1542 eV  393.08 nm  f=0.0000  <S**2>=0.000
     312 -> 313        0.70710

 The electronic state is 1-A.
 Alpha  occ. eigenvalues --  -46.88915 -46.87185 -19.26283 -19.25667 -19.20568
 Alpha  occ. eigenvalues --  -19.19890 -19.19749 -19.19521 -19.19042 -19.18142
 Alpha  occ. eigenvalues --  -14.42066 -14.41942 -14.41506 -14.41409 -14.39942
 Alpha  occ. eigenvalues --  -14.39835 -14.39292 -14.38559 -10.40105 -10.39436
 Alpha  occ. eigenvalues --  -10.36345 -10.35457 -10.35255 -10.35043 -10.32460
 Alpha  occ. eigenvalues --  -10.32186 -10.31199 -10.31053 -10.30783 -10.30645
 Alpha  occ. eigenvalues --  -10.30633 -10.30624 -10.30623 -10.30441 -10.30408
 Alpha  occ. eigenvalues --  -10.30336 -10.30319 -10.29923 -10.29766 -10.29102
 Alpha  occ. eigenvalues --  -10.29091 -10.28955 -10.28944 -10.28740 -10.28672
 Alpha  occ. eigenvalues --  -10.28571 -10.28141 -10.28110 -10.28066 -10.27905
 Alpha  occ. eigenvalues --  -10.27867 -10.27787 -10.27770 -10.27762 -10.27646
 Alpha  occ. eigenvalues --  -10.27634 -10.27616 -10.27601 -10.27528 -10.27496
 Alpha  occ. eigenvalues --  -10.27479 -10.27462 -10.27414 -10.27241 -10.27222
 Alpha  occ. eigenvalues --  -10.27207 -10.27006 -10.26954 -10.26795 -10.26729
 Alpha  occ. eigenvalues --  -10.26687 -10.26506 -10.26444 -10.26414 -10.26356
 Alpha  occ. eigenvalues --  -10.26243 -10.26126 -10.26090 -10.26083 -10.25797
 Alpha  occ. eigenvalues --  -10.25716 -10.25340 -10.25058 -10.24660 -10.24571
 Alpha  occ. eigenvalues --  -10.24359  -3.17470  -3.15913  -1.92360  -1.91914
 Alpha  occ. eigenvalues --   -1.91787  -1.90817  -1.90357  -1.90237  -1.16553
 Alpha  occ. eigenvalues --   -1.15764  -1.11711  -1.10830  -1.10329  -1.08178
 Alpha  occ. eigenvalues --   -1.07252  -1.06341  -1.05461  -1.04946  -1.04735
 Alpha  occ. eigenvalues --   -1.03751  -1.03347  -1.02558  -1.02349  -1.01431
 Alpha  occ. eigenvalues --   -0.93190  -0.92585  -0.89336  -0.89212  -0.88667
 Alpha  occ. eigenvalues --   -0.88293  -0.88141  -0.88034  -0.87981  -0.87484
 Alpha  occ. eigenvalues --   -0.87033  -0.86419  -0.86016  -0.85831  -0.84645
 Alpha  occ. eigenvalues --   -0.84318  -0.83868  -0.83835  -0.82912  -0.82737
 Alpha  occ. eigenvalues --   -0.82114  -0.82027  -0.81376  -0.81198  -0.80669
 Alpha  occ. eigenvalues --   -0.80495  -0.78239  -0.78232  -0.77656  -0.77328
 Alpha  occ. eigenvalues --   -0.76888  -0.76781  -0.76308  -0.75739  -0.75354
 Alpha  occ. eigenvalues --   -0.74888  -0.73206  -0.72887  -0.72223  -0.70934
 Alpha  occ. eigenvalues --   -0.69822  -0.69397  -0.68614  -0.68492  -0.68121
 Alpha  occ. eigenvalues --   -0.67596  -0.66760  -0.66549  -0.66164  -0.65644
 Alpha  occ. eigenvalues --   -0.65520  -0.65184  -0.65127  -0.64775  -0.64576
 Alpha  occ. eigenvalues --   -0.64047  -0.62969  -0.61951  -0.60326  -0.60154
 Alpha  occ. eigenvalues --   -0.60122  -0.59913  -0.59556  -0.59254  -0.58927
 Alpha  occ. eigenvalues --   -0.58441  -0.58214  -0.57695  -0.57626  -0.57603
 Alpha  occ. eigenvalues --   -0.56249  -0.56164  -0.55993  -0.55687  -0.55658
 Alpha  occ. eigenvalues --   -0.55512  -0.54999  -0.54870  -0.54513  -0.53847
 Alpha  occ. eigenvalues --   -0.53703  -0.53562  -0.53440  -0.53302  -0.52946
 Alpha  occ. eigenvalues --   -0.52644  -0.52631  -0.52588  -0.52106  -0.51891
 Alpha  occ. eigenvalues --   -0.51828  -0.51775  -0.51560  -0.51424  -0.51238
 Alpha  occ. eigenvalues --   -0.51034  -0.50900  -0.50590  -0.50464  -0.50347
 Alpha  occ. eigenvalues --   -0.50113  -0.50039  -0.49981  -0.49808  -0.49576
 Alpha  occ. eigenvalues --   -0.49458  -0.49418  -0.49415  -0.49112  -0.48796
 Alpha  occ. eigenvalues --   -0.48722  -0.48473  -0.47955  -0.47947  -0.47752
 Alpha  occ. eigenvalues --   -0.47681  -0.47664  -0.47601  -0.47459  -0.47262
 Alpha  occ. eigenvalues --   -0.47041  -0.46791  -0.46655  -0.46651  -0.46463
 Alpha  occ. eigenvalues --   -0.46463  -0.46151  -0.46135  -0.45944  -0.45851
 Alpha  occ. eigenvalues --   -0.45778  -0.45631  -0.45410  -0.45384  -0.45088
 Alpha  occ. eigenvalues --   -0.44991  -0.44750  -0.44680  -0.44547  -0.44460
 Alpha  occ. eigenvalues --   -0.44340  -0.43784  -0.43665  -0.43566  -0.43404
 Alpha  occ. eigenvalues --   -0.43360  -0.43284  -0.43094  -0.42955  -0.42924
 Alpha  occ. eigenvalues --   -0.42879  -0.42816  -0.42618  -0.42332  -0.42284
 Alpha  occ. eigenvalues --   -0.41944  -0.41884  -0.41534  -0.41237  -0.41229
 Alpha  occ. eigenvalues --   -0.41113  -0.40953  -0.40862  -0.40486  -0.40342
 Alpha  occ. eigenvalues --   -0.40237  -0.40077  -0.39159  -0.38934  -0.38846
 Alpha  occ. eigenvalues --   -0.38753  -0.38359  -0.38256  -0.37851  -0.37834
 Alpha  occ. eigenvalues --   -0.37731  -0.37646  -0.36763  -0.36455  -0.36336
 Alpha  occ. eigenvalues --   -0.35994  -0.35860  -0.35197  -0.34250  -0.34146
 Alpha  occ. eigenvalues --   -0.34120  -0.33159  -0.33025  -0.31766  -0.31338
 Alpha  occ. eigenvalues --   -0.31276  -0.31133  -0.30863  -0.30342  -0.30118
 Alpha  occ. eigenvalues --   -0.29989  -0.29566  -0.29378  -0.24178  -0.23973
 Alpha  occ. eigenvalues --   -0.21532  -0.21320
 Alpha virt. eigenvalues --   -0.09016  -0.08936  -0.01740  -0.01273   0.00274
 Alpha virt. eigenvalues --    0.00735   0.02291   0.02417   0.02789   0.03445
 Alpha virt. eigenvalues --    0.04241   0.04502   0.05002   0.05402   0.05823

 Mulliken charges:
               1
     1  Mg  12.000004
     2  C    5.999728
     3  C    5.999907
     4  C    6.000258
     5  C    6.000055
     6  N    6.999883
     7  C    6.000259
     8  C    5.999938
     9  C    6.000045
    10  C    5.999907
    11  C    6.000048
    12  C    5.999970
    13  C    6.000000
    14  H    1.000025
    15  N    6.999998
    16  C    5.999850
    17  C    5.999815
    18  C    5.999911
    19  C    5.999746
    20  C    6.000108
    21  C    5.999894
    22  O    7.999852
    23  C    6.000023
    24  N    7.000102
    25  C    5.999768
    26  C    6.000041
    27  C    5.999992
    28  C    6.000078
    29  C    5.999992
    30  C    5.999946
    31  C    5.999981
    32  N    7.000041
    33  C    6.000153
    34  C    6.000268
    35  C    5.999915
    36  C    6.000273
    37  C    5.999968
    38  C    6.000154
    39  O    8.000186
    40  C    6.000022
    41  C    6.000020
    42  O    8.000003
    43  O    8.000019
    44  C    6.000001
    45  H    0.999855
    46  H    0.999972
    47  H    1.000123
    48  H    0.999995
    49  H    0.999965
    50  H    0.999867
    51  H    0.999980
    52  H    0.999951
    53  H    1.000088
    54  H    1.000005
    55  H    0.999998
    56  H    0.999980
    57  H    0.999836
    58  H    0.999851
    59  H    0.999815
    60  H    0.999921
    61  H    0.999969
    62  H    0.999922
    63  H    1.000031
    64  H    1.000029
    65  H    0.999993
    66  H    0.999959
    67  H    1.000021
    68  H    0.999990
    69  H    1.000098
    70  H    1.000067
    71  H    0.999993
    72  H    1.000032
    73  H    1.000129
    74  H    1.000165
    75  H    1.000153
    76  H    1.000064
    77  H    1.000026
    78  H    1.000019
    79  H    0.999989
    80  Mg  11.999960
    81  C    6.021205
    82  C    5.974423
    83  C    5.976770
    84  C    6.027000
    85  N    6.995628
    86  C    5.969047
    87  C    6.007880
    88  C    5.990639
    89  C    6.033237
    90  C    5.997277
    91  C    6.008432
    92  C    6.000455
    93  H    0.989757
    94  N    6.992828
    95  C    6.055610
    96  C    6.019168
    97  C    6.013732
    98  C    6.039129
    99  C    5.993791
   100  C    6.012243
   101  O    8.022726
   102  C    6.001525
   103  N    6.999920
   104  C    6.035013
   105  C    5.988101
   106  C    6.012506
   107  C    5.961655
   108  C    5.998427
   109  C    6.001771
   110  C    6.001449
   111  N    7.004675
   112  C    5.956528
   113  C    5.972934
   114  C    5.993561
   115  C    5.965507
   116  C    6.000671
   117  C    5.984988
   118  O    7.971931
   119  C    5.994760
   120  C    5.995078
   121  O    7.995923
   122  O    7.997500
   123  C    6.002938
   124  H    1.008858
   125  H    1.007239
   126  H    0.993462
   127  H    0.999900
   128  H    1.002546
   129  H    0.994603
   130  H    1.001841
   131  H    1.013652
   132  H    0.986677
   133  H    1.005497
   134  H    1.003672
   135  H    0.999984
   136  H    1.020925
   137  H    1.021557
   138  H    1.015333
   139  H    1.011149
   140  H    1.012298
   141  H    1.007886
   142  H    1.001533
   143  H    0.996972
   144  H    1.005840
   145  H    0.992040
   146  H    1.007630
   147  H    1.006225
   148  H    0.989633
   149  H    1.002161
   150  H    0.993682
   151  H    0.998525
   152  H    0.985547
   153  H    0.979794
   154  H    0.979454
   155  H    0.989852
   156  H    0.998123
   157  H    0.993145
   158  H    0.994468
 Sum of Mulliken charges = 624.00000

 Dipole moment (field-independent basis, Debye):
    X=              6.4347    Y=              8.6743    Z=              1.8089  Tot=             10.9508
 Quadrupole moment (field-independent basis, Debye-Ang):
   XX=           -307.8147   YY=              8.8076   ZZ=             -0.3337
   XY=           -205.7979   XZ=            -41.8327   YZ=              2.1203

 Normal termination of Gaussian 16 at Tue Sep 21 21:31:50 2021.
