 Gaussian 16, Revision A.03,
 Gaussian 16:  ES64L-G16RevA.03 25-Dec-2016

 -----------------------------------
 #p cam-b3lyp/Def2SVP td=(nstates=5)
 -----------------------------------

 --------------------------------
 TDDFT excited states in gaussian
 --------------------------------
 Symbolic Z-matrix:
 Charge =  0 Multiplicity = 1

                         Standard orientation:
 ---------------------------------------------------------------------
 Center     Atomic      Atomic             Coordinates (Angstroms)
 Number     Number       Type             X           Y           Z
 ---------------------------------------------------------------------
      1         12           0      -30.577223    0.169151    0.367599
      2          6           0      -27.690484   -1.591001   -0.242661
      3          6           0      -31.767204   -0.886414   -2.815066
      4          6           0      -33.222708    2.264141    0.572783
      5          6           0      -29.315250    1.426498    3.209630
      6          7           0      -29.800104   -1.098245   -1.337083
      7          6           0      -28.567213   -1.693430   -1.327198
      8          6           0      -28.371625   -2.573983   -2.563447
      9          6           0      -29.636487   -2.141215   -3.439346
     10          6           0      -30.458226   -1.323828   -2.486043
     11          6           0      -29.269775   -1.429052   -4.792877
     12          6           0      -28.360699   -4.137959   -2.241520
     13          6           0      -27.368187   -5.090431   -2.863699
     14          1           0      -27.133772   -5.009942   -4.330373
     15          7           0      -32.321477    0.614413   -0.911190
     16          6           0      -32.698500   -0.032484   -2.035944
     17          6           0      -34.007715    0.352651   -2.444697
     18          6           0      -34.482843    1.260801   -1.446619
     19          6           0      -33.283287    1.457426   -0.579013
     20          6           0      -34.544435   -0.188103   -3.730595
     21          6           0      -35.788657    2.036337   -1.410225
     22          8           0      -35.968193    2.994191   -0.651698
     23          6           0      -36.928257    1.659789   -2.340683
     24          7           0      -31.132177    1.780517    1.644906
     25          6           0      -32.341133    2.398789    1.588468
     26          6           0      -32.555554    3.278751    2.818802
     27          6           0      -31.353618    2.852480    3.744772
     28          6           0      -30.546798    1.958431    2.823970
     29          6           0      -32.759266    4.816981    2.686347
     30          6           0      -31.725122    2.208959    5.145584
     31          6           0      -31.842733    0.706643    5.292420
     32          7           0      -28.848776    0.066606    1.264540
     33          6           0      -28.456015    0.498080    2.506089
     34          6           0      -27.122189    0.144067    2.829833
     35          6           0      -26.785137   -0.726476    1.798126
     36          6           0      -27.873569   -0.756399    0.888725
     37          6           0      -26.222310    0.447006    4.020793
     38          6           0      -25.790679   -1.550660    1.265296
     39          8           0      -24.667379   -1.746648    1.691366
     40          6           0      -26.294968   -2.181525   -0.151191
     41          6           0      -25.372883   -1.739772   -1.190163
     42          8           0      -25.203508   -0.562886   -1.565976
     43          8           0      -24.630753   -2.748289   -1.719300
     44          6           0      -23.456789   -2.412672   -2.532888
     45          1           0      -32.058925   -1.341115   -3.763675
     46          1           0      -34.181776    2.729878    0.807979
     47          1           0      -29.030799    1.508184    4.260061
     48          1           0      -27.389812   -2.357949   -2.986655
     49          1           0      -30.207510   -3.009393   -3.768867
     50          1           0      -29.690171   -2.023904   -5.603027
     51          1           0      -28.183944   -1.335820   -4.766817
     52          1           0      -29.748617   -0.463101   -4.956188
     53          1           0      -29.365794   -4.422291   -2.553528
     54          1           0      -28.442638   -4.316292   -1.169853
     55          1           0      -27.586875   -6.111837   -2.552322
     56          1           0      -26.398825   -4.799541   -2.460564
     57          1           0      -35.565415   -0.489752   -3.499559
     58          1           0      -34.014420   -1.095814   -4.020184
     59          1           0      -34.537571    0.493613   -4.581759
     60          1           0      -37.089231    0.585331   -2.433421
     61          1           0      -36.849440    2.231702   -3.266256
     62          1           0      -37.817940    2.033683   -1.833056
     63          1           0      -33.535853    2.962574    3.176024
     64          1           0      -30.782397    3.703894    4.112866
     65          1           0      -31.885006    5.347354    3.063529
     66          1           0      -33.617748    5.064051    3.310676
     67          1           0      -32.939226    4.999477    1.627478
     68          1           0      -32.680665    2.642020    5.438242
     69          1           0      -30.986964    2.502415    5.892322
     70          1           0      -32.791203    0.416220    5.744877
     71          1           0      -31.037827    0.260714    5.878204
     72          1           0      -31.780053    0.323414    4.273921
     73          1           0      -26.781623    1.036174    4.748545
     74          1           0      -25.338181    0.982303    3.673650
     75          1           0      -25.910347   -0.497231    4.466222
     76          1           0      -26.132539   -3.241746    0.044996
     77          1           0      -22.705960   -3.201762   -2.576267
     78          1           0      -23.003991   -1.443100   -2.327694
     79          1           0      -23.818494   -2.427239   -3.561138
     80         12           0       30.643058    0.084247   -0.554299
     81          6           0       27.730972   -1.236725    1.073276
     82          6           0       28.783304    3.124264   -0.798198
     83          6           0       33.445946    1.843130   -1.136542
     84          6           0       32.379826   -2.679248    0.466996
     85          7           0       28.545520    0.807254    0.106057
     86          6           0       27.546862    0.103100    0.712960
     87          6           0       26.264005    0.978875    0.931659
     88          6           0       26.561344    2.206888   -0.055441
     89          6           0       28.070081    2.078384   -0.192560
     90          6           0       25.896627    2.105535   -1.409154
     91          6           0       25.975232    1.274077    2.394224
     92          6           0       24.506831    1.142000    2.875241
     93          1           0       23.582987    2.434485    3.059237
     94          7           0       31.080762    2.235317   -1.031017
     95          6           0       30.132712    3.271261   -1.163573
     96          6           0       30.826756    4.491896   -1.591893
     97          6           0       32.214907    4.098149   -1.739384
     98          6           0       32.320694    2.747512   -1.230746
     99          6           0       30.235115    5.837562   -1.783112
    100          6           0       33.303090    4.963453   -2.323834
    101          8           0       32.983107    6.006760   -2.847618
    102          6           0       34.772743    4.611238   -2.312998
    103          7           0       32.553759   -0.352586   -0.236977
    104          6           0       33.535701    0.506240   -0.722772
    105          6           0       34.889406   -0.166945   -0.484867
    106          6           0       34.521869   -1.665668   -0.182075
    107          6           0       33.042763   -1.572282   -0.014744
    108          6           0       36.019108    0.032710   -1.560835
    109          6           0       35.265107   -2.382791    0.986512
    110          6           0       35.968527   -3.666252    0.686682
    111          7           0       30.193946   -1.661978    0.420199
    112          6           0       30.988710   -2.757244    0.710267
    113          6           0       30.166796   -3.892546    1.172004
    114          6           0       28.874704   -3.270974    1.380073
    115          6           0       28.983262   -1.953954    0.923205
    116          6           0       30.552886   -5.318519    1.464727
    117          6           0       27.483164   -3.557619    1.837741
    118          8           0       27.014232   -4.539744    2.338527
    119          6           0       26.766011   -2.214340    1.750165
    120          6           0       25.533558   -2.407150    0.917932
    121          8           0       25.658023   -2.682128   -0.256176
    122          8           0       24.290580   -2.148645    1.570022
    123          6           0       23.073056   -2.134582    0.703580
    124          1           0       28.232699    4.056861   -0.939162
    125          1           0       34.440055    2.258062   -1.311098
    126          1           0       32.935655   -3.610118    0.595048
    127          1           0       25.382561    0.526154    0.478473
    128          1           0       26.372789    3.163680    0.431340
    129          1           0       26.493228    1.442642   -2.035420
    130          1           0       25.807627    3.119825   -1.798004
    131          1           0       24.896667    1.675288   -1.473589
    132          1           0       26.243621    2.318972    2.546902
    133          1           0       26.704668    0.729245    2.993482
    134          1           0       24.610650    0.641458    3.838235
    135          1           0       23.903748    0.485783    2.247610
    136          1           0       30.050982    5.938180   -2.852297
    137          1           0       30.989571    6.593338   -1.564493
    138          1           0       29.334154    6.125234   -1.239925
    139          1           0       35.442325    5.392444   -2.672293
    140          1           0       34.870126    3.755730   -2.981483
    141          1           0       35.230281    4.256946   -1.390032
    142          1           0       35.264643    0.401024    0.366924
    143          1           0       34.594489   -2.225215   -1.114193
    144          1           0       35.590789    0.338651   -2.515699
    145          1           0       36.627550   -0.867422   -1.646459
    146          1           0       36.725167    0.792721   -1.226939
    147          1           0       34.555071   -2.564111    1.793336
    148          1           0       35.942660   -1.652048    1.427943
    149          1           0       35.400937   -4.491753    1.115693
    150          1           0       36.952620   -3.661093    1.155138
    151          1           0       36.125466   -3.923242   -0.360676
    152          1           0       29.683736   -5.974920    1.427369
    153          1           0       31.008464   -5.316232    2.455347
    154          1           0       31.357383   -5.591478    0.781564
    155          1           0       26.611301   -1.861278    2.769842
    156          1           0       22.768550   -3.161320    0.499921
    157          1           0       23.290798   -1.687008   -0.265913
    158          1           0       22.270307   -1.566577    1.173362
 ---------------------------------------------------------------------

 SCF Done:  E(RCAM-B3LYP) =  -4069.83249180     A.U. after   16 cycles

 Excitation energies and oscillator strengths:

 Excited State   1:      Singlet-A      1.6714 eV  741.79 nm  f=0.3986  <S**2>=0.000
     309 -> 315        0.16934
     312 -> 314        0.68867
     309 <- 315        0.10660
 This state for optimization and/or second-order correction.
 Total Energy, E(TD-HF/TD-DFT) =  -4069.77106787
 Copying the excited state density for this state as the 1-particle RhoCI density.

 Excited State   2:      Singlet-A      1.7199 eV  720.86 nm  f=0.4174  <S**2>=0.000
     310 -> 316       -0.17812
     311 -> 313        0.68656
     310 <- 316       -0.10694

 Excited State   3:      Singlet-A      2.1905 eV  566.01 nm  f=0.1756  <S**2>=0.000
     310 -> 313        0.66248
     311 -> 316        0.23744

 Excited State   4:      Singlet-A      2.2361 eV  554.47 nm  f=0.1278  <S**2>=0.000
     309 -> 314        0.64117
     312 -> 315       -0.28143

 Excited State   5:      Singlet-A      3.1192 eV  397.48 nm  f=0.0000  <S**2>=0.000
     312 -> 313        0.70710

 The electronic state is 1-A.
 Alpha  occ. eigenvalues --  -46.89318 -46.89114 -19.25249 -19.25087 -19.20720
 Alpha  occ. eigenvalues --  -19.19720 -19.18880 -19.18606 -19.18541 -19.17978
 Alpha  occ. eigenvalues --  -14.42753 -14.42142 -14.41709 -14.41549 -14.39587
 Alpha  occ. eigenvalues --  -14.39509 -14.39331 -14.39151 -10.40212 -10.38952
 Alpha  occ. eigenvalues --  -10.35401 -10.35369 -10.34534 -10.34507 -10.32258
 Alpha  occ. eigenvalues --  -10.31635 -10.31380 -10.31289 -10.31082 -10.30884
 Alpha  occ. eigenvalues --  -10.30689 -10.30508 -10.30435 -10.30274 -10.30227
 Alpha  occ. eigenvalues --  -10.30135 -10.30081 -10.30059 -10.29890 -10.29483
 Alpha  occ. eigenvalues --  -10.29215 -10.29097 -10.29017 -10.28828 -10.28656
 Alpha  occ. eigenvalues --  -10.28632 -10.28587 -10.28550 -10.28463 -10.28365
 Alpha  occ. eigenvalues --  -10.28282 -10.28054 -10.28014 -10.28008 -10.27984
 Alpha  occ. eigenvalues --  -10.27982 -10.27785 -10.27690 -10.27596 -10.27507
 Alpha  occ. eigenvalues --  -10.27466 -10.27322 -10.27215 -10.27005 -10.26920
 Alpha  occ. eigenvalues --  -10.26909 -10.26874 -10.26613 -10.26562 -10.26519
 Alpha  occ. eigenvalues --  -10.26517 -10.26486 -10.26426 -10.26307 -10.26238
 Alpha  occ. eigenvalues --  -10.26185 -10.26073 -10.26041 -10.25887 -10.25729
 Alpha  occ. eigenvalues --  -10.25719 -10.25525 -10.25365 -10.25214 -10.25047
 Alpha  occ. eigenvalues --  -10.24629  -3.17888  -3.17723  -1.92736  -1.92606
 Alpha  occ. eigenvalues --   -1.92348  -1.92195  -1.92139  -1.92072  -1.15871
 Alpha  occ. eigenvalues --   -1.15360  -1.11719  -1.10209  -1.09899  -1.09465
 Alpha  occ. eigenvalues --   -1.07859  -1.05865  -1.05383  -1.04650  -1.04589
 Alpha  occ. eigenvalues --   -1.04162  -1.03571  -1.03488  -1.02770  -1.01505
 Alpha  occ. eigenvalues --   -0.92749  -0.92623  -0.89403  -0.89030  -0.88879
 Alpha  occ. eigenvalues --   -0.88451  -0.88265  -0.88209  -0.87790  -0.87609
 Alpha  occ. eigenvalues --   -0.87426  -0.86431  -0.86224  -0.85644  -0.84487
 Alpha  occ. eigenvalues --   -0.84293  -0.83955  -0.83775  -0.82692  -0.82488
 Alpha  occ. eigenvalues --   -0.81850  -0.81838  -0.81175  -0.80550  -0.80332
 Alpha  occ. eigenvalues --   -0.80198  -0.78398  -0.78159  -0.77487  -0.77482
 Alpha  occ. eigenvalues --   -0.77109  -0.76792  -0.76342  -0.76261  -0.75502
 Alpha  occ. eigenvalues --   -0.75219  -0.73551  -0.72641  -0.71775  -0.71555
 Alpha  occ. eigenvalues --   -0.69642  -0.69546  -0.69223  -0.68930  -0.68139
 Alpha  occ. eigenvalues --   -0.67916  -0.67138  -0.66707  -0.65940  -0.65644
 Alpha  occ. eigenvalues --   -0.65131  -0.65090  -0.64778  -0.64536  -0.64313
 Alpha  occ. eigenvalues --   -0.64220  -0.62318  -0.62254  -0.60188  -0.59844
 Alpha  occ. eigenvalues --   -0.59790  -0.59549  -0.59186  -0.59077  -0.59061
 Alpha  occ. eigenvalues --   -0.58322  -0.58304  -0.57922  -0.57643  -0.57302
 Alpha  occ. eigenvalues --   -0.56533  -0.56252  -0.55655  -0.55429  -0.55416
 Alpha  occ. eigenvalues --   -0.54990  -0.54888  -0.54322  -0.54085  -0.53860
 Alpha  occ. eigenvalues --   -0.53359  -0.53312  -0.53140  -0.53075  -0.52954
 Alpha  occ. eigenvalues --   -0.52799  -0.52605  -0.52236  -0.52232  -0.52093
 Alpha  occ. eigenvalues --   -0.51829  -0.51718  -0.51446  -0.51307  -0.51096
 Alpha  occ. eigenvalues --   -0.50920  -0.50767  -0.50575  -0.50431  -0.50281
 Alpha  occ. eigenvalues --   -0.49933  -0.49865  -0.49852  -0.49734  -0.49548
 Alpha  occ. eigenvalues --   -0.49298  -0.49241  -0.49107  -0.49102  -0.48807
 Alpha  occ. eigenvalues --   -0.48771  -0.48701  -0.48590  -0.48573  -0.48222
 Alpha  occ. eigenvalues --   -0.48181  -0.47834  -0.47684  -0.47556  -0.47154
 Alpha  occ. eigenvalues --   -0.47079  -0.46971  -0.46865  -0.46530  -0.46415
 Alpha  occ. eigenvalues --   -0.46376  -0.46177  -0.46177  -0.46049  -0.45968
 Alpha  occ. eigenvalues --   -0.45967  -0.45897  -0.45821  -0.45325  -0.45244
 Alpha  occ. eigenvalues --   -0.44999  -0.44954  -0.44655  -0.44496  -0.43952
 Alpha  occ. eigenvalues --   -0.43935  -0.43768  -0.43635  -0.43609  -0.43443
 Alpha  occ. eigenvalues --   -0.43381  -0.43302  -0.43222  -0.42973  -0.42895
 Alpha  occ. eigenvalues --   -0.42636  -0.42545  -0.42422  -0.42237  -0.41914
 Alpha  occ. eigenvalues --   -0.41890  -0.41835  -0.41546  -0.41529  -0.41329
 Alpha  occ. eigenvalues --   -0.41122  -0.41117  -0.40824  -0.40632  -0.40568
 Alpha  occ. eigenvalues --   -0.40259  -0.39999  -0.39844  -0.39532  -0.39284
 Alpha  occ. eigenvalues --   -0.38521  -0.38462  -0.38243  -0.37695  -0.37351
 Alpha  occ. eigenvalues --   -0.37335  -0.37150  -0.36618  -0.36503  -0.36038
 Alpha  occ. eigenvalues --   -0.35815  -0.35681  -0.35039  -0.34564  -0.34394
 Alpha  occ. eigenvalues --   -0.33450  -0.33179  -0.32891  -0.31597  -0.31344
 Alpha  occ. eigenvalues --   -0.31229  -0.31105  -0.30899  -0.30489  -0.30427
 Alpha  occ. eigenvalues --   -0.30102  -0.29669  -0.28735  -0.24302  -0.23844
 Alpha  occ. eigenvalues --   -0.21475  -0.21121
 Alpha virt. eigenvalues --   -0.09094  -0.08981  -0.01493  -0.01200   0.00218
 Alpha virt. eigenvalues --    0.00473   0.01249   0.01835   0.02466   0.02640
 Alpha virt. eigenvalues --    0.04403   0.04409   0.04749   0.05607   0.06142

 Mulliken charges:
               1
     1  Mg   0.838572
     2  C    0.011576
     3  C   -0.053545
     4  C   -0.054136
     5  C   -0.074734
     6  N   -0.259004
     7  C   -0.044590
     8  C   -0.039969
     9  C   -0.067771
    10  C    0.025070
    11  C    0.071342
    12  C    0.050810
    13  C   -0.046911
    14  H    0.016635
    15  N   -0.276137
    16  C    0.108820
    17  C   -0.140176
    18  C   -0.038871
    19  C    0.073808
    20  C    0.126623
    21  C   -0.001534
    22  O   -0.216467
    23  C    0.046160
    24  N   -0.278521
    25  C    0.028289
    26  C   -0.031855
    27  C    0.005454
    28  C    0.043875
    29  C    0.083017
    30  C   -0.011452
    31  C    0.012516
    32  N   -0.385125
    33  C    0.091438
    34  C   -0.180247
    35  C    0.092705
    36  C    0.102446
    37  C    0.138697
    38  C   -0.042523
    39  O   -0.171693
    40  C    0.016101
    41  C    0.193098
    42  O   -0.252913
    43  O   -0.327419
    44  C    0.186370
    45  H   -0.035441
    46  H   -0.008344
    47  H   -0.023981
    48  H    0.024588
    49  H    0.018102
    50  H    0.010045
    51  H    0.028610
    52  H    0.019046
    53  H   -0.011564
    54  H    0.007808
    55  H    0.032247
    56  H    0.033340
    57  H    0.009170
    58  H    0.014685
    59  H    0.039616
    60  H    0.033217
    61  H    0.047636
    62  H    0.024847
    63  H    0.009825
    64  H    0.009929
    65  H    0.015169
    66  H    0.018536
    67  H    0.029849
    68  H    0.004408
    69  H    0.004795
    70  H    0.014807
    71  H    0.015389
    72  H    0.016064
    73  H    0.004400
    74  H    0.043823
    75  H    0.038561
    76  H    0.030566
    77  H    0.035066
    78  H    0.058258
    79  H    0.019100
    80  Mg   0.850169
    81  C   -0.068673
    82  C   -0.046548
    83  C   -0.070141
    84  C   -0.117786
    85  N   -0.248503
    86  C   -0.056127
    87  C   -0.029250
    88  C   -0.067524
    89  C    0.027850
    90  C    0.088674
    91  C    0.079541
    92  C   -0.054269
    93  H    0.008708
    94  N   -0.346046
    95  C    0.095280
    96  C   -0.125941
    97  C   -0.029135
    98  C    0.139827
    99  C    0.130529
   100  C   -0.009064
   101  O   -0.204451
   102  C    0.048536
   103  N   -0.372420
   104  C    0.069194
   105  C   -0.081048
   106  C    0.022208
   107  C    0.057907
   108  C    0.063546
   109  C    0.049694
   110  C    0.008712
   111  N   -0.354574
   112  C    0.126948
   113  C   -0.180992
   114  C   -0.063998
   115  C    0.147722
   116  C    0.135423
   117  C    0.053068
   118  O   -0.136284
   119  C    0.059750
   120  C    0.212868
   121  O   -0.206833
   122  O   -0.375226
   123  C    0.175404
   124  H   -0.030896
   125  H   -0.056697
   126  H   -0.037325
   127  H    0.003961
   128  H    0.001855
   129  H    0.021989
   130  H    0.020342
   131  H    0.014396
   132  H    0.012528
   133  H    0.016699
   134  H    0.032671
   135  H    0.027192
   136  H    0.030816
   137  H    0.030813
   138  H    0.014450
   139  H    0.024085
   140  H    0.029759
   141  H    0.037078
   142  H    0.024828
   143  H    0.007133
   144  H    0.023789
   145  H    0.015791
   146  H    0.009088
   147  H    0.014436
   148  H   -0.000384
   149  H    0.015709
   150  H    0.013725
   151  H    0.015185
   152  H    0.047890
   153  H    0.030554
   154  H    0.013032
   155  H    0.042057
   156  H    0.044667
   157  H    0.034776
   158  H    0.047284
 Sum of Mulliken charges =  -0.00000

 Dipole moment (field-independent basis, Debye):
    X=             -1.4105    Y=             -3.3405    Z=             -1.0622  Tot=              3.7785
 Quadrupole moment (field-independent basis, Debye-Ang):
   XX=           -193.4540   YY=           -544.7068   ZZ=           -494.3831
   XY=             54.8102   XZ=             26.9658   YZ=             32.8500

 Normal termination of Gaussian 16 at Fri Sep  3 04:54:50 2021.
