 Gaussian 16, Revision A.03,
 Gaussian 16:  ES64L-G16RevA.03 25-Dec-2016

 -----------------------------------
 #p cam-b3lyp/Def2SVP td=(nstates=5)
 -----------------------------------

 --------------------------------
 TDDFT excited states in gaussian
 --------------------------------
 Symbolic Z-matrix:
 Charge =  0 Multiplicity = 1

                         Standard orientation:
 ---------------------------------------------------------------------
 Center     Atomic      Atomic             Coordinates (Angstroms)
 Number     Number       Type             X           Y           Z
 ---------------------------------------------------------------------
      1         12           0       11.786534    0.460104    0.225167
      2          6           0        9.987900   -2.513198    0.725843
      3          6           0       14.594513   -1.411591   -0.167698
      4          6           0       13.234268    3.258121   -0.653214
      5          6           0        8.558358    2.010343   -0.151721
      6          7           0       12.212305   -1.679194    0.345591
      7          6           0       11.339679   -2.712873    0.537595
      8          6           0       12.066604   -4.023374    0.200676
      9          6           0       13.519107   -3.657253    0.485073
     10          6           0       13.445602   -2.166305    0.103487
     11          6           0       13.909132   -3.850298    1.968735
     12          6           0       11.836227   -4.439064   -1.299324
     13          6           0       10.990365   -5.771846   -1.601654
     14          1           0        9.682443   -5.660984   -2.403600
     15          7           0       13.640971    0.862889   -0.389339
     16          6           0       14.675598   -0.040952   -0.466355
     17          6           0       15.875680    0.679736   -0.755920
     18          6           0       15.584170    2.083381   -0.795708
     19          6           0       14.104456    2.144962   -0.617572
     20          6           0       17.269843   -0.010666   -0.944500
     21          6           0       16.656165    3.220039   -0.967250
     22          8           0       17.817430    2.949164   -0.980910
     23          6           0       16.222869    4.604713   -0.824975
     24          7           0       10.985828    2.294040   -0.635440
     25          6           0       11.835034    3.343062   -0.524133
     26          6           0       11.124362    4.669010   -0.310284
     27          6           0        9.660524    4.316155   -0.525438
     28          6           0        9.715540    2.751158   -0.440581
     29          6           0       11.384830    5.282171    1.115218
     30          6           0        8.909491    4.828771   -1.843136
     31          6           0        7.874365    5.920555   -1.797369
     32          7           0        9.728339   -0.031811    0.465507
     33          6           0        8.538393    0.684608    0.283761
     34          6           0        7.375266   -0.154119    0.476878
     35          6           0        7.907624   -1.403729    0.678989
     36          6           0        9.339027   -1.327613    0.645949
     37          6           0        5.974926    0.287648    0.372940
     38          6           0        7.561835   -2.795744    0.922754
     39          8           0        6.453740   -3.310116    1.118415
     40          6           0        8.873051   -3.538564    1.070212
     41          6           0        8.913433   -4.108458    2.483943
     42          8           0        8.827495   -3.371480    3.463565
     43          8           0        8.921894   -5.511956    2.475634
     44          6           0        8.925394   -6.118042    3.780228
     45          1           0       15.496766   -2.025177   -0.131963
     46          1           0       13.794099    4.194222   -0.625240
     47          1           0        7.588092    2.511754   -0.157776
     48          1           0       11.589011   -4.806140    0.790516
     49          1           0       14.152087   -4.260324   -0.164689
     50          1           0       14.821711   -4.426943    1.821895
     51          1           0       13.087052   -4.424613    2.396797
     52          1           0       14.077073   -2.947222    2.555671
     53          1           0       12.817636   -4.622631   -1.736463
     54          1           0       11.433101   -3.572709   -1.823147
     55          1           0       10.674686   -6.137086   -0.624095
     56          1           0       11.563994   -6.582581   -2.049243
     57          1           0       17.854172    0.248993   -1.826703
     58          1           0       17.063272   -1.080919   -0.976869
     59          1           0       17.938207    0.153691   -0.099102
     60          1           0       15.446332    4.907894   -1.527574
     61          1           0       17.090586    5.250741   -0.958176
     62          1           0       15.994367    4.820706    0.217788
     63          1           0       11.475703    5.447063   -0.988820
     64          1           0        9.066227    4.631400    0.332209
     65          1           0       12.157796    6.050488    1.119704
     66          1           0       11.536004    4.478022    1.835335
     67          1           0       10.462631    5.778554    1.420698
     68          1           0        8.552320    4.082907   -2.552402
     69          1           0        9.800930    5.251587   -2.307219
     70          1           0        8.183952    6.834652   -2.303020
     71          1           0        7.666725    6.182734   -0.759664
     72          1           0        6.998132    5.479923   -2.272379
     73          1           0        5.950438    1.160208   -0.280420
     74          1           0        5.698233    0.614225    1.375782
     75          1           0        5.320756   -0.528423    0.069462
     76          1           0        8.766175   -4.346636    0.347809
     77          1           0        9.890391   -6.098534    4.287393
     78          1           0        8.617637   -7.162437    3.737433
     79          1           0        8.219210   -5.676538    4.482898
     80         12           0      -11.005036    0.759440    0.510224
     81          6           0      -11.938880   -2.619128   -0.478796
     82          6           0       -7.943097    0.174358   -0.929144
     83          6           0      -10.681522    4.054663    0.041972
     84          6           0      -14.035707    1.111280    2.006080
     85          7           0      -10.139151   -0.995164   -0.762024
     86          6           0      -10.691700   -2.311307   -0.962986
     87          6           0       -9.620676   -3.225286   -1.564923
     88          6           0       -8.286605   -2.450357   -1.353767
     89          6           0       -8.754857   -0.977077   -0.974191
     90          6           0       -7.366361   -3.060413   -0.193305
     91          6           0       -9.879113   -3.775767   -2.936983
     92          6           0      -10.964284   -3.080693   -3.792766
     93          1           0      -11.352551   -3.420478   -5.243369
     94          7           0       -9.433193    1.978516   -0.214034
     95          6           0       -8.261446    1.531246   -0.783367
     96          6           0       -7.397801    2.720658   -1.062883
     97          6           0       -8.252433    3.805342   -0.883339
     98          6           0       -9.545546    3.344646   -0.383144
     99          6           0       -6.003215    2.554787   -1.553579
    100          6           0       -7.874613    5.283744   -1.190344
    101          8           0       -6.789560    5.499102   -1.700603
    102          6           0       -8.802076    6.444301   -1.044233
    103          7           0      -12.309832    2.309121    0.843417
    104          6           0      -11.839020    3.611990    0.684465
    105          6           0      -12.837820    4.627130    1.240141
    106          6           0      -13.770268    3.734680    2.136991
    107          6           0      -13.340674    2.335754    1.689342
    108          6           0      -12.292168    5.853774    2.015575
    109          6           0      -15.305067    3.997230    2.008433
    110          6           0      -15.991858    4.743976    3.241724
    111          7           0      -12.655286   -0.492439    0.820480
    112          6           0      -13.807561   -0.210083    1.539580
    113          6           0      -14.574229   -1.421812    1.694814
    114          6           0      -13.898380   -2.318162    0.855795
    115          6           0      -12.723836   -1.687783    0.375849
    116          6           0      -15.903025   -1.498973    2.466414
    117          6           0      -13.868033   -3.659778    0.359452
    118          8           0      -14.689723   -4.552230    0.650599
    119          6           0      -12.523416   -3.996305   -0.425348
    120          6           0      -12.981207   -4.586668   -1.698936
    121          8           0      -13.841759   -4.128932   -2.458170
    122          8           0      -12.185448   -5.658499   -1.934354
    123          6           0      -12.579154   -6.538152   -3.079295
    124          1           0       -6.976495   -0.007656   -1.402495
    125          1           0      -10.555177    5.129562   -0.105015
    126          1           0      -14.944785    1.222780    2.600100
    127          1           0       -9.688698   -4.021751   -0.823859
    128          1           0       -7.737389   -2.287757   -2.281310
    129          1           0       -6.502703   -3.440548   -0.737476
    130          1           0       -7.928179   -3.817233    0.354655
    131          1           0       -7.073382   -2.209994    0.423394
    132          1           0      -10.052877   -4.843433   -2.804069
    133          1           0       -8.892202   -3.665660   -3.387658
    134          1           0      -10.686741   -2.026187   -3.783659
    135          1           0      -11.933456   -3.181703   -3.303886
    136          1           0       -6.007417    2.904982   -2.585371
    137          1           0       -5.739077    1.500648   -1.474762
    138          1           0       -5.323270    3.103547   -0.900994
    139          1           0       -9.681288    6.484964   -1.686095
    140          1           0       -8.338081    7.390367   -1.321555
    141          1           0       -8.988483    6.412574    0.029150
    142          1           0      -13.273524    4.920479    0.284342
    143          1           0      -13.403670    3.893882    3.151315
    144          1           0      -12.255294    6.765200    1.418020
    145          1           0      -11.258961    5.669101    2.307752
    146          1           0      -12.893962    5.962049    2.918578
    147          1           0      -15.898035    3.102913    1.814868
    148          1           0      -15.393590    4.578096    1.090274
    149          1           0      -16.630147    5.468254    2.736274
    150          1           0      -15.300826    5.245889    3.919136
    151          1           0      -16.475018    3.974681    3.843034
    152          1           0      -16.125521   -2.467266    2.915295
    153          1           0      -16.613838   -1.312593    1.662092
    154          1           0      -15.869956   -0.846817    3.338893
    155          1           0      -11.919519   -4.679124    0.174094
    156          1           0      -11.861280   -7.354267   -3.168256
    157          1           0      -12.570266   -5.988227   -4.020552
    158          1           0      -13.570570   -6.871101   -2.775379
 ---------------------------------------------------------------------

 SCF Done:  E(RCAM-B3LYP) =  -4069.78041927     A.U. after   19 cycles

 Excitation energies and oscillator strengths:

 Excited State   1:      Singlet-A      1.6557 eV  748.82 nm  f=0.4084  <S**2>=0.000
     310 -> 316       -0.15611
     312 -> 313        0.68930
     310 <- 316       -0.10129
 This state for optimization and/or second-order correction.
 Total Energy, E(TD-HF/TD-DFT) =  -4069.71957233
 Copying the excited state density for this state as the 1-particle RhoCI density.

 Excited State   2:      Singlet-A      1.7236 eV  719.32 nm  f=0.3263  <S**2>=0.000
     309 -> 315       -0.19136
     311 -> 314        0.68162
     309 <- 315       -0.11095

 Excited State   3:      Singlet-A      2.2755 eV  544.86 nm  f=0.0705  <S**2>=0.000
     310 -> 313        0.61860
     312 -> 316        0.32478

 Excited State   4:      Singlet-A      2.2829 eV  543.10 nm  f=0.0563  <S**2>=0.000
     309 -> 314        0.60428
     311 -> 315        0.35556

 Excited State   5:      Singlet-A      2.9444 eV  421.08 nm  f=0.0000  <S**2>=0.000
     312 -> 314        0.70699

 The electronic state is 1-A.
 Alpha  occ. eigenvalues --  -46.89260 -46.88736 -19.26089 -19.25309 -19.20643
 Alpha  occ. eigenvalues --  -19.19373 -19.19135 -19.19055 -19.18824 -19.17028
 Alpha  occ. eigenvalues --  -14.42427 -14.42184 -14.42128 -14.41497 -14.39683
 Alpha  occ. eigenvalues --  -14.39433 -14.39400 -14.38696 -10.40313 -10.39085
 Alpha  occ. eigenvalues --  -10.35481 -10.35098 -10.34628 -10.33487 -10.32075
 Alpha  occ. eigenvalues --  -10.31881 -10.31614 -10.31574 -10.31180 -10.31176
 Alpha  occ. eigenvalues --  -10.30964 -10.30885 -10.30835 -10.30766 -10.30706
 Alpha  occ. eigenvalues --  -10.30602 -10.30450 -10.29841 -10.29590 -10.29348
 Alpha  occ. eigenvalues --  -10.28964 -10.28797 -10.28666 -10.28644 -10.28484
 Alpha  occ. eigenvalues --  -10.28471 -10.28431 -10.28361 -10.28203 -10.28116
 Alpha  occ. eigenvalues --  -10.27939 -10.27926 -10.27869 -10.27867 -10.27827
 Alpha  occ. eigenvalues --  -10.27809 -10.27636 -10.27595 -10.27572 -10.27565
 Alpha  occ. eigenvalues --  -10.27503 -10.27307 -10.27259 -10.27194 -10.27139
 Alpha  occ. eigenvalues --  -10.27072 -10.26977 -10.26947 -10.26922 -10.26913
 Alpha  occ. eigenvalues --  -10.26897 -10.26893 -10.26798 -10.26772 -10.26466
 Alpha  occ. eigenvalues --  -10.26368 -10.26296 -10.26279 -10.26217 -10.26040
 Alpha  occ. eigenvalues --  -10.25993 -10.25879 -10.25717 -10.25553 -10.25190
 Alpha  occ. eigenvalues --  -10.23931  -3.17747  -3.17346  -1.92620  -1.92224
 Alpha  occ. eigenvalues --   -1.92220  -1.92029  -1.91817  -1.91645  -1.16030
 Alpha  occ. eigenvalues --   -1.16029  -1.11953  -1.10665  -1.09169  -1.08287
 Alpha  occ. eigenvalues --   -1.07431  -1.06630  -1.04833  -1.04795  -1.04323
 Alpha  occ. eigenvalues --   -1.03979  -1.02910  -1.02779  -1.02124  -1.00298
 Alpha  occ. eigenvalues --   -0.93101  -0.91887  -0.89311  -0.89191  -0.89022
 Alpha  occ. eigenvalues --   -0.88928  -0.88557  -0.88552  -0.87667  -0.87156
 Alpha  occ. eigenvalues --   -0.86779  -0.86603  -0.86042  -0.85044  -0.84653
 Alpha  occ. eigenvalues --   -0.84327  -0.84281  -0.83657  -0.82698  -0.82637
 Alpha  occ. eigenvalues --   -0.82568  -0.82306  -0.81094  -0.80918  -0.80908
 Alpha  occ. eigenvalues --   -0.80121  -0.78051  -0.77981  -0.77722  -0.77281
 Alpha  occ. eigenvalues --   -0.76450  -0.76440  -0.76363  -0.75952  -0.75189
 Alpha  occ. eigenvalues --   -0.75155  -0.72986  -0.72940  -0.72173  -0.71630
 Alpha  occ. eigenvalues --   -0.69604  -0.69066  -0.68957  -0.68670  -0.68210
 Alpha  occ. eigenvalues --   -0.67558  -0.66870  -0.66825  -0.66152  -0.65916
 Alpha  occ. eigenvalues --   -0.65648  -0.65317  -0.64915  -0.64617  -0.64511
 Alpha  occ. eigenvalues --   -0.63489  -0.62776  -0.62069  -0.60301  -0.60097
 Alpha  occ. eigenvalues --   -0.59587  -0.59166  -0.59077  -0.59000  -0.58942
 Alpha  occ. eigenvalues --   -0.58555  -0.57974  -0.57732  -0.57458  -0.57153
 Alpha  occ. eigenvalues --   -0.56726  -0.56284  -0.56230  -0.56125  -0.55349
 Alpha  occ. eigenvalues --   -0.55128  -0.55036  -0.54526  -0.54181  -0.54001
 Alpha  occ. eigenvalues --   -0.53615  -0.53584  -0.53431  -0.53238  -0.53048
 Alpha  occ. eigenvalues --   -0.52829  -0.52826  -0.52728  -0.52504  -0.52248
 Alpha  occ. eigenvalues --   -0.52240  -0.51802  -0.51781  -0.51342  -0.51162
 Alpha  occ. eigenvalues --   -0.51064  -0.50998  -0.50940  -0.50603  -0.50504
 Alpha  occ. eigenvalues --   -0.50184  -0.49941  -0.49876  -0.49707  -0.49618
 Alpha  occ. eigenvalues --   -0.49506  -0.49346  -0.49141  -0.48908  -0.48736
 Alpha  occ. eigenvalues --   -0.48706  -0.48382  -0.48286  -0.48138  -0.48070
 Alpha  occ. eigenvalues --   -0.47713  -0.47565  -0.47564  -0.47166  -0.47107
 Alpha  occ. eigenvalues --   -0.46859  -0.46754  -0.46645  -0.46502  -0.46401
 Alpha  occ. eigenvalues --   -0.46344  -0.46187  -0.46184  -0.46014  -0.45669
 Alpha  occ. eigenvalues --   -0.45472  -0.45415  -0.45396  -0.45138  -0.44895
 Alpha  occ. eigenvalues --   -0.44489  -0.44405  -0.44354  -0.44199  -0.43933
 Alpha  occ. eigenvalues --   -0.43910  -0.43896  -0.43611  -0.43435  -0.43371
 Alpha  occ. eigenvalues --   -0.43338  -0.43119  -0.42789  -0.42684  -0.42632
 Alpha  occ. eigenvalues --   -0.42517  -0.42451  -0.42241  -0.42185  -0.42082
 Alpha  occ. eigenvalues --   -0.42015  -0.41874  -0.41776  -0.41698  -0.41646
 Alpha  occ. eigenvalues --   -0.41127  -0.41036  -0.40914  -0.40766  -0.40713
 Alpha  occ. eigenvalues --   -0.40414  -0.40082  -0.39877  -0.39291  -0.39047
 Alpha  occ. eigenvalues --   -0.39003  -0.38445  -0.38039  -0.37516  -0.37361
 Alpha  occ. eigenvalues --   -0.37205  -0.37047  -0.36732  -0.36575  -0.36526
 Alpha  occ. eigenvalues --   -0.36295  -0.35784  -0.34907  -0.34758  -0.34328
 Alpha  occ. eigenvalues --   -0.33774  -0.33531  -0.32646  -0.31483  -0.31451
 Alpha  occ. eigenvalues --   -0.31258  -0.31147  -0.31008  -0.30201  -0.30062
 Alpha  occ. eigenvalues --   -0.29699  -0.29386  -0.29185  -0.24441  -0.24406
 Alpha  occ. eigenvalues --   -0.21042  -0.20709
 Alpha virt. eigenvalues --   -0.08540  -0.08369  -0.02274  -0.01749   0.00447
 Alpha virt. eigenvalues --    0.00973   0.01517   0.01778   0.02539   0.02694
 Alpha virt. eigenvalues --    0.04141   0.04937   0.04966   0.05456   0.05824

 Mulliken charges:
               1
     1  Mg   0.819059
     2  C   -0.027530
     3  C   -0.090326
     4  C   -0.046248
     5  C   -0.087338
     6  N   -0.261366
     7  C   -0.073472
     8  C   -0.067304
     9  C   -0.064270
    10  C    0.017966
    11  C    0.108024
    12  C    0.065005
    13  C   -0.081462
    14  H    0.029259
    15  N   -0.432502
    16  C    0.196369
    17  C   -0.155221
    18  C   -0.066174
    19  C    0.129263
    20  C    0.128354
    21  C    0.011688
    22  O   -0.165150
    23  C    0.046910
    24  N   -0.260884
    25  C    0.045646
    26  C   -0.043768
    27  C   -0.029945
    28  C    0.049901
    29  C    0.066758
    30  C    0.022682
    31  C    0.021373
    32  N   -0.342394
    33  C    0.111572
    34  C   -0.193905
    35  C    0.033554
    36  C    0.152526
    37  C    0.142364
    38  C    0.016878
    39  O   -0.185575
    40  C    0.043614
    41  C    0.222821
    42  O   -0.216031
    43  O   -0.330701
    44  C    0.180797
    45  H   -0.024213
    46  H   -0.052481
    47  H   -0.027253
    48  H   -0.005528
    49  H   -0.002362
    50  H    0.020609
    51  H    0.016839
    52  H    0.032983
    53  H    0.008390
    54  H    0.031401
    55  H    0.028527
    56  H    0.035524
    57  H    0.032310
    58  H   -0.009151
    59  H    0.027864
    60  H    0.050395
    61  H    0.014759
    62  H    0.046902
    63  H    0.006662
    64  H    0.001261
    65  H    0.023882
    66  H    0.019604
    67  H    0.008365
    68  H    0.019336
    69  H   -0.007773
    70  H    0.022083
    71  H    0.005668
    72  H    0.020358
    73  H    0.016281
    74  H    0.033931
    75  H    0.041241
    76  H    0.030735
    77  H    0.024141
    78  H    0.031459
    79  H    0.036431
    80  Mg   0.820425
    81  C   -0.030347
    82  C   -0.063334
    83  C   -0.071279
    84  C   -0.075687
    85  N   -0.309283
    86  C   -0.098375
    87  C    0.032431
    88  C   -0.089015
    89  C    0.017923
    90  C    0.083195
    91  C    0.077496
    92  C   -0.046937
    93  H    0.019636
    94  N   -0.391653
    95  C    0.125388
    96  C   -0.145255
    97  C   -0.034624
    98  C    0.143005
    99  C    0.154332
   100  C   -0.013550
   101  O   -0.198383
   102  C    0.066730
   103  N   -0.314481
   104  C    0.069871
   105  C   -0.078963
   106  C    0.038575
   107  C   -0.001234
   108  C    0.080972
   109  C    0.022935
   110  C   -0.006878
   111  N   -0.284807
   112  C    0.084275
   113  C   -0.172572
   114  C    0.043281
   115  C    0.082317
   116  C    0.114705
   117  C    0.003056
   118  O   -0.216443
   119  C    0.045312
   120  C    0.197749
   121  O   -0.231960
   122  O   -0.339186
   123  C    0.180684
   124  H   -0.019112
   125  H   -0.063979
   126  H   -0.033593
   127  H    0.001608
   128  H    0.014848
   129  H    0.026834
   130  H    0.029060
   131  H    0.020088
   132  H    0.006802
   133  H   -0.007791
   134  H    0.024223
   135  H    0.048577
   136  H    0.049378
   137  H   -0.000168
   138  H    0.036109
   139  H    0.054871
   140  H    0.020799
   141  H    0.037915
   142  H    0.025748
   143  H    0.005531
   144  H    0.018793
   145  H    0.015425
   146  H    0.020745
   147  H    0.021153
   148  H   -0.000140
   149  H    0.029256
   150  H    0.015036
   151  H    0.025956
   152  H    0.027711
   153  H    0.049024
   154  H    0.018893
   155  H    0.043930
   156  H    0.041419
   157  H    0.050496
   158  H    0.054508
 Sum of Mulliken charges =  -0.00000

 Dipole moment (field-independent basis, Debye):
    X=              3.1731    Y=              4.6868    Z=              3.0182  Tot=              6.4144
 Quadrupole moment (field-independent basis, Debye-Ang):
   XX=           -598.5441   YY=           -459.3292   ZZ=           -513.0872
   XY=            -78.4890   XZ=            -16.8915   YZ=             16.1915

 Normal termination of Gaussian 16 at Thu Sep 16 10:29:39 2021.
