 Gaussian 16, Revision A.03,
 Gaussian 16:  ES64L-G16RevA.03 25-Dec-2016

 ----------------------------------------------------------
 #p cam-b3lyp/Def2SVP td=(nstates=5) density=(transition=1)
 ----------------------------------------------------------

 --------------------------------
 TDDFT excited states in gaussian
 --------------------------------
 Symbolic Z-matrix:
 Charge =  0 Multiplicity = 1

                         Standard orientation:
 ---------------------------------------------------------------------
 Center     Atomic      Atomic             Coordinates (Angstroms)
 Number     Number       Type             X           Y           Z
 ---------------------------------------------------------------------
      1         12           0      -25.309557   -0.416514   -0.070742
      2          6           0      -24.124266    2.756133   -0.881253
      3          6           0      -25.941765    0.664978    3.133246
      4          6           0      -26.164198   -3.607767    0.627712
      5          6           0      -24.240611   -1.518421   -3.297639
      6          7           0      -24.947375    1.451396    0.983409
      7          6           0      -24.486778    2.624741    0.471022
      8          6           0      -24.561624    3.755384    1.505299
      9          6           0      -25.018418    2.963303    2.809248
     10          6           0      -25.338638    1.575886    2.243197
     11          6           0      -23.914873    2.901372    3.858399
     12          6           0      -25.637331    4.866121    1.231868
     13          6           0      -25.364751    6.243252    1.778798
     14          1           0      -24.331465    6.424777    2.798650
     15          7           0      -26.033925   -1.297161    1.590302
     16          6           0      -26.216986   -0.664752    2.836306
     17          6           0      -26.902305   -1.615127    3.672468
     18          6           0      -27.037821   -2.845376    2.980800
     19          6           0      -26.393941   -2.627277    1.662034
     20          6           0      -27.187708   -1.372918    5.139190
     21          6           0      -27.687668   -4.108553    3.363643
     22          8           0      -27.551824   -5.141947    2.743959
     23          6           0      -28.478081   -4.218075    4.717807
     24          7           0      -25.389812   -2.333344   -1.230936
     25          6           0      -25.750344   -3.461026   -0.695161
     26          6           0      -25.607711   -4.641798   -1.702124
     27          6           0      -25.074479   -3.997882   -2.969012
     28          6           0      -24.814899   -2.517518   -2.511228
     29          6           0      -24.742387   -5.824731   -1.057841
     30          6           0      -26.026763   -4.150520   -4.173896
     31          6           0      -25.747888   -5.341273   -5.165476
     32          7           0      -24.646183    0.406611   -1.798231
     33          6           0      -24.246555   -0.151196   -3.038044
     34          6           0      -23.804331    0.850361   -3.931708
     35          6           0      -23.670824    2.009333   -3.054703
     36          6           0      -24.238560    1.642708   -1.801028
     37          6           0      -23.210875    0.618092   -5.309201
     38          6           0      -23.180180    3.337872   -3.075911
     39          8           0      -22.688709    4.019541   -3.966671
     40          6           0      -23.566728    3.939655   -1.569460
     41          6           0      -22.282367    4.497648   -1.030361
     42          8           0      -21.249900    3.840190   -0.862406
     43          8           0      -22.328771    5.912381   -0.853616
     44          6           0      -21.077582    6.543630   -0.328914
     45          1           0      -26.114410    1.075808    4.130898
     46          1           0      -26.281695   -4.631798    0.987279
     47          1           0      -23.944991   -1.789949   -4.312837
     48          1           0      -23.548404    4.146674    1.599504
     49          1           0      -25.877802    3.417252    3.302524
     50          1           0      -23.124756    3.620202    3.643069
     51          1           0      -23.527915    1.892583    4.004860
     52          1           0      -24.214730    3.280374    4.835433
     53          1           0      -26.589220    4.499543    1.614508
     54          1           0      -25.798326    4.880041    0.153691
     55          1           0      -26.271600    6.563803    2.291133
     56          1           0      -25.118314    6.910875    0.953139
     57          1           0      -26.616151   -2.023609    5.800937
     58          1           0      -28.261645   -1.483132    5.295289
     59          1           0      -26.934963   -0.383621    5.520310
     60          1           0      -27.723778   -4.383706    5.487460
     61          1           0      -29.066038   -5.135836    4.735322
     62          1           0      -29.005054   -3.290301    4.937249
     63          1           0      -26.634518   -4.991077   -1.812219
     64          1           0      -24.069734   -4.343804   -3.206829
     65          1           0      -23.884149   -6.058861   -1.687540
     66          1           0      -25.270610   -6.777421   -1.014775
     67          1           0      -24.412189   -5.426307   -0.097619
     68          1           0      -25.952566   -3.217602   -4.733809
     69          1           0      -27.035775   -4.211120   -3.765797
     70          1           0      -25.011148   -4.998120   -5.892668
     71          1           0      -26.589846   -5.821060   -5.664852
     72          1           0      -25.216202   -6.024584   -4.504145
     73          1           0      -24.090650    0.556495   -5.949216
     74          1           0      -22.664429   -0.323239   -5.353881
     75          1           0      -22.401798    1.285664   -5.608359
     76          1           0      -24.352741    4.687350   -1.682467
     77          1           0      -20.245314    6.420673   -1.021025
     78          1           0      -20.709839    6.232171    0.649129
     79          1           0      -21.394707    7.586290   -0.348619
     80         12           0       24.328542   -0.729971   -0.023036
     81          6           0       26.065746    2.263623   -0.730424
     82          6           0       22.910568    0.681518    2.598318
     83          6           0       23.462813   -3.863134    1.028929
     84          6           0       26.752347   -2.380876   -2.275785
     85          7           0       24.548996    1.257096    0.839142
     86          6           0       25.094837    2.350804    0.268925
     87          6           0       24.603132    3.607301    1.013918
     88          6           0       23.612281    3.118662    2.021285
     89          6           0       23.697177    1.570142    1.864646
     90          6           0       23.830058    3.748792    3.457526
     91          6           0       24.089136    4.821924    0.170793
     92          6           0       22.892532    5.749085    0.652997
     93          1           0       23.044939    7.271126    0.516684
     94          7           0       23.112003   -1.435008    1.468275
     95          6           0       22.604741   -0.656171    2.483735
     96          6           0       21.770449   -1.492730    3.298731
     97          6           0       21.921241   -2.879314    2.904867
     98          6           0       22.897420   -2.776129    1.797824
     99          6           0       21.069570   -0.873096    4.439155
    100          6           0       21.216446   -4.159599    3.417287
    101          8           0       21.518791   -5.222151    2.983618
    102          6           0       19.990362   -4.059072    4.265088
    103          7           0       25.080800   -2.824128   -0.538126
    104          6           0       24.410529   -3.873734   -0.011934
    105          6           0       24.911097   -5.237477   -0.586493
    106          6           0       25.934536   -4.786556   -1.673115
    107          6           0       25.965969   -3.246819   -1.508714
    108          6           0       25.521677   -6.181739    0.414705
    109          6           0       25.653746   -5.183902   -3.164513
    110          6           0       24.636834   -4.419519   -3.942772
    111          7           0       26.053771   -0.286380   -1.293415
    112          6           0       26.834720   -1.027898   -2.132909
    113          6           0       27.714271   -0.150432   -2.866055
    114          6           0       27.480179    1.160884   -2.374781
    115          6           0       26.489373    1.011355   -1.383234
    116          6           0       28.803077   -0.529031   -3.806979
    117          6           0       27.868460    2.540642   -2.444851
    118          8           0       28.664465    3.156858   -3.144081
    119          6           0       26.936955    3.329473   -1.418983
    120          6           0       27.717543    4.247070   -0.493124
    121          8           0       28.505479    3.858011    0.329876
    122          8           0       27.338310    5.559446   -0.726188
    123          6           0       28.065394    6.525935    0.097588
    124          1           0       22.246801    1.108809    3.353344
    125          1           0       23.098091   -4.826336    1.391059
    126          1           0       27.397827   -2.851369   -3.020269
    127          1           0       25.558162    3.919047    1.436830
    128          1           0       22.633243    3.496566    1.725429
    129          1           0       24.586113    4.531518    3.397908
    130          1           0       24.011314    2.928615    4.152134
    131          1           0       22.954917    4.314460    3.777827
    132          1           0       23.782164    4.419891   -0.795044
    133          1           0       24.894377    5.514214   -0.076410
    134          1           0       22.752463    5.482120    1.700666
    135          1           0       21.984103    5.456134    0.126517
    136          1           0       21.081750   -1.622515    5.230241
    137          1           0       20.033411   -0.729012    4.135320
    138          1           0       21.394558    0.073066    4.872211
    139          1           0       20.405274   -4.079167    5.271983
    140          1           0       19.296271   -4.850866    3.981655
    141          1           0       19.468410   -3.103366    4.212349
    142          1           0       24.133587   -5.748473   -1.154705
    143          1           0       26.992259   -5.014143   -1.544495
    144          1           0       25.344092   -5.847874    1.437831
    145          1           0       26.605614   -6.244491    0.314976
    146          1           0       25.041039   -7.143649    0.238069
    147          1           0       25.357089   -6.231636   -3.214172
    148          1           0       26.614146   -5.229300   -3.678500
    149          1           0       23.934565   -3.940997   -3.259905
    150          1           0       23.956445   -4.923836   -4.629310
    151          1           0       25.216863   -3.737140   -4.564894
    152          1           0       29.578719   -1.163290   -3.378769
    153          1           0       29.398038    0.375658   -3.934590
    154          1           0       28.410277   -0.936551   -4.738913
    155          1           0       26.248498    3.909152   -2.034211
    156          1           0       27.150686    6.752894    0.644343
    157          1           0       28.354394    7.295248   -0.618078
    158          1           0       28.878610    6.078222    0.669251
 ---------------------------------------------------------------------

 SCF Done:  E(RCAM-B3LYP) =  -4069.82549724     A.U. after   19 cycles

 Excitation energies and oscillator strengths:

 Excited State   1:      Singlet-A      1.7017 eV  728.58 nm  f=0.3839  <S**2>=0.000
     310 -> 316        0.18702
     312 -> 314        0.68384
     310 <- 316        0.11026
 This state for optimization and/or second-order correction.
 Total Energy, E(TD-HF/TD-DFT) =  -4069.76295996
 Copying the excited state density for this state as the 1-particle RhoCI density.

 Excited State   2:      Singlet-A      1.7265 eV  718.13 nm  f=0.3751  <S**2>=0.000
     309 -> 315        0.17541
     311 -> 313        0.68644
     309 <- 315        0.10553

 Excited State   3:      Singlet-A      2.1898 eV  566.19 nm  f=0.1087  <S**2>=0.000
     310 -> 314        0.64227
     312 -> 316       -0.28261

 Excited State   4:      Singlet-A      2.2227 eV  557.82 nm  f=0.1467  <S**2>=0.000
     309 -> 313        0.65063
     311 -> 315       -0.26126

 Excited State   5:      Singlet-A      3.0672 eV  404.23 nm  f=0.0000  <S**2>=0.000
     312 -> 313        0.70711

 The electronic state is 1-A.
 Alpha  occ. eigenvalues --  -46.89983 -46.88013 -19.24725 -19.24178 -19.20015
 Alpha  occ. eigenvalues --  -19.19568 -19.19479 -19.19297 -19.18620 -19.18247
 Alpha  occ. eigenvalues --  -14.42713 -14.42204 -14.41770 -14.41676 -14.40195
 Alpha  occ. eigenvalues --  -14.39484 -14.39378 -14.38797 -10.39107 -10.39093
 Alpha  occ. eigenvalues --  -10.35717 -10.35497 -10.34787 -10.34365 -10.31725
 Alpha  occ. eigenvalues --  -10.31636 -10.31616 -10.31247 -10.31217 -10.31184
 Alpha  occ. eigenvalues --  -10.31114 -10.30878 -10.30874 -10.30836 -10.30718
 Alpha  occ. eigenvalues --  -10.30700 -10.30352 -10.29725 -10.29575 -10.29435
 Alpha  occ. eigenvalues --  -10.29003 -10.28925 -10.28894 -10.28662 -10.28579
 Alpha  occ. eigenvalues --  -10.28513 -10.28171 -10.28131 -10.28075 -10.28029
 Alpha  occ. eigenvalues --  -10.27962 -10.27916 -10.27873 -10.27820 -10.27797
 Alpha  occ. eigenvalues --  -10.27796 -10.27783 -10.27644 -10.27639 -10.27547
 Alpha  occ. eigenvalues --  -10.27528 -10.27503 -10.27354 -10.27285 -10.27015
 Alpha  occ. eigenvalues --  -10.26907 -10.26836 -10.26768 -10.26710 -10.26551
 Alpha  occ. eigenvalues --  -10.26525 -10.26390 -10.26371 -10.26354 -10.26339
 Alpha  occ. eigenvalues --  -10.26247 -10.26118 -10.26020 -10.25888 -10.25880
 Alpha  occ. eigenvalues --  -10.25828 -10.25382 -10.25095 -10.24958 -10.24868
 Alpha  occ. eigenvalues --  -10.24559  -3.18292  -3.16708  -1.93165  -1.92756
 Alpha  occ. eigenvalues --   -1.92582  -1.91620  -1.91157  -1.91027  -1.16279
 Alpha  occ. eigenvalues --   -1.13475  -1.12887  -1.11152  -1.09199  -1.08653
 Alpha  occ. eigenvalues --   -1.08528  -1.05853  -1.05223  -1.04209  -1.03980
 Alpha  occ. eigenvalues --   -1.03408  -1.03129  -1.02471  -1.02452  -1.01824
 Alpha  occ. eigenvalues --   -0.92133  -0.91602  -0.89323  -0.89293  -0.89007
 Alpha  occ. eigenvalues --   -0.88868  -0.88439  -0.88246  -0.87797  -0.87517
 Alpha  occ. eigenvalues --   -0.87359  -0.87162  -0.86297  -0.86083  -0.84362
 Alpha  occ. eigenvalues --   -0.83992  -0.83647  -0.83019  -0.82517  -0.82235
 Alpha  occ. eigenvalues --   -0.81986  -0.81525  -0.80827  -0.80423  -0.80390
 Alpha  occ. eigenvalues --   -0.80060  -0.78821  -0.78274  -0.77302  -0.77146
 Alpha  occ. eigenvalues --   -0.77088  -0.76897  -0.75897  -0.75842  -0.75093
 Alpha  occ. eigenvalues --   -0.74640  -0.73154  -0.72316  -0.71651  -0.71457
 Alpha  occ. eigenvalues --   -0.69803  -0.69598  -0.69263  -0.69007  -0.68191
 Alpha  occ. eigenvalues --   -0.68018  -0.67322  -0.66895  -0.65821  -0.65285
 Alpha  occ. eigenvalues --   -0.64985  -0.64907  -0.64643  -0.64293  -0.64127
 Alpha  occ. eigenvalues --   -0.64000  -0.61694  -0.61430  -0.60382  -0.60015
 Alpha  occ. eigenvalues --   -0.59675  -0.59540  -0.59352  -0.58792  -0.58565
 Alpha  occ. eigenvalues --   -0.58337  -0.57986  -0.57815  -0.57387  -0.57374
 Alpha  occ. eigenvalues --   -0.56294  -0.56136  -0.55868  -0.55377  -0.55042
 Alpha  occ. eigenvalues --   -0.55007  -0.54662  -0.54573  -0.54048  -0.54038
 Alpha  occ. eigenvalues --   -0.53711  -0.53427  -0.53333  -0.53268  -0.52937
 Alpha  occ. eigenvalues --   -0.52756  -0.52524  -0.52404  -0.52364  -0.52291
 Alpha  occ. eigenvalues --   -0.52082  -0.51717  -0.51628  -0.51184  -0.51052
 Alpha  occ. eigenvalues --   -0.50920  -0.50816  -0.50605  -0.50595  -0.50286
 Alpha  occ. eigenvalues --   -0.50170  -0.50021  -0.49903  -0.49639  -0.49546
 Alpha  occ. eigenvalues --   -0.49509  -0.49320  -0.49190  -0.49118  -0.48971
 Alpha  occ. eigenvalues --   -0.48758  -0.48602  -0.48584  -0.48416  -0.48328
 Alpha  occ. eigenvalues --   -0.48180  -0.47689  -0.47684  -0.47532  -0.47249
 Alpha  occ. eigenvalues --   -0.47195  -0.47175  -0.47126  -0.46966  -0.46753
 Alpha  occ. eigenvalues --   -0.46742  -0.46017  -0.45805  -0.45769  -0.45543
 Alpha  occ. eigenvalues --   -0.45417  -0.45107  -0.45083  -0.44722  -0.44618
 Alpha  occ. eigenvalues --   -0.44569  -0.44550  -0.44319  -0.44289  -0.44124
 Alpha  occ. eigenvalues --   -0.44076  -0.43927  -0.43705  -0.43631  -0.43408
 Alpha  occ. eigenvalues --   -0.43236  -0.43052  -0.42988  -0.42919  -0.42919
 Alpha  occ. eigenvalues --   -0.42648  -0.42598  -0.42508  -0.42330  -0.42033
 Alpha  occ. eigenvalues --   -0.42023  -0.41873  -0.41816  -0.41529  -0.41450
 Alpha  occ. eigenvalues --   -0.41336  -0.40863  -0.40850  -0.40584  -0.40298
 Alpha  occ. eigenvalues --   -0.40116  -0.39898  -0.39461  -0.39180  -0.38952
 Alpha  occ. eigenvalues --   -0.38657  -0.38106  -0.37894  -0.37813  -0.37374
 Alpha  occ. eigenvalues --   -0.37265  -0.37019  -0.36890  -0.36195  -0.35898
 Alpha  occ. eigenvalues --   -0.35817  -0.35706  -0.34613  -0.34408  -0.33887
 Alpha  occ. eigenvalues --   -0.33546  -0.33545  -0.33141  -0.31781  -0.31693
 Alpha  occ. eigenvalues --   -0.31107  -0.30827  -0.30598  -0.30543  -0.29819
 Alpha  occ. eigenvalues --   -0.29809  -0.29517  -0.29332  -0.24222  -0.23812
 Alpha  occ. eigenvalues --   -0.21579  -0.21043
 Alpha virt. eigenvalues --   -0.09090  -0.08631  -0.01687  -0.01613   0.00178
 Alpha virt. eigenvalues --    0.00326   0.01168   0.02365   0.02525   0.03709
 Alpha virt. eigenvalues --    0.04522   0.04674   0.05174   0.05700   0.05962

 Mulliken charges:
               1
     1  Mg  12.000010
     2  C    5.999936
     3  C    6.000062
     4  C    6.000079
     5  C    5.999941
     6  N    6.999931
     7  C    6.000041
     8  C    5.999984
     9  C    6.000026
    10  C    5.999928
    11  C    6.000042
    12  C    5.999991
    13  C    6.000005
    14  H    0.999972
    15  N    6.999981
    16  C    5.999845
    17  C    5.999958
    18  C    5.999939
    19  C    5.999897
    20  C    6.000031
    21  C    5.999977
    22  O    7.999927
    23  C    6.000026
    24  N    7.000081
    25  C    5.999920
    26  C    6.000003
    27  C    5.999986
    28  C    6.000028
    29  C    6.000013
    30  C    5.999979
    31  C    6.000004
    32  N    7.000026
    33  C    6.000147
    34  C    6.000048
    35  C    6.000082
    36  C    6.000097
    37  C    5.999988
    38  C    5.999990
    39  O    8.000105
    40  C    6.000009
    41  C    6.000011
    42  O    7.999970
    43  O    8.000017
    44  C    6.000007
    45  H    0.999950
    46  H    0.999993
    47  H    1.000060
    48  H    0.999970
    49  H    1.000008
    50  H    0.999929
    51  H    0.999971
    52  H    0.999980
    53  H    1.000050
    54  H    0.999997
    55  H    1.000032
    56  H    1.000004
    57  H    0.999924
    58  H    0.999980
    59  H    0.999941
    60  H    0.999951
    61  H    0.999979
    62  H    1.000004
    63  H    1.000037
    64  H    0.999975
    65  H    0.999958
    66  H    1.000013
    67  H    0.999983
    68  H    1.000000
    69  H    1.000050
    70  H    0.999998
    71  H    1.000049
    72  H    0.999996
    73  H    1.000080
    74  H    1.000029
    75  H    1.000033
    76  H    1.000044
    77  H    0.999982
    78  H    0.999978
    79  H    1.000035
    80  Mg  12.001243
    81  C    6.031606
    82  C    5.985456
    83  C    5.977321
    84  C    6.006728
    85  N    7.015149
    86  C    5.960248
    87  C    6.007369
    88  C    5.986773
    89  C    6.034347
    90  C    6.000123
    91  C    6.001126
    92  C    5.997756
    93  H    1.002260
    94  N    6.988908
    95  C    6.043927
    96  C    6.018731
    97  C    6.019170
    98  C    6.034504
    99  C    5.992146
   100  C    6.013598
   101  O    8.025420
   102  C    5.994993
   103  N    6.998499
   104  C    6.031139
   105  C    5.986949
   106  C    6.003877
   107  C    5.972873
   108  C    5.999384
   109  C    6.005461
   110  C    6.008382
   111  N    7.004570
   112  C    5.963204
   113  C    5.962414
   114  C    6.000142
   115  C    5.960959
   116  C    6.003946
   117  C    5.986653
   118  O    7.970510
   119  C    5.995928
   120  C    5.996225
   121  O    7.996425
   122  O    7.998583
   123  C    6.001563
   124  H    1.008942
   125  H    1.004816
   126  H    0.987968
   127  H    1.002292
   128  H    1.005364
   129  H    1.012268
   130  H    0.996350
   131  H    1.002872
   132  H    1.002507
   133  H    1.004085
   134  H    0.992578
   135  H    0.997810
   136  H    1.018621
   137  H    1.021724
   138  H    1.020822
   139  H    1.009019
   140  H    1.014196
   141  H    1.003751
   142  H    1.002062
   143  H    1.001358
   144  H    0.992556
   145  H    1.009534
   146  H    1.001519
   147  H    0.987985
   148  H    1.001411
   149  H    0.989436
   150  H    0.991791
   151  H    1.006791
   152  H    0.975888
   153  H    0.985391
   154  H    0.978175
   155  H    0.993884
   156  H    0.993791
   157  H    0.998013
   158  H    0.997841
 Sum of Mulliken charges = 624.00000

 Dipole moment (field-independent basis, Debye):
    X=             -7.3918    Y=             -2.5082    Z=              7.6179  Tot=             10.9071
 Quadrupole moment (field-independent basis, Debye-Ang):
   XX=           -366.7377   YY=              2.8239   ZZ=              3.2154
   XY=            -56.4175   XZ=            187.8650   YZ=             -8.0521

 Normal termination of Gaussian 16 at Thu Sep 23 05:49:40 2021.
