 Gaussian 16, Revision A.03,
 Gaussian 16:  ES64L-G16RevA.03 25-Dec-2016

 ----------------------------------------------------------
 #p cam-b3lyp/Def2SVP td=(nstates=5) density=(transition=1)
 ----------------------------------------------------------

 --------------------------------
 TDDFT excited states in gaussian
 --------------------------------
 Symbolic Z-matrix:
 Charge =  0 Multiplicity = 1

                         Standard orientation:
 ---------------------------------------------------------------------
 Center     Atomic      Atomic             Coordinates (Angstroms)
 Number     Number       Type             X           Y           Z
 ---------------------------------------------------------------------
      1         12           0       17.792787   -0.665066    0.148106
      2          6           0       15.852823    2.189307    0.753530
      3          6           0       20.585584    1.460812   -0.317645
      4          6           0       19.619619   -3.371848   -0.782215
      5          6           0       14.882900   -2.507139   -0.097563
      6          7           0       18.153809    1.509098    0.381751
      7          6           0       17.201917    2.434759    0.818846
      8          6           0       17.935432    3.735938    1.306240
      9          6           0       19.382317    3.487741    0.864363
     10          6           0       19.380006    2.060525    0.213593
     11          6           0       19.836019    4.579722   -0.141603
     12          6           0       17.703699    3.892745    2.804142
     13          6           0       17.721264    5.296427    3.386857
     14          1           0       18.278316    6.443765    2.514102
     15          7           0       19.815956   -0.971171   -0.457314
     16          6           0       20.789826    0.033400   -0.613788
     17          6           0       22.040752   -0.536459   -1.082663
     18          6           0       21.853440   -1.971609   -1.176947
     19          6           0       20.381596   -2.152883   -0.818015
     20          6           0       23.348258    0.251908   -1.231480
     21          6           0       22.824830   -3.078408   -1.539761
     22          8           0       22.458430   -4.246077   -1.540494
     23          6           0       24.260118   -2.744263   -1.681386
     24          7           0       17.285643   -2.687095   -0.299500
     25          6           0       18.237941   -3.623948   -0.565666
     26          6           0       17.588831   -5.032053   -0.609542
     27          6           0       16.057845   -4.778132   -0.323957
     28          6           0       16.043988   -3.241981   -0.113009
     29          6           0       17.866494   -5.707768   -1.964323
     30          6           0       15.501869   -5.487787    0.939132
     31          6           0       14.720556   -6.727341    0.514432
     32          7           0       15.730981   -0.310451    0.177260
     33          6           0       14.648121   -1.105239   -0.000809
     34          6           0       13.458514   -0.222398   -0.072849
     35          6           0       13.848009    1.026562    0.313604
     36          6           0       15.259346    0.923659    0.409194
     37          6           0       12.069046   -0.782185   -0.327314
     38          6           0       13.425953    2.393348    0.647837
     39          8           0       12.303524    2.883799    0.626578
     40          6           0       14.700193    3.127453    1.018209
     41          6           0       14.685062    4.366092    0.224062
     42          8           0       14.952916    4.554625   -0.970277
     43          8           0       14.222491    5.375780    1.042970
     44          6           0       14.061251    6.680651    0.439280
     45          1           0       21.438984    2.139540   -0.372796
     46          1           0       20.300608   -4.201078   -0.985082
     47          1           0       14.011957   -3.140808   -0.277912
     48          1           0       17.426510    4.485355    0.698837
     49          1           0       19.997129    3.674829    1.744710
     50          1           0       19.986842    4.229578   -1.162896
     51          1           0       20.869504    4.812089    0.113762
     52          1           0       19.134978    5.412763   -0.189643
     53          1           0       18.442501    3.231375    3.257780
     54          1           0       16.761679    3.412088    3.065449
     55          1           0       18.249269    5.269919    4.339108
     56          1           0       16.663208    5.444981    3.605459
     57          1           0       23.232367    1.328646   -1.106314
     58          1           0       23.772062    0.082809   -2.222278
     59          1           0       24.087000   -0.171496   -0.551996
     60          1           0       24.638181   -2.422065   -0.710830
     61          1           0       24.429707   -2.098886   -2.543229
     62          1           0       24.862501   -3.627920   -1.892293
     63          1           0       18.081059   -5.642929    0.146844
     64          1           0       15.552233   -5.021408   -1.259363
     65          1           0       16.996660   -6.020712   -2.541139
     66          1           0       18.370546   -6.605242   -1.606393
     67          1           0       18.405678   -5.087059   -2.679386
     68          1           0       14.694383   -4.900345    1.376507
     69          1           0       16.269678   -5.764861    1.661739
     70          1           0       15.092710   -7.504867    1.181380
     71          1           0       14.991898   -7.113235   -0.467899
     72          1           0       13.635711   -6.645578    0.587273
     73          1           0       12.038970   -1.814328   -0.677384
     74          1           0       11.498422   -0.182024   -1.034984
     75          1           0       11.562956   -0.882337    0.633512
     76          1           0       14.667265    3.325999    2.088976
     77          1           0       13.473580    6.551715   -0.469992
     78          1           0       15.005148    7.159265    0.177426
     79          1           0       13.312978    7.176319    1.056816
     80         12           0      -17.914553   -0.684642    0.146086
     81          6           0      -17.445681    2.603024   -0.946413
     82          6           0      -16.958380    0.343667    3.298076
     83          6           0      -17.671119   -3.952979    1.099907
     84          6           0      -18.205353   -1.663269   -3.163100
     85          7           0      -17.382618    1.250501    1.017345
     86          6           0      -17.471517    2.454080    0.436992
     87          6           0      -17.399084    3.641556    1.408096
     88          6           0      -17.051293    2.913679    2.762955
     89          6           0      -17.223708    1.336791    2.390365
     90          6           0      -15.673826    3.212999    3.392784
     91          6           0      -18.663911    4.498611    1.462827
     92          6           0      -18.394727    5.953881    1.886863
     93          1           0      -16.960421    6.384755    2.224520
     94          7           0      -17.503123   -1.683259    1.954841
     95          6           0      -17.187225   -1.069915    3.189097
     96          6           0      -17.047116   -2.108223    4.190252
     97          6           0      -17.188690   -3.394492    3.547766
     98          6           0      -17.500455   -3.059124    2.159252
     99          6           0      -16.880411   -1.764506    5.644879
    100          6           0      -17.207664   -4.864043    4.166158
    101          8           0      -17.477534   -5.855636    3.532906
    102          6           0      -16.844384   -4.979585    5.630649
    103          7           0      -17.840070   -2.521260   -0.883260
    104          6           0      -17.776816   -3.746745   -0.287209
    105          6           0      -17.879775   -4.922150   -1.327649
    106          6           0      -18.113102   -4.150396   -2.625387
    107          6           0      -18.041633   -2.698102   -2.192547
    108          6           0      -16.777823   -6.054155   -1.408124
    109          6           0      -19.480452   -4.509589   -3.252802
    110          6           0      -20.751610   -3.808967   -2.723944
    111          7           0      -18.001849    0.231115   -1.735829
    112          6           0      -18.123786   -0.286149   -2.999451
    113          6           0      -18.128238    0.745512   -3.981787
    114          6           0      -17.848436    1.960184   -3.208168
    115          6           0      -17.766060    1.577616   -1.926085
    116          6           0      -18.310278    0.706300   -5.434429
    117          6           0      -17.526061    3.378341   -3.284892
    118          8           0      -17.551732    4.147463   -4.251642
    119          6           0      -17.254652    3.882735   -1.836952
    120          6           0      -15.926702    4.475729   -1.716405
    121          8           0      -14.868086    3.863389   -1.623585
    122          8           0      -16.013942    5.825043   -1.951044
    123          6           0      -14.799163    6.586847   -2.300393
    124          1           0      -16.623483    0.754725    4.252930
    125          1           0      -17.778078   -4.990556    1.422998
    126          1           0      -18.393473   -1.957174   -4.197802
    127          1           0      -16.524834    4.263382    1.216763
    128          1           0      -17.825405    3.019682    3.522125
    129          1           0      -15.979831    3.501093    4.398343
    130          1           0      -15.187457    4.042305    2.879725
    131          1           0      -15.034058    2.331481    3.349520
    132          1           0      -19.421509    4.069305    2.117338
    133          1           0      -19.136990    4.532609    0.481064
    134          1           0      -19.043821    6.028836    2.759552
    135          1           0      -18.829712    6.668787    1.186975
    136          1           0      -16.699698   -0.689820    5.669884
    137          1           0      -16.039546   -2.328585    6.049002
    138          1           0      -17.753467   -2.020592    6.246998
    139          1           0      -15.790341   -4.877447    5.890882
    140          1           0      -17.248373   -5.923085    5.997650
    141          1           0      -17.420545   -4.163461    6.066494
    142          1           0      -18.780106   -5.424373   -0.974441
    143          1           0      -17.296618   -4.421989   -3.293511
    144          1           0      -16.414725   -6.265424   -2.413229
    145          1           0      -17.226871   -6.985674   -1.065020
    146          1           0      -15.981543   -5.788914   -0.712012
    147          1           0      -19.570793   -5.589499   -3.142043
    148          1           0      -19.355428   -4.307122   -4.316917
    149          1           0      -21.498055   -4.601493   -2.677324
    150          1           0      -21.139826   -3.049143   -3.401830
    151          1           0      -20.614335   -3.279528   -1.781761
    152          1           0      -18.947245    1.546393   -5.709016
    153          1           0      -18.738473   -0.214211   -5.831297
    154          1           0      -17.375979    0.966264   -5.932355
    155          1           0      -18.053824    4.601328   -1.655775
    156          1           0      -13.902674    5.966328   -2.276436
    157          1           0      -14.674334    7.370368   -1.552584
    158          1           0      -15.055471    6.931051   -3.301738
 ---------------------------------------------------------------------

 SCF Done:  E(RCAM-B3LYP) =  -4069.81956652     A.U. after   19 cycles

 Excitation energies and oscillator strengths:

 Excited State   1:      Singlet-A      1.6781 eV  738.83 nm  f=0.3966  <S**2>=0.000
     309 -> 315        0.17298
     312 -> 314        0.68711
     309 <- 315        0.10455
 This state for optimization and/or second-order correction.
 Total Energy, E(TD-HF/TD-DFT) =  -4069.75789687
 Copying the excited state density for this state as the 1-particle RhoCI density.

 Excited State   2:      Singlet-A      1.7177 eV  721.80 nm  f=0.4105  <S**2>=0.000
     310 -> 316        0.18151
     311 -> 313        0.68397
     310 <- 316        0.10676

 Excited State   3:      Singlet-A      2.1354 eV  580.61 nm  f=0.1558  <S**2>=0.000
     310 -> 313        0.65932
     311 -> 316       -0.23563

 Excited State   4:      Singlet-A      2.1968 eV  564.39 nm  f=0.1214  <S**2>=0.000
     309 -> 314        0.64516
     312 -> 315       -0.27392

 Excited State   5:      Singlet-A      3.0089 eV  412.05 nm  f=0.0000  <S**2>=0.000
     312 -> 313        0.70710

 The electronic state is 1-A.
 Alpha  occ. eigenvalues --  -46.89094 -46.88202 -19.24431 -19.23826 -19.19905
 Alpha  occ. eigenvalues --  -19.19769 -19.19272 -19.19184 -19.18938 -19.18662
 Alpha  occ. eigenvalues --  -14.42238 -14.42166 -14.41850 -14.41717 -14.40097
 Alpha  occ. eigenvalues --  -14.39388 -14.39179 -14.38121 -10.39337 -10.38635
 Alpha  occ. eigenvalues --  -10.36148 -10.35458 -10.35378 -10.35041 -10.31969
 Alpha  occ. eigenvalues --  -10.31182 -10.31132 -10.31117 -10.30968 -10.30944
 Alpha  occ. eigenvalues --  -10.30844 -10.30836 -10.30667 -10.30631 -10.30627
 Alpha  occ. eigenvalues --  -10.30276 -10.30061 -10.29829 -10.29515 -10.29323
 Alpha  occ. eigenvalues --  -10.29036 -10.28832 -10.28811 -10.28570 -10.28535
 Alpha  occ. eigenvalues --  -10.28380 -10.28230 -10.28147 -10.28111 -10.28066
 Alpha  occ. eigenvalues --  -10.28023 -10.27753 -10.27748 -10.27733 -10.27646
 Alpha  occ. eigenvalues --  -10.27619 -10.27593 -10.27573 -10.27540 -10.27534
 Alpha  occ. eigenvalues --  -10.27528 -10.27382 -10.27376 -10.27083 -10.26960
 Alpha  occ. eigenvalues --  -10.26907 -10.26873 -10.26774 -10.26550 -10.26504
 Alpha  occ. eigenvalues --  -10.26474 -10.26308 -10.26285 -10.26269 -10.26205
 Alpha  occ. eigenvalues --  -10.25943 -10.25877 -10.25803 -10.25756 -10.25506
 Alpha  occ. eigenvalues --  -10.25479 -10.25435 -10.25238 -10.24984 -10.24750
 Alpha  occ. eigenvalues --  -10.24716  -3.17492  -3.16727  -1.92405  -1.91906
 Alpha  occ. eigenvalues --   -1.91824  -1.91627  -1.91179  -1.91033  -1.15768
 Alpha  occ. eigenvalues --   -1.15041  -1.11543  -1.10437  -1.09985  -1.08823
 Alpha  occ. eigenvalues --   -1.06840  -1.06596  -1.04409  -1.04298  -1.03286
 Alpha  occ. eigenvalues --   -1.02765  -1.02615  -1.02405  -1.01604  -1.00980
 Alpha  occ. eigenvalues --   -0.93346  -0.92032  -0.89247  -0.89143  -0.88766
 Alpha  occ. eigenvalues --   -0.88758  -0.88098  -0.87943  -0.87085  -0.87054
 Alpha  occ. eigenvalues --   -0.86831  -0.86418  -0.86046  -0.85574  -0.84287
 Alpha  occ. eigenvalues --   -0.84159  -0.83859  -0.83397  -0.82705  -0.82362
 Alpha  occ. eigenvalues --   -0.82298  -0.81927  -0.80958  -0.80872  -0.80129
 Alpha  occ. eigenvalues --   -0.79997  -0.78087  -0.78075  -0.77237  -0.77099
 Alpha  occ. eigenvalues --   -0.76797  -0.76791  -0.75934  -0.75857  -0.74973
 Alpha  occ. eigenvalues --   -0.74513  -0.72512  -0.72391  -0.71052  -0.70984
 Alpha  occ. eigenvalues --   -0.69781  -0.69039  -0.68466  -0.68407  -0.67902
 Alpha  occ. eigenvalues --   -0.67646  -0.67049  -0.66038  -0.65402  -0.64895
 Alpha  occ. eigenvalues --   -0.64726  -0.64660  -0.64610  -0.64401  -0.63873
 Alpha  occ. eigenvalues --   -0.63684  -0.62103  -0.61356  -0.60101  -0.59732
 Alpha  occ. eigenvalues --   -0.59623  -0.59070  -0.59050  -0.59040  -0.58770
 Alpha  occ. eigenvalues --   -0.58328  -0.58274  -0.57628  -0.57615  -0.57369
 Alpha  occ. eigenvalues --   -0.55863  -0.55816  -0.55743  -0.55395  -0.55129
 Alpha  occ. eigenvalues --   -0.55064  -0.54751  -0.54622  -0.53662  -0.53609
 Alpha  occ. eigenvalues --   -0.53577  -0.53393  -0.53309  -0.53295  -0.52886
 Alpha  occ. eigenvalues --   -0.52826  -0.52795  -0.52638  -0.52287  -0.52092
 Alpha  occ. eigenvalues --   -0.51938  -0.51866  -0.51699  -0.51569  -0.51352
 Alpha  occ. eigenvalues --   -0.50762  -0.50748  -0.50595  -0.50310  -0.50184
 Alpha  occ. eigenvalues --   -0.49806  -0.49631  -0.49594  -0.49543  -0.49324
 Alpha  occ. eigenvalues --   -0.49282  -0.49228  -0.49020  -0.49000  -0.48961
 Alpha  occ. eigenvalues --   -0.48623  -0.48499  -0.48188  -0.48141  -0.48090
 Alpha  occ. eigenvalues --   -0.47838  -0.47581  -0.47375  -0.47108  -0.47073
 Alpha  occ. eigenvalues --   -0.46707  -0.46706  -0.46374  -0.46215  -0.46084
 Alpha  occ. eigenvalues --   -0.46009  -0.45863  -0.45785  -0.45605  -0.45210
 Alpha  occ. eigenvalues --   -0.45206  -0.44987  -0.44966  -0.44711  -0.44601
 Alpha  occ. eigenvalues --   -0.44426  -0.44367  -0.44226  -0.44194  -0.43928
 Alpha  occ. eigenvalues --   -0.43601  -0.43570  -0.43377  -0.43366  -0.43154
 Alpha  occ. eigenvalues --   -0.43145  -0.43015  -0.43014  -0.42780  -0.42748
 Alpha  occ. eigenvalues --   -0.42634  -0.42597  -0.42339  -0.42321  -0.41887
 Alpha  occ. eigenvalues --   -0.41855  -0.41506  -0.41457  -0.41221  -0.41054
 Alpha  occ. eigenvalues --   -0.41045  -0.40841  -0.40575  -0.40412  -0.40190
 Alpha  occ. eigenvalues --   -0.39954  -0.39875  -0.38906  -0.38473  -0.38442
 Alpha  occ. eigenvalues --   -0.38351  -0.38000  -0.37938  -0.37799  -0.37736
 Alpha  occ. eigenvalues --   -0.37647  -0.36587  -0.36425  -0.36284  -0.36081
 Alpha  occ. eigenvalues --   -0.35823  -0.35624  -0.34340  -0.34278  -0.34064
 Alpha  occ. eigenvalues --   -0.33753  -0.33233  -0.32595  -0.31565  -0.31554
 Alpha  occ. eigenvalues --   -0.31433  -0.31252  -0.30842  -0.30773  -0.30252
 Alpha  occ. eigenvalues --   -0.29961  -0.29563  -0.28612  -0.23781  -0.23471
 Alpha  occ. eigenvalues --   -0.21276  -0.20914
 Alpha virt. eigenvalues --   -0.08871  -0.08646  -0.01441  -0.01270   0.00207
 Alpha virt. eigenvalues --    0.00645   0.01846   0.02530   0.02533   0.02650
 Alpha virt. eigenvalues --    0.05156   0.05185   0.05228   0.05378   0.05894

 Mulliken charges:
               1
     1  Mg  12.000432
     2  C    5.970736
     3  C    6.012653
     4  C    6.029699
     5  C    5.988405
     6  N    6.985099
     7  C    6.038226
     8  C    5.994168
     9  C    6.012764
    10  C    5.967304
    11  C    6.002238
    12  C    5.995296
    13  C    5.999982
    14  H    1.007228
    15  N    7.009370
    16  C    5.954220
    17  C    5.982575
    18  C    5.980122
    19  C    5.963679
    20  C    6.003991
    21  C    5.985860
    22  O    7.969082
    23  C    6.008502
    24  N    7.007273
    25  C    5.962173
    26  C    6.008688
    27  C    5.987452
    28  C    6.029669
    29  C    6.002695
    30  C    5.995136
    31  C    5.998002
    32  N    6.995655
    33  C    6.041416
    34  C    6.029619
    35  C    6.002368
    36  C    6.040612
    37  C    5.995193
    38  C    6.018032
    39  O    8.027989
    40  C    6.001088
    41  C    6.003445
    42  O    8.007751
    43  O    8.000553
    44  C    5.998290
    45  H    0.986548
    46  H    0.998628
    47  H    1.011869
    48  H    0.997251
    49  H    0.992667
    50  H    1.001168
    51  H    1.000695
    52  H    0.985869
    53  H    1.010310
    54  H    0.991852
    55  H    1.003481
    56  H    0.995485
    57  H    0.981979
    58  H    0.981162
    59  H    0.981585
    60  H    0.992310
    61  H    0.992070
    62  H    0.983967
    63  H    1.001170
    64  H    1.004105
    65  H    0.990377
    66  H    0.999637
    67  H    1.005133
    68  H    0.994866
    69  H    1.010333
    70  H    1.005933
    71  H    1.005943
    72  H    0.998577
    73  H    1.019722
    74  H    1.020017
    75  H    1.022438
    76  H    1.007507
    77  H    1.000640
    78  H    1.007136
    79  H    1.002843
    80  Mg  12.000025
    81  C    5.999844
    82  C    6.000019
    83  C    6.000098
    84  C    6.000014
    85  N    6.999923
    86  C    6.000166
    87  C    5.999955
    88  C    5.999984
    89  C    5.999929
    90  C    6.000034
    91  C    5.999945
    92  C    6.000004
    93  H    0.999879
    94  N    6.999982
    95  C    5.999787
    96  C    5.999868
    97  C    5.999848
    98  C    5.999853
    99  C    6.000074
   100  C    5.999930
   101  O    7.999919
   102  C    6.000001
   103  N    7.000082
   104  C    5.999822
   105  C    6.000041
   106  C    5.999950
   107  C    6.000083
   108  C    5.999983
   109  C    5.999956
   110  C    5.999925
   111  N    7.000029
   112  C    6.000125
   113  C    6.000219
   114  C    5.999996
   115  C    6.000128
   116  C    5.999909
   117  C    6.000075
   118  O    8.000141
   119  C    6.000012
   120  C    6.000016
   121  O    7.999897
   122  O    8.000061
   123  C    6.000029
   124  H    0.999898
   125  H    1.000022
   126  H    1.000116
   127  H    0.999929
   128  H    1.000080
   129  H    1.000017
   130  H    0.999844
   131  H    0.999880
   132  H    1.000126
   133  H    1.000020
   134  H    1.000102
   135  H    1.000056
   136  H    0.999881
   137  H    0.999799
   138  H    0.999979
   139  H    0.999829
   140  H    1.000010
   141  H    1.000050
   142  H    1.000092
   143  H    0.999968
   144  H    0.999933
   145  H    1.000076
   146  H    0.999900
   147  H    1.000118
   148  H    1.000018
   149  H    1.000154
   150  H    1.000031
   151  H    1.000020
   152  H    1.000202
   153  H    1.000183
   154  H    1.000080
   155  H    1.000110
   156  H    0.999847
   157  H    1.000015
   158  H    1.000055
 Sum of Mulliken charges = 624.00000

 Dipole moment (field-independent basis, Debye):
    X=            -10.9478    Y=              1.4217    Z=              1.6610  Tot=             11.1640
 Quadrupole moment (field-independent basis, Debye-Ang):
   XX=           -388.6600   YY=              1.5095   ZZ=             -1.1212
   XY=             30.0553   XZ=             37.2356   YZ=             -1.5982

 Normal termination of Gaussian 16 at Wed Sep 22 22:01:22 2021.
