 Gaussian 16, Revision A.03,
 Gaussian 16:  ES64L-G16RevA.03 25-Dec-2016

 -----------------------------------
 #p cam-b3lyp/Def2SVP td=(nstates=5)
 -----------------------------------

 --------------------------------
 TDDFT excited states in gaussian
 --------------------------------
 Symbolic Z-matrix:
 Charge =  0 Multiplicity = 1

                         Standard orientation:
 ---------------------------------------------------------------------
 Center     Atomic      Atomic             Coordinates (Angstroms)
 Number     Number       Type             X           Y           Z
 ---------------------------------------------------------------------
      1         12           0       22.019403   -0.676792    0.395776
      2          6           0       22.001177    2.290888   -1.437437
      3          6           0       22.310526    1.063624    3.217668
      4          6           0       23.343536   -3.478119    1.839498
      5          6           0       21.765132   -2.455423   -2.588866
      6          7           0       21.975226    1.472890    0.853317
      7          6           0       21.946257    2.457778   -0.036259
      8          6           0       21.802289    3.826447    0.722534
      9          6           0       22.017270    3.405618    2.196105
     10          6           0       22.135138    1.886785    2.111580
     11          6           0       23.394303    3.938618    2.835030
     12          6           0       20.407420    4.574609    0.517783
     13          6           0       20.574387    6.045055    0.342241
     14          1           0       19.756424    6.999598    1.198410
     15          7           0       22.701760   -1.130715    2.278734
     16          6           0       22.722405   -0.265512    3.340427
     17          6           0       22.953554   -1.037421    4.569356
     18          6           0       23.254812   -2.363787    4.151608
     19          6           0       23.150655   -2.339696    2.683149
     20          6           0       22.978402   -0.391870    5.991568
     21          6           0       23.687358   -3.583700    5.019663
     22          8           0       23.923603   -4.699357    4.569832
     23          6           0       23.794688   -3.390192    6.485026
     24          7           0       22.507138   -2.609877   -0.248059
     25          6           0       23.116649   -3.622939    0.498217
     26          6           0       23.506958   -4.794995   -0.439793
     27          6           0       22.442392   -4.675626   -1.616771
     28          6           0       22.226940   -3.145074   -1.446169
     29          6           0       24.992773   -4.771463   -0.858297
     30          6           0       21.152902   -5.429573   -1.456236
     31          6           0       20.056581   -4.910361   -0.574129
     32          7           0       21.701550   -0.260908   -1.602135
     33          6           0       21.656809   -1.064083   -2.718178
     34          6           0       21.465326   -0.287932   -3.945481
     35          6           0       21.697567    1.093256   -3.508134
     36          6           0       21.843867    1.018443   -2.068243
     37          6           0       21.357080   -0.810122   -5.285497
     38          6           0       21.836927    2.479475   -3.937425
     39          8           0       21.865364    2.982824   -4.997361
     40          6           0       21.963234    3.328173   -2.567063
     41          6           0       23.088352    4.331968   -2.559166
     42          8           0       24.223473    4.120257   -2.142810
     43          8           0       22.594144    5.555535   -3.010047
     44          6           0       23.528485    6.694982   -3.052120
     45          1           0       22.229838    1.448926    4.236593
     46          1           0       23.786721   -4.328488    2.362634
     47          1           0       21.593488   -3.073842   -3.471940
     48          1           0       22.606344    4.520051    0.475287
     49          1           0       21.257644    3.730084    2.907272
     50          1           0       23.168037    4.889101    3.318662
     51          1           0       24.181949    4.170652    2.118643
     52          1           0       23.713376    3.217174    3.588147
     53          1           0       19.741659    4.426570    1.368210
     54          1           0       19.802278    4.220739   -0.317011
     55          1           0       20.203087    6.213781   -0.668216
     56          1           0       21.584644    6.452161    0.373236
     57          1           0       24.014408   -0.101417    6.163737
     58          1           0       22.571763   -1.065608    6.746156
     59          1           0       22.531807    0.602001    6.036348
     60          1           0       24.224222   -2.484454    6.912804
     61          1           0       24.367889   -4.208091    6.920878
     62          1           0       22.845136   -3.655916    6.950493
     63          1           0       23.280250   -5.678850    0.155758
     64          1           0       22.860754   -4.955334   -2.583477
     65          1           0       25.199435   -4.799914   -1.928166
     66          1           0       25.616969   -5.464291   -0.293520
     67          1           0       25.447919   -3.829792   -0.551886
     68          1           0       21.273716   -6.452571   -1.101948
     69          1           0       20.710317   -5.538579   -2.446460
     70          1           0       19.420895   -4.382888   -1.285083
     71          1           0       20.355880   -4.182380    0.180223
     72          1           0       19.535457   -5.751626   -0.116038
     73          1           0       20.656472   -0.153737   -5.801963
     74          1           0       20.921677   -1.805950   -5.206517
     75          1           0       22.327655   -0.782914   -5.779838
     76          1           0       21.035076    3.888862   -2.456294
     77          1           0       24.401575    6.367379   -3.617116
     78          1           0       23.868505    6.955087   -2.050051
     79          1           0       23.200654    7.645097   -3.474235
     80         12           0      -22.046871   -0.635672   -0.480828
     81          6           0      -23.681217    2.014661    1.137727
     82          6           0      -20.477097    1.485388   -2.520050
     83          6           0      -20.698808   -3.211879   -1.901920
     84          6           0      -24.535788   -2.766951    1.052671
     85          7           0      -22.193365    1.503162   -0.695805
     86          6           0      -22.749829    2.402344    0.125553
     87          6           0      -22.545766    3.813575   -0.361910
     88          6           0      -21.860879    3.590292   -1.769687
     89          6           0      -21.469275    2.128891   -1.666974
     90          6           0      -22.685912    3.909011   -3.058598
     91          6           0      -21.539503    4.609919    0.616201
     92          6           0      -22.059411    6.027610    1.023136
     93          1           0      -21.184515    6.658704    2.236670
     94          7           0      -20.620404   -0.818256   -1.788896
     95          6           0      -20.029527    0.188743   -2.532924
     96          6           0      -18.877014   -0.353350   -3.198440
     97          6           0      -18.847866   -1.798319   -3.031587
     98          6           0      -20.025699   -2.025771   -2.109457
     99          6           0      -18.007634    0.587051   -4.081708
    100          6           0      -17.955449   -2.936608   -3.513047
    101          8           0      -18.042176   -4.133180   -3.182962
    102          6           0      -16.837381   -2.461124   -4.371627
    103          7           0      -22.700301   -2.636837   -0.504280
    104          6           0      -21.893978   -3.485890   -1.221355
    105          6           0      -22.468821   -4.902741   -1.237558
    106          6           0      -23.482012   -4.833431   -0.064936
    107          6           0      -23.647910   -3.328205    0.152954
    108          6           0      -23.003400   -5.252639   -2.682875
    109          6           0      -23.061360   -5.589150    1.266420
    110          6           0      -24.199331   -6.030579    2.200638
    111          7           0      -23.750201   -0.470697    0.861445
    112          6           0      -24.605926   -1.407462    1.356628
    113          6           0      -25.506776   -0.830666    2.329292
    114          6           0      -25.103412    0.517006    2.306928
    115          6           0      -24.084405    0.703922    1.361996
    116          6           0      -26.627469   -1.446535    3.198165
    117          6           0      -25.365195    1.790707    2.916950
    118          8           0      -26.013504    2.133560    3.870751
    119          6           0      -24.536008    2.856926    2.029666
    120          6           0      -23.966285    3.702139    3.082332
    121          8           0      -22.935366    3.514966    3.776754
    122          8           0      -24.802467    4.750494    3.175099
    123          6           0      -24.522543    5.772916    4.184231
    124          1           0      -19.891145    2.176696   -3.129558
    125          1           0      -20.199918   -4.088968   -2.319861
    126          1           0      -25.200164   -3.470205    1.559122
    127          1           0      -23.449720    4.420659   -0.418360
    128          1           0      -20.912800    4.104647   -1.927934
    129          1           0      -22.909762    2.962374   -3.550370
    130          1           0      -22.017724    4.504268   -3.680682
    131          1           0      -23.642719    4.419364   -2.954029
    132          1           0      -20.511204    4.705841    0.265636
    133          1           0      -21.374538    3.958082    1.474175
    134          1           0      -23.099427    5.975771    1.344624
    135          1           0      -21.975266    6.792131    0.251159
    136          1           0      -17.226592    1.009746   -3.451227
    137          1           0      -18.507140    1.517609   -4.354043
    138          1           0      -17.718752    0.217122   -5.065199
    139          1           0      -16.151142   -1.770491   -3.882800
    140          1           0      -17.372432   -2.028570   -5.217917
    141          1           0      -16.234807   -3.266571   -4.792412
    142          1           0      -21.624030   -5.555478   -1.017246
    143          1           0      -24.415094   -5.307262   -0.369664
    144          1           0      -24.093293   -5.255623   -2.690950
    145          1           0      -22.732589   -6.211999   -3.123011
    146          1           0      -22.798827   -4.526942   -3.470307
    147          1           0      -22.547444   -4.809413    1.829215
    148          1           0      -22.409582   -6.457724    1.169824
    149          1           0      -24.180105   -5.497299    3.151969
    150          1           0      -24.284862   -7.082382    2.474346
    151          1           0      -25.112934   -5.676407    1.725217
    152          1           0      -26.956707   -2.338253    2.664737
    153          1           0      -27.451492   -0.744444    3.331982
    154          1           0      -26.160452   -1.731154    4.140968
    155          1           0      -25.228766    3.463510    1.446094
    156          1           0      -24.212069    6.684662    3.674211
    157          1           0      -23.846150    5.413812    4.959154
    158          1           0      -25.464124    6.045206    4.660918
 ---------------------------------------------------------------------

 SCF Done:  E(RCAM-B3LYP) =  -4069.81072009     A.U. after   18 cycles

 Excitation energies and oscillator strengths:

 Excited State   1:      Singlet-A      1.6811 eV  737.53 nm  f=0.3752  <S**2>=0.000
     310 -> 316       -0.17703
     312 -> 313        0.68651
     310 <- 316       -0.10856
 This state for optimization and/or second-order correction.
 Total Energy, E(TD-HF/TD-DFT) =  -4069.74894154
 Copying the excited state density for this state as the 1-particle RhoCI density.

 Excited State   2:      Singlet-A      1.7272 eV  717.85 nm  f=0.3835  <S**2>=0.000
     309 -> 315        0.19744
     311 -> 314        0.68094
     309 <- 315        0.11062

 Excited State   3:      Singlet-A      2.2496 eV  551.13 nm  f=0.0610  <S**2>=0.000
     309 -> 314        0.61700
     311 -> 315       -0.33566

 Excited State   4:      Singlet-A      2.2559 eV  549.59 nm  f=0.1065  <S**2>=0.000
     310 -> 313        0.63269
     312 -> 316        0.30596

 Excited State   5:      Singlet-A      3.1466 eV  394.03 nm  f=0.0000  <S**2>=0.000
     312 -> 314        0.70710

 The electronic state is 1-A.
 Alpha  occ. eigenvalues --  -46.87928 -46.87583 -19.25029 -19.24878 -19.20109
 Alpha  occ. eigenvalues --  -19.19696 -19.19681 -19.19189 -19.19048 -19.18439
 Alpha  occ. eigenvalues --  -14.42608 -14.42201 -14.41740 -14.41431 -14.39468
 Alpha  occ. eigenvalues --  -14.39292 -14.39234 -14.38416 -10.39700 -10.38580
 Alpha  occ. eigenvalues --  -10.36006 -10.35654 -10.35531 -10.34671 -10.31809
 Alpha  occ. eigenvalues --  -10.31723 -10.31341 -10.31203 -10.31016 -10.30798
 Alpha  occ. eigenvalues --  -10.30615 -10.30600 -10.30594 -10.30285 -10.30125
 Alpha  occ. eigenvalues --  -10.30051 -10.30010 -10.29893 -10.29757 -10.29484
 Alpha  occ. eigenvalues --  -10.29478 -10.29396 -10.29240 -10.28788 -10.28733
 Alpha  occ. eigenvalues --  -10.28672 -10.28553 -10.28389 -10.28379 -10.28307
 Alpha  occ. eigenvalues --  -10.28300 -10.28226 -10.27917 -10.27875 -10.27848
 Alpha  occ. eigenvalues --  -10.27753 -10.27746 -10.27723 -10.27690 -10.27675
 Alpha  occ. eigenvalues --  -10.27620 -10.27568 -10.27545 -10.27312 -10.27087
 Alpha  occ. eigenvalues --  -10.26899 -10.26816 -10.26712 -10.26659 -10.26513
 Alpha  occ. eigenvalues --  -10.26443 -10.26269 -10.26129 -10.26095 -10.26074
 Alpha  occ. eigenvalues --  -10.26061 -10.25939 -10.25883 -10.25832 -10.25818
 Alpha  occ. eigenvalues --  -10.25575 -10.25546 -10.25383 -10.25374 -10.24557
 Alpha  occ. eigenvalues --  -10.24450  -3.16630  -3.16426  -1.91534  -1.91311
 Alpha  occ. eigenvalues --   -1.91061  -1.90958  -1.90893  -1.90740  -1.15946
 Alpha  occ. eigenvalues --   -1.15164  -1.12954  -1.10784  -1.10166  -1.09403
 Alpha  occ. eigenvalues --   -1.07461  -1.05560  -1.05202  -1.05189  -1.04314
 Alpha  occ. eigenvalues --   -1.03603  -1.03587  -1.02877  -1.02422  -1.02145
 Alpha  occ. eigenvalues --   -0.92725  -0.91878  -0.89122  -0.89040  -0.88641
 Alpha  occ. eigenvalues --   -0.88272  -0.88058  -0.88028  -0.87459  -0.87191
 Alpha  occ. eigenvalues --   -0.86982  -0.86906  -0.86313  -0.86275  -0.84545
 Alpha  occ. eigenvalues --   -0.84187  -0.83837  -0.83604  -0.82550  -0.82490
 Alpha  occ. eigenvalues --   -0.82281  -0.81873  -0.81279  -0.81007  -0.80373
 Alpha  occ. eigenvalues --   -0.80313  -0.78252  -0.78230  -0.77331  -0.77279
 Alpha  occ. eigenvalues --   -0.76929  -0.76741  -0.75931  -0.75857  -0.75414
 Alpha  occ. eigenvalues --   -0.74872  -0.72798  -0.72254  -0.72143  -0.71476
 Alpha  occ. eigenvalues --   -0.69259  -0.69234  -0.68809  -0.68505  -0.67926
 Alpha  occ. eigenvalues --   -0.67760  -0.67228  -0.66766  -0.66064  -0.65715
 Alpha  occ. eigenvalues --   -0.65557  -0.64873  -0.64623  -0.64456  -0.64246
 Alpha  occ. eigenvalues --   -0.64105  -0.61811  -0.61780  -0.60247  -0.60155
 Alpha  occ. eigenvalues --   -0.59852  -0.59602  -0.59160  -0.58883  -0.58650
 Alpha  occ. eigenvalues --   -0.58110  -0.57987  -0.57774  -0.57240  -0.57166
 Alpha  occ. eigenvalues --   -0.56335  -0.55939  -0.55814  -0.55533  -0.55453
 Alpha  occ. eigenvalues --   -0.55356  -0.54845  -0.54377  -0.54107  -0.53932
 Alpha  occ. eigenvalues --   -0.53576  -0.53445  -0.53387  -0.53226  -0.52973
 Alpha  occ. eigenvalues --   -0.52787  -0.52567  -0.52520  -0.52234  -0.52175
 Alpha  occ. eigenvalues --   -0.51781  -0.51631  -0.51613  -0.51443  -0.51391
 Alpha  occ. eigenvalues --   -0.51246  -0.51038  -0.50741  -0.50413  -0.50400
 Alpha  occ. eigenvalues --   -0.50184  -0.50178  -0.50079  -0.50035  -0.49625
 Alpha  occ. eigenvalues --   -0.49532  -0.49435  -0.49156  -0.49063  -0.48937
 Alpha  occ. eigenvalues --   -0.48613  -0.48496  -0.48324  -0.48125  -0.48033
 Alpha  occ. eigenvalues --   -0.47998  -0.47808  -0.47431  -0.47273  -0.46971
 Alpha  occ. eigenvalues --   -0.46885  -0.46801  -0.46602  -0.46515  -0.46357
 Alpha  occ. eigenvalues --   -0.46286  -0.46105  -0.45920  -0.45756  -0.45727
 Alpha  occ. eigenvalues --   -0.45535  -0.45513  -0.45205  -0.45161  -0.44959
 Alpha  occ. eigenvalues --   -0.44897  -0.44642  -0.44397  -0.44173  -0.44046
 Alpha  occ. eigenvalues --   -0.43744  -0.43737  -0.43572  -0.43489  -0.43333
 Alpha  occ. eigenvalues --   -0.43258  -0.43108  -0.42887  -0.42872  -0.42810
 Alpha  occ. eigenvalues --   -0.42672  -0.42670  -0.42221  -0.42089  -0.41921
 Alpha  occ. eigenvalues --   -0.41890  -0.41583  -0.41536  -0.41373  -0.41356
 Alpha  occ. eigenvalues --   -0.41211  -0.41194  -0.40829  -0.40594  -0.40506
 Alpha  occ. eigenvalues --   -0.40331  -0.40243  -0.39609  -0.39139  -0.38792
 Alpha  occ. eigenvalues --   -0.38672  -0.38075  -0.37855  -0.37686  -0.37394
 Alpha  occ. eigenvalues --   -0.37010  -0.36986  -0.36597  -0.36540  -0.35920
 Alpha  occ. eigenvalues --   -0.35513  -0.35232  -0.34471  -0.34292  -0.33995
 Alpha  occ. eigenvalues --   -0.33947  -0.32984  -0.32816  -0.31738  -0.31415
 Alpha  occ. eigenvalues --   -0.31329  -0.31229  -0.31022  -0.30556  -0.30344
 Alpha  occ. eigenvalues --   -0.30033  -0.29620  -0.29565  -0.24197  -0.23992
 Alpha  occ. eigenvalues --   -0.21128  -0.20787
 Alpha virt. eigenvalues --   -0.08473  -0.08451  -0.02311  -0.01389  -0.00305
 Alpha virt. eigenvalues --    0.00394   0.02392   0.02411   0.02781   0.03134
 Alpha virt. eigenvalues --    0.04555   0.04776   0.05129   0.05572   0.06054

 Mulliken charges:
               1
     1  Mg   0.845338
     2  C    0.027406
     3  C   -0.076848
     4  C   -0.074868
     5  C   -0.103129
     6  N   -0.243955
     7  C   -0.032158
     8  C    0.000719
     9  C   -0.076729
    10  C    0.082383
    11  C    0.038841
    12  C    0.070165
    13  C   -0.093379
    14  H    0.009693
    15  N   -0.370832
    16  C    0.094394
    17  C   -0.139755
    18  C   -0.061993
    19  C    0.101693
    20  C    0.093654
    21  C    0.039061
    22  O   -0.200704
    23  C    0.041863
    24  N   -0.293951
    25  C    0.034439
    26  C    0.001855
    27  C   -0.010234
    28  C    0.025392
    29  C    0.092681
    30  C    0.017544
    31  C    0.022127
    32  N   -0.363047
    33  C    0.153957
    34  C   -0.162547
    35  C   -0.040000
    36  C    0.088742
    37  C    0.123008
    38  C    0.056374
    39  O   -0.102401
    40  C   -0.071459
    41  C    0.218771
    42  O   -0.220133
    43  O   -0.352132
    44  C    0.187112
    45  H   -0.036721
    46  H   -0.006440
    47  H   -0.034624
    48  H    0.020337
    49  H    0.017637
    50  H    0.008624
    51  H    0.029594
    52  H    0.017118
    53  H    0.013830
    54  H    0.012978
    55  H    0.031495
    56  H    0.030123
    57  H    0.034932
    58  H    0.042272
    59  H    0.009182
    60  H    0.038130
    61  H    0.012081
    62  H    0.038800
    63  H   -0.003732
    64  H   -0.003993
    65  H    0.017238
    66  H    0.021816
    67  H    0.010550
    68  H    0.001295
    69  H   -0.002076
    70  H    0.005366
    71  H    0.031872
    72  H    0.016206
    73  H    0.033325
    74  H    0.015301
    75  H    0.051203
    76  H    0.046709
    77  H    0.036671
    78  H    0.023061
    79  H    0.042883
    80  Mg   0.852782
    81  C    0.059606
    82  C   -0.070795
    83  C   -0.057467
    84  C   -0.106729
    85  N   -0.271015
    86  C    0.000280
    87  C   -0.067173
    88  C   -0.030302
    89  C    0.007060
    90  C    0.073756
    91  C    0.057179
    92  C   -0.089398
    93  H    0.003761
    94  N   -0.473318
    95  C    0.175999
    96  C   -0.108106
    97  C   -0.095517
    98  C    0.154263
    99  C    0.089096
   100  C    0.047432
   101  O   -0.209010
   102  C    0.040321
   103  N   -0.291839
   104  C    0.056778
   105  C   -0.031493
   106  C   -0.009893
   107  C    0.037002
   108  C    0.062903
   109  C    0.033913
   110  C   -0.009100
   111  N   -0.270811
   112  C    0.124389
   113  C   -0.199720
   114  C    0.032769
   115  C    0.059057
   116  C    0.139561
   117  C    0.025845
   118  O   -0.148468
   119  C   -0.069267
   120  C    0.203346
   121  O   -0.256631
   122  O   -0.319706
   123  C    0.175290
   124  H   -0.039463
   125  H    0.000573
   126  H   -0.042873
   127  H    0.011946
   128  H    0.003432
   129  H    0.020786
   130  H    0.015874
   131  H    0.020567
   132  H    0.007587
   133  H    0.035324
   134  H    0.036307
   135  H    0.033631
   136  H    0.029948
   137  H    0.006236
   138  H    0.032733
   139  H    0.052567
   140  H    0.030750
   141  H    0.020733
   142  H    0.015893
   143  H    0.001413
   144  H   -0.000316
   145  H    0.021560
   146  H    0.019824
   147  H    0.012299
   148  H    0.017924
   149  H    0.013127
   150  H    0.020650
   151  H    0.010262
   152  H    0.013437
   153  H    0.043217
   154  H    0.041343
   155  H    0.043569
   156  H    0.032025
   157  H    0.059356
   158  H    0.031133
 Sum of Mulliken charges =  -0.00000

 Dipole moment (field-independent basis, Debye):
    X=             -1.3031    Y=              1.8540    Z=             -1.7507  Tot=              2.8637
 Quadrupole moment (field-independent basis, Debye-Ang):
   XX=           -619.5002   YY=           -482.5775   ZZ=           -508.9789
   XY=             11.5306   XZ=            165.4571   YZ=              4.8734

 Normal termination of Gaussian 16 at Wed Sep  1 00:14:25 2021.
