 Gaussian 16, Revision A.03,
 Gaussian 16:  ES64L-G16RevA.03 25-Dec-2016

 -----------------------------------
 #p cam-b3lyp/Def2SVP td=(nstates=5)
 -----------------------------------

 --------------------------------
 TDDFT excited states in gaussian
 --------------------------------
 Symbolic Z-matrix:
 Charge =  0 Multiplicity = 1

                         Standard orientation:
 ---------------------------------------------------------------------
 Center     Atomic      Atomic             Coordinates (Angstroms)
 Number     Number       Type             X           Y           Z
 ---------------------------------------------------------------------
      1         12           0       24.745411   -0.641701    0.333425
      2          6           0       24.495802    2.210445   -1.496454
      3          6           0       24.647354    1.027635    3.351169
      4          6           0       25.205868   -3.622225    1.954482
      5          6           0       25.300747   -2.456317   -2.747103
      6          7           0       24.799606    1.390249    0.834915
      7          6           0       24.425227    2.424263   -0.087332
      8          6           0       24.050770    3.660016    0.628516
      9          6           0       24.519228    3.316013    2.113243
     10          6           0       24.682476    1.812851    2.151263
     11          6           0       25.889723    4.050234    2.531399
     12          6           0       22.581117    4.128786    0.398403
     13          6           0       22.411731    5.590187    0.133669
     14          1           0       23.321376    6.560613    0.985552
     15          7           0       24.832169   -1.226225    2.378755
     16          6           0       24.782640   -0.347276    3.419601
     17          6           0       24.854973   -1.104062    4.622215
     18          6           0       24.931992   -2.509404    4.275369
     19          6           0       24.921399   -2.545978    2.774565
     20          6           0       24.937275   -0.434512    6.011439
     21          6           0       24.968882   -3.764304    5.090359
     22          8           0       25.141548   -4.926132    4.705128
     23          6           0       24.703072   -3.569184    6.631041
     24          7           0       25.306996   -2.784932   -0.301824
     25          6           0       25.324198   -3.785612    0.543074
     26          6           0       25.342718   -5.141463   -0.159752
     27          6           0       25.372647   -4.746051   -1.663796
     28          6           0       25.342547   -3.221049   -1.583343
     29          6           0       26.591063   -6.071661    0.261249
     30          6           0       24.081831   -5.346659   -2.376737
     31          6           0       22.663721   -4.831987   -2.026610
     32          7           0       25.037247   -0.207563   -1.705584
     33          6           0       25.190974   -1.041853   -2.796703
     34          6           0       25.079664   -0.184480   -3.994329
     35          6           0       24.797726    1.090291   -3.604444
     36          6           0       24.785709    1.015049   -2.164358
     37          6           0       25.396481   -0.637803   -5.377771
     38          6           0       24.528770    2.465173   -4.025003
     39          8           0       24.476294    2.970573   -5.133718
     40          6           0       24.334157    3.229844   -2.642701
     41          6           0       25.410562    4.236807   -2.547627
     42          8           0       26.638472    4.053712   -2.616070
     43          8           0       24.738611    5.430064   -2.375948
     44          6           0       25.604576    6.575832   -2.068430
     45          1           0       24.566794    1.512643    4.326071
     46          1           0       25.229114   -4.548579    2.533353
     47          1           0       25.388336   -2.997857   -3.690642
     48          1           0       24.691992    4.427387    0.192988
     49          1           0       23.717722    3.606633    2.791701
     50          1           0       26.173250    4.861224    1.860572
     51          1           0       26.681429    3.317325    2.376642
     52          1           0       25.734762    4.291491    3.582190
     53          1           0       21.978711    3.890848    1.275144
     54          1           0       22.285826    3.559209   -0.482667
     55          1           0       21.415022    5.955121    0.378514
     56          1           0       22.499837    6.002470   -0.871592
     57          1           0       24.002009   -0.032967    6.401317
     58          1           0       25.712271    0.316580    5.859562
     59          1           0       25.179565   -1.137068    6.808529
     60          1           0       25.581704   -3.111271    7.085447
     61          1           0       24.323640   -4.510705    7.027698
     62          1           0       23.838414   -2.941981    6.848992
     63          1           0       24.406320   -5.655005    0.056968
     64          1           0       26.247287   -5.119521   -2.196441
     65          1           0       26.177958   -6.849691    0.904213
     66          1           0       27.316372   -5.491042    0.832176
     67          1           0       27.141358   -6.616484   -0.504790
     68          1           0       24.000879   -6.433059   -2.344808
     69          1           0       24.248099   -5.024250   -3.405118
     70          1           0       22.342422   -4.375575   -2.962958
     71          1           0       22.662417   -4.143126   -1.182808
     72          1           0       21.964043   -5.619762   -1.747490
     73          1           0       24.715263   -0.040973   -5.983484
     74          1           0       25.242566   -1.707668   -5.519716
     75          1           0       26.360365   -0.206717   -5.645141
     76          1           0       23.389372    3.730301   -2.853236
     77          1           0       24.898226    7.406168   -2.091939
     78          1           0       26.277058    6.676758   -2.920304
     79          1           0       26.234651    6.470804   -1.184970
     80         12           0      -25.367579   -0.500544   -0.260035
     81          6           0      -23.120007    2.233445   -0.276024
     82          6           0      -27.209614    1.151113    2.035221
     83          6           0      -27.336271   -3.115294   -0.184912
     84          6           0      -22.892442   -2.333339   -2.099166
     85          7           0      -25.149337    1.464956    0.877101
     86          6           0      -24.286639    2.472886    0.480108
     87          6           0      -24.756526    3.726429    1.135585
     88          6           0      -25.670949    3.255703    2.266985
     89          6           0      -26.088070    1.867251    1.720805
     90          6           0      -24.868116    3.103872    3.613132
     91          6           0      -25.494010    4.815537    0.185560
     92          6           0      -25.179455    6.335733    0.333599
     93          1           0      -25.230485    6.924774    1.773004
     94          7           0      -27.059131   -0.899476    0.824658
     95          6           0      -27.637737   -0.100755    1.672205
     96          6           0      -28.805882   -0.796971    2.238784
     97          6           0      -29.014499   -1.975461    1.460078
     98          6           0      -27.760376   -2.062400    0.659288
     99          6           0      -29.726979   -0.357700    3.434622
    100          6           0      -30.174405   -2.969440    1.410182
    101          8           0      -30.161953   -4.029271    0.755383
    102          6           0      -31.282725   -2.784153    2.334170
    103          7           0      -25.023888   -2.548802   -0.924979
    104          6           0      -26.100004   -3.430160   -0.862048
    105          6           0      -25.765211   -4.706658   -1.726176
    106          6           0      -24.424728   -4.333516   -2.406944
    107          6           0      -24.094263   -2.962803   -1.812101
    108          6           0      -25.804551   -6.003277   -0.916976
    109          6           0      -24.395823   -4.419531   -3.953743
    110          6           0      -23.115508   -4.974236   -4.620715
    111          7           0      -23.407729   -0.182656   -1.032217
    112          6           0      -22.514590   -1.013735   -1.701027
    113          6           0      -21.386818   -0.225128   -2.127864
    114          6           0      -21.557841    1.030580   -1.543147
    115          6           0      -22.816533    1.044324   -0.881233
    116          6           0      -20.342492   -0.629630   -2.974053
    117          6           0      -21.004002    2.386353   -1.412233
    118          8           0      -20.003020    2.920373   -1.863052
    119          6           0      -22.032043    3.231743   -0.591361
    120          6           0      -21.295954    3.791921    0.612637
    121          8           0      -21.026458    3.345823    1.704871
    122          8           0      -21.056740    5.076727    0.218667
    123          6           0      -20.651441    6.052814    1.258124
    124          1           0      -27.862143    1.708679    2.710902
    125          1           0      -28.114350   -3.873696   -0.293286
    126          1           0      -22.238097   -2.796144   -2.840231
    127          1           0      -23.983936    4.346862    1.590437
    128          1           0      -26.596909    3.827280    2.325332
    129          1           0      -25.456263    3.318239    4.504812
    130          1           0      -24.058564    3.827006    3.715131
    131          1           0      -24.577649    2.054405    3.647458
    132          1           0      -26.569028    4.639507    0.204653
    133          1           0      -25.281658    4.588687   -0.859872
    134          1           0      -26.017152    6.793722   -0.193590
    135          1           0      -24.202080    6.403765   -0.144175
    136          1           0      -30.743263   -0.074375    3.161711
    137          1           0      -29.236264    0.488380    3.916531
    138          1           0      -29.950292   -1.139551    4.160577
    139          1           0      -31.705289   -1.783445    2.240255
    140          1           0      -30.961377   -2.949351    3.362619
    141          1           0      -32.093925   -3.421148    1.982976
    142          1           0      -26.491297   -4.714501   -2.539234
    143          1           0      -23.606284   -4.917508   -1.986435
    144          1           0      -24.816451   -6.189441   -0.494853
    145          1           0      -26.006612   -6.898443   -1.504288
    146          1           0      -26.392706   -5.839419   -0.014625
    147          1           0      -24.670646   -3.491777   -4.455345
    148          1           0      -25.208340   -5.046314   -4.323698
    149          1           0      -22.561168   -4.081740   -4.911356
    150          1           0      -23.467811   -5.463185   -5.529531
    151          1           0      -22.567561   -5.602399   -3.918922
    152          1           0      -19.383879   -0.112214   -2.943488
    153          1           0      -20.747033   -0.636725   -3.986667
    154          1           0      -20.102864   -1.646775   -2.666178
    155          1           0      -22.438815    4.029851   -1.212104
    156          1           0      -21.234416    6.946246    1.036324
    157          1           0      -19.601031    6.342753    1.263693
    158          1           0      -20.937043    5.686487    2.243847
 ---------------------------------------------------------------------

 SCF Done:  E(RCAM-B3LYP) =  -4069.80041755     A.U. after   19 cycles

 Excitation energies and oscillator strengths:

 Excited State   1:      Singlet-A      1.6991 eV  729.70 nm  f=0.3797  <S**2>=0.000
     309 -> 315       -0.18621
     312 -> 313        0.68410
     309 <- 315       -0.10903
 This state for optimization and/or second-order correction.
 Total Energy, E(TD-HF/TD-DFT) =  -4069.73797672
 Copying the excited state density for this state as the 1-particle RhoCI density.

 Excited State   2:      Singlet-A      1.7330 eV  715.43 nm  f=0.3866  <S**2>=0.000
     310 -> 316       -0.19057
     311 -> 314        0.68153
     310 <- 316       -0.10758

 Excited State   3:      Singlet-A      2.2617 eV  548.19 nm  f=0.0680  <S**2>=0.000
     310 -> 314        0.62174
     311 -> 316        0.32225

 Excited State   4:      Singlet-A      2.2666 eV  547.01 nm  f=0.0459  <S**2>=0.000
     309 -> 313        0.60927
     312 -> 315        0.34927

 Excited State   5:      Singlet-A      3.2131 eV  385.87 nm  f=0.0000  <S**2>=0.000
     311 -> 313        0.70711

 The electronic state is 1-A.
 Alpha  occ. eigenvalues --  -46.89381 -46.89252 -19.25653 -19.24372 -19.20257
 Alpha  occ. eigenvalues --  -19.20044 -19.19554 -19.19500 -19.19268 -19.18694
 Alpha  occ. eigenvalues --  -14.42293 -14.42194 -14.41789 -14.41437 -14.39870
 Alpha  occ. eigenvalues --  -14.39503 -14.39483 -14.38967 -10.39521 -10.39246
 Alpha  occ. eigenvalues --  -10.35707 -10.35535 -10.35409 -10.34828 -10.31982
 Alpha  occ. eigenvalues --  -10.31833 -10.31775 -10.31710 -10.31467 -10.30871
 Alpha  occ. eigenvalues --  -10.30825 -10.30762 -10.30352 -10.30336 -10.30178
 Alpha  occ. eigenvalues --  -10.30054 -10.29999 -10.29896 -10.29878 -10.29591
 Alpha  occ. eigenvalues --  -10.29555 -10.29465 -10.29237 -10.29084 -10.28818
 Alpha  occ. eigenvalues --  -10.28335 -10.28333 -10.28224 -10.28131 -10.27931
 Alpha  occ. eigenvalues --  -10.27908 -10.27888 -10.27841 -10.27758 -10.27723
 Alpha  occ. eigenvalues --  -10.27678 -10.27594 -10.27585 -10.27557 -10.27544
 Alpha  occ. eigenvalues --  -10.27495 -10.27493 -10.27416 -10.27379 -10.27366
 Alpha  occ. eigenvalues --  -10.27351 -10.27326 -10.27194 -10.26701 -10.26589
 Alpha  occ. eigenvalues --  -10.26552 -10.26491 -10.26383 -10.26228 -10.26217
 Alpha  occ. eigenvalues --  -10.26060 -10.25849 -10.25843 -10.25815 -10.25725
 Alpha  occ. eigenvalues --  -10.25638 -10.25571 -10.25491 -10.25269 -10.24808
 Alpha  occ. eigenvalues --  -10.24732  -3.17769  -3.17656  -1.92666  -1.92559
 Alpha  occ. eigenvalues --   -1.92226  -1.92100  -1.92061  -1.91957  -1.16128
 Alpha  occ. eigenvalues --   -1.15964  -1.10199  -1.09607  -1.09603  -1.09374
 Alpha  occ. eigenvalues --   -1.07773  -1.07473  -1.05164  -1.05128  -1.03951
 Alpha  occ. eigenvalues --   -1.03779  -1.03066  -1.02894  -1.02080  -1.01715
 Alpha  occ. eigenvalues --   -0.92778  -0.92378  -0.89101  -0.88891  -0.88795
 Alpha  occ. eigenvalues --   -0.88488  -0.88008  -0.87996  -0.87573  -0.87279
 Alpha  occ. eigenvalues --   -0.87137  -0.86911  -0.86895  -0.86250  -0.84650
 Alpha  occ. eigenvalues --   -0.84243  -0.83603  -0.83375  -0.82743  -0.82478
 Alpha  occ. eigenvalues --   -0.82419  -0.81539  -0.81513  -0.81210  -0.80607
 Alpha  occ. eigenvalues --   -0.79968  -0.78397  -0.78087  -0.77461  -0.77360
 Alpha  occ. eigenvalues --   -0.77204  -0.77044  -0.75872  -0.75806  -0.75128
 Alpha  occ. eigenvalues --   -0.74978  -0.72519  -0.72469  -0.72180  -0.71828
 Alpha  occ. eigenvalues --   -0.69870  -0.69264  -0.68908  -0.68763  -0.68352
 Alpha  occ. eigenvalues --   -0.67709  -0.67435  -0.67376  -0.65487  -0.65320
 Alpha  occ. eigenvalues --   -0.65236  -0.65059  -0.65002  -0.64707  -0.64394
 Alpha  occ. eigenvalues --   -0.64339  -0.62539  -0.61950  -0.60492  -0.60303
 Alpha  occ. eigenvalues --   -0.59615  -0.59421  -0.59245  -0.58919  -0.58779
 Alpha  occ. eigenvalues --   -0.58330  -0.57976  -0.57955  -0.57511  -0.57486
 Alpha  occ. eigenvalues --   -0.56163  -0.55927  -0.55908  -0.55540  -0.55214
 Alpha  occ. eigenvalues --   -0.55068  -0.54880  -0.54475  -0.54423  -0.53710
 Alpha  occ. eigenvalues --   -0.53578  -0.53542  -0.53256  -0.53235  -0.53193
 Alpha  occ. eigenvalues --   -0.53155  -0.52959  -0.52439  -0.52396  -0.52287
 Alpha  occ. eigenvalues --   -0.52132  -0.52131  -0.51945  -0.51695  -0.51580
 Alpha  occ. eigenvalues --   -0.51504  -0.51215  -0.51057  -0.50891  -0.50810
 Alpha  occ. eigenvalues --   -0.50425  -0.49988  -0.49858  -0.49654  -0.49618
 Alpha  occ. eigenvalues --   -0.49369  -0.49336  -0.48994  -0.48920  -0.48848
 Alpha  occ. eigenvalues --   -0.48586  -0.48521  -0.48475  -0.48188  -0.48121
 Alpha  occ. eigenvalues --   -0.47699  -0.47672  -0.47401  -0.47384  -0.47240
 Alpha  occ. eigenvalues --   -0.47142  -0.46904  -0.46847  -0.46747  -0.46659
 Alpha  occ. eigenvalues --   -0.46266  -0.46141  -0.45931  -0.45877  -0.45618
 Alpha  occ. eigenvalues --   -0.45560  -0.45189  -0.45043  -0.44938  -0.44774
 Alpha  occ. eigenvalues --   -0.44702  -0.44535  -0.44363  -0.44057  -0.43911
 Alpha  occ. eigenvalues --   -0.43858  -0.43694  -0.43463  -0.43220  -0.43029
 Alpha  occ. eigenvalues --   -0.42989  -0.42977  -0.42909  -0.42771  -0.42732
 Alpha  occ. eigenvalues --   -0.42315  -0.42308  -0.42172  -0.42139  -0.42105
 Alpha  occ. eigenvalues --   -0.41937  -0.41926  -0.41689  -0.41551  -0.41537
 Alpha  occ. eigenvalues --   -0.41250  -0.40878  -0.40743  -0.40563  -0.40541
 Alpha  occ. eigenvalues --   -0.40258  -0.39865  -0.39793  -0.39622  -0.39517
 Alpha  occ. eigenvalues --   -0.38785  -0.37872  -0.37675  -0.37495  -0.37405
 Alpha  occ. eigenvalues --   -0.37146  -0.36724  -0.36535  -0.36462  -0.36395
 Alpha  occ. eigenvalues --   -0.36260  -0.35940  -0.34676  -0.34668  -0.34209
 Alpha  occ. eigenvalues --   -0.33910  -0.33479  -0.33113  -0.31698  -0.31220
 Alpha  occ. eigenvalues --   -0.31181  -0.31111  -0.30984  -0.30570  -0.30474
 Alpha  occ. eigenvalues --   -0.30379  -0.29882  -0.29269  -0.24411  -0.23980
 Alpha  occ. eigenvalues --   -0.20981  -0.20955
 Alpha virt. eigenvalues --   -0.08486  -0.08289  -0.02356  -0.02070  -0.00242
 Alpha virt. eigenvalues --   -0.00148   0.01742   0.01951   0.02172   0.02309
 Alpha virt. eigenvalues --    0.04734   0.04940   0.05185   0.05441   0.05769

 Mulliken charges:
               1
     1  Mg   0.798430
     2  C    0.018705
     3  C   -0.098306
     4  C   -0.026596
     5  C   -0.072664
     6  N   -0.371562
     7  C   -0.042102
     8  C   -0.004777
     9  C   -0.083344
    10  C    0.109739
    11  C    0.079490
    12  C    0.115787
    13  C   -0.087214
    14  H   -0.012896
    15  N   -0.377607
    16  C    0.154373
    17  C   -0.133054
    18  C   -0.038228
    19  C    0.104476
    20  C    0.104471
    21  C    0.019112
    22  O   -0.205640
    23  C    0.005660
    24  N   -0.192990
    25  C   -0.005873
    26  C   -0.021510
    27  C    0.004532
    28  C    0.005365
    29  C    0.043644
    30  C   -0.019994
    31  C   -0.000267
    32  N   -0.317254
    33  C    0.124281
    34  C   -0.222826
    35  C    0.035497
    36  C    0.083070
    37  C    0.127709
    38  C    0.060059
    39  O   -0.156784
    40  C   -0.043865
    41  C    0.209640
    42  O   -0.230310
    43  O   -0.341656
    44  C    0.182870
    45  H   -0.025408
    46  H   -0.002703
    47  H   -0.021292
    48  H    0.011619
    49  H    0.000568
    50  H    0.022059
    51  H    0.023886
    52  H    0.028383
    53  H    0.014435
    54  H    0.017234
    55  H    0.020382
    56  H    0.040253
    57  H    0.031553
    58  H    0.040595
    59  H   -0.006187
    60  H    0.059077
    61  H    0.025851
    62  H    0.020807
    63  H    0.023738
    64  H    0.011257
    65  H    0.021392
    66  H    0.027435
    67  H    0.019019
    68  H    0.016323
    69  H   -0.003153
    70  H    0.022487
    71  H    0.020510
    72  H    0.015735
    73  H    0.023489
    74  H    0.018837
    75  H    0.042576
    76  H    0.039264
    77  H    0.040919
    78  H    0.037723
    79  H    0.041746
    80  Mg   0.808059
    81  C   -0.037969
    82  C   -0.089811
    83  C   -0.052989
    84  C   -0.086835
    85  N   -0.255076
    86  C    0.011426
    87  C   -0.052140
    88  C   -0.029244
    89  C   -0.033310
    90  C    0.087635
    91  C    0.015885
    92  C   -0.056949
    93  H    0.015476
    94  N   -0.338754
    95  C    0.178116
    96  C   -0.150800
    97  C   -0.029492
    98  C    0.090539
    99  C    0.102825
   100  C    0.020442
   101  O   -0.219857
   102  C    0.059544
   103  N   -0.286766
   104  C    0.009224
   105  C   -0.007538
   106  C   -0.009749
   107  C    0.041931
   108  C    0.096747
   109  C    0.007917
   110  C    0.017125
   111  N   -0.353013
   112  C    0.116920
   113  C   -0.178618
   114  C    0.026941
   115  C    0.138496
   116  C    0.109215
   117  C    0.030110
   118  O   -0.162871
   119  C   -0.011625
   120  C    0.215717
   121  O   -0.195426
   122  O   -0.342977
   123  C    0.168216
   124  H   -0.039312
   125  H   -0.000864
   126  H   -0.036918
   127  H    0.001984
   128  H   -0.005748
   129  H    0.006476
   130  H    0.024707
   131  H    0.035951
   132  H   -0.001559
   133  H   -0.000258
   134  H    0.042189
   135  H    0.049204
   136  H    0.022009
   137  H    0.018327
   138  H    0.019683
   139  H    0.017027
   140  H    0.053763
   141  H    0.028167
   142  H    0.011554
   143  H    0.009116
   144  H   -0.005887
   145  H    0.023819
   146  H    0.026165
   147  H   -0.000013
   148  H   -0.001180
   149  H    0.023404
   150  H    0.015949
   151  H    0.024078
   152  H    0.034988
   153  H    0.030455
   154  H    0.016856
   155  H    0.051185
   156  H    0.029867
   157  H    0.045916
   158  H    0.042207
 Sum of Mulliken charges =  -0.00000

 Dipole moment (field-independent basis, Debye):
    X=             -6.9880    Y=              1.6748    Z=              3.4684  Tot=              7.9792
 Quadrupole moment (field-independent basis, Debye-Ang):
   XX=           -454.3355   YY=           -487.7227   ZZ=           -506.4329
   XY=            -35.7250   XZ=             78.2644   YZ=             50.6792

 Normal termination of Gaussian 16 at Tue Sep 14 16:21:15 2021.
