 Gaussian 16, Revision A.03,
 Gaussian 16:  ES64L-G16RevA.03 25-Dec-2016

 -----------------------------------
 #p cam-b3lyp/Def2SVP td=(nstates=5)
 -----------------------------------

 --------------------------------
 TDDFT excited states in gaussian
 --------------------------------
 Symbolic Z-matrix:
 Charge =  0 Multiplicity = 1

                         Standard orientation:
 ---------------------------------------------------------------------
 Center     Atomic      Atomic             Coordinates (Angstroms)
 Number     Number       Type             X           Y           Z
 ---------------------------------------------------------------------
      1         12           0       20.357879   -0.754636    0.189914
      2          6           0       19.664630    2.318569   -1.192989
      3          6           0       21.474656    0.904155    3.063902
      4          6           0       21.154515   -3.722793    1.586267
      5          6           0       19.614589   -2.271294   -2.753642
      6          7           0       20.784763    1.419328    0.733606
      7          6           0       20.175692    2.489055    0.065789
      8          6           0       20.161121    3.772167    0.919969
      9          6           0       20.860972    3.255973    2.230848
     10          6           0       21.030087    1.760668    2.068216
     11          6           0       22.181141    3.959098    2.520181
     12          6           0       18.796738    4.488519    1.218900
     13          6           0       18.569314    5.953746    0.556275
     14          1           0       18.330417    7.018023    1.631793
     15          7           0       21.273516   -1.329802    1.978693
     16          6           0       21.534256   -0.500250    3.081328
     17          6           0       21.856163   -1.286558    4.276769
     18          6           0       21.855449   -2.727174    3.865587
     19          6           0       21.353143   -2.679282    2.434561
     20          6           0       22.166227   -0.661842    5.619211
     21          6           0       22.181573   -3.940498    4.600831
     22          8           0       22.202014   -5.030655    4.010564
     23          6           0       22.573294   -3.940435    6.068096
     24          7           0       20.447201   -2.626482   -0.524438
     25          6           0       20.679660   -3.767376    0.265824
     26          6           0       20.419323   -5.148531   -0.460595
     27          6           0       19.943558   -4.591517   -1.900008
     28          6           0       19.989726   -3.059489   -1.702000
     29          6           0       21.702182   -6.114650   -0.538899
     30          6           0       18.520951   -5.124022   -2.286649
     31          6           0       18.267378   -5.471553   -3.720136
     32          7           0       19.848976   -0.072611   -1.671323
     33          6           0       19.514247   -0.835624   -2.793687
     34          6           0       18.986240   -0.013785   -3.828483
     35          6           0       18.937210    1.276978   -3.183100
     36          6           0       19.543899    1.157905   -1.926313
     37          6           0       18.472574   -0.345805   -5.166364
     38          6           0       18.659352    2.659275   -3.418351
     39          8           0       18.167316    3.306473   -4.349285
     40          6           0       19.272990    3.415830   -2.154211
     41          6           0       20.379846    4.295494   -2.614624
     42          8           0       21.530506    4.098576   -2.578424
     43          8           0       19.876242    5.529145   -3.020487
     44          6           0       20.810704    6.631916   -2.932081
     45          1           0       21.737181    1.423613    3.987893
     46          1           0       21.307590   -4.743540    1.942594
     47          1           0       19.232855   -2.766827   -3.648686
     48          1           0       20.820835    4.504457    0.455779
     49          1           0       20.274514    3.488784    3.120083
     50          1           0       22.989655    3.233777    2.432993
     51          1           0       22.063306    4.266478    3.558581
     52          1           0       22.375077    4.862521    1.942368
     53          1           0       18.700769    4.582997    2.300838
     54          1           0       17.954180    3.905569    0.846660
     55          1           0       17.633118    5.814417    0.015406
     56          1           0       19.418629    6.223656   -0.070956
     57          1           0       23.160916   -0.222439    5.534630
     58          1           0       22.173635   -1.455563    6.364657
     59          1           0       21.519895    0.180649    5.866253
     60          1           0       23.061044   -4.900552    6.237788
     61          1           0       21.734306   -3.789653    6.748211
     62          1           0       23.382870   -3.276104    6.369695
     63          1           0       19.550769   -5.638105   -0.021297
     64          1           0       20.561736   -4.905224   -2.741474
     65          1           0       21.704992   -6.602259   -1.513972
     66          1           0       21.707486   -6.977209    0.126372
     67          1           0       22.643608   -5.586848   -0.385153
     68          1           0       17.704052   -4.481522   -1.958464
     69          1           0       18.294762   -6.083478   -1.821876
     70          1           0       17.545820   -4.727533   -4.057233
     71          1           0       17.714993   -6.374184   -3.981360
     72          1           0       19.194679   -5.391324   -4.288332
     73          1           0       18.100537   -1.370514   -5.145901
     74          1           0       19.354776   -0.301498   -5.804885
     75          1           0       17.807303    0.454075   -5.492044
     76          1           0       18.509459    4.033716   -1.682289
     77          1           0       21.460459    6.491355   -3.795216
     78          1           0       21.366821    6.470085   -2.008832
     79          1           0       20.303893    7.594569   -3.005315
     80         12           0      -20.870627   -0.439940   -0.216224
     81          6           0      -18.434996    2.000893    0.545526
     82          6           0      -23.333316    1.742288    0.706382
     83          6           0      -22.986273   -2.967111   -0.303021
     84          6           0      -18.221700   -2.755067   -0.673637
     85          7           0      -20.851911    1.685165    0.432236
     86          6           0      -19.781496    2.424818    0.645059
     87          6           0      -20.217246    3.875822    0.740492
     88          6           0      -21.712738    3.770834    1.230650
     89          6           0      -22.019277    2.294967    0.776746
     90          6           0      -21.839173    4.101848    2.766291
     91          6           0      -20.180263    4.598783   -0.630430
     92          6           0      -20.118113    6.188290   -0.571198
     93          1           0      -20.131515    6.950620    0.756519
     94          7           0      -22.869422   -0.547485   -0.055190
     95          6           0      -23.786748    0.485209    0.267598
     96          6           0      -25.157836   -0.069247    0.179226
     97          6           0      -25.041562   -1.489015   -0.038867
     98          6           0      -23.594632   -1.773571   -0.152956
     99          6           0      -26.392965    0.750865    0.305654
    100          6           0      -26.108468   -2.641551   -0.194735
    101          8           0      -25.827357   -3.814837   -0.474741
    102          6           0      -27.537877   -2.338041    0.149369
    103          7           0      -20.630048   -2.611185   -0.344623
    104          6           0      -21.654306   -3.419428   -0.413854
    105          6           0      -21.315652   -4.867276   -0.633316
    106          6           0      -19.751426   -4.823213   -0.749774
    107          6           0      -19.494973   -3.284335   -0.677376
    108          6           0      -21.951477   -5.768276    0.429432
    109          6           0      -19.190940   -5.414991   -2.036940
    110          6           0      -17.876757   -6.265634   -1.908334
    111          7           0      -18.701018   -0.448180   -0.178940
    112          6           0      -17.769264   -1.473755   -0.432683
    113          6           0      -16.465374   -0.906216   -0.469081
    114          6           0      -16.622978    0.407743    0.076329
    115          6           0      -17.969467    0.647661    0.183490
    116          6           0      -15.234897   -1.571451   -1.015734
    117          6           0      -16.015959    1.714269    0.426983
    118          8           0      -14.851298    2.054586    0.441440
    119          6           0      -17.183275    2.663217    0.978940
    120          6           0      -16.884410    4.096054    0.681026
    121          8           0      -16.753710    4.588936   -0.400479
    122          8           0      -16.665449    4.829325    1.862221
    123          6           0      -15.725098    5.966286    1.769986
    124          1           0      -24.149333    2.306521    1.163619
    125          1           0      -23.607403   -3.844476   -0.491886
    126          1           0      -17.433056   -3.477283   -0.895107
    127          1           0      -19.442548    4.319740    1.365608
    128          1           0      -22.362246    4.457538    0.686766
    129          1           0      -20.858464    4.321684    3.186841
    130          1           0      -22.112419    3.143721    3.208419
    131          1           0      -22.477134    4.954612    2.998793
    132          1           0      -21.114158    4.304983   -1.111360
    133          1           0      -19.336906    4.187810   -1.185248
    134          1           0      -20.961247    6.514637   -1.181970
    135          1           0      -19.220555    6.449166   -1.132467
    136          1           0      -26.312477    1.837278    0.299793
    137          1           0      -26.918066    0.566414    1.242438
    138          1           0      -26.977986    0.469982   -0.570460
    139          1           0      -28.117909   -1.931728   -0.679091
    140          1           0      -27.373705   -1.636191    0.967946
    141          1           0      -27.955970   -3.267962    0.533810
    142          1           0      -21.768199   -5.054564   -1.606998
    143          1           0      -19.232582   -5.319632    0.069347
    144          1           0      -22.155320   -5.262076    1.373497
    145          1           0      -21.203185   -6.531856    0.638113
    146          1           0      -22.882518   -6.224553    0.092443
    147          1           0      -18.971954   -4.634378   -2.765296
    148          1           0      -20.049411   -5.908927   -2.491838
    149          1           0      -17.456626   -6.202015   -0.904715
    150          1           0      -17.183552   -5.796564   -2.606264
    151          1           0      -17.908179   -7.324891   -2.165566
    152          1           0      -15.223940   -2.558495   -0.553179
    153          1           0      -14.299593   -1.067088   -0.772305
    154          1           0      -15.341335   -1.722844   -2.090381
    155          1           0      -17.135235    2.670581    2.067387
    156          1           0      -16.288138    6.879641    1.962568
    157          1           0      -15.221958    6.010884    0.803458
    158          1           0      -14.994463    5.795407    2.560561
 ---------------------------------------------------------------------

 SCF Done:  E(RCAM-B3LYP) =  -4069.78784658     A.U. after   19 cycles

 Excitation energies and oscillator strengths:

 Excited State   1:      Singlet-A      1.6720 eV  741.54 nm  f=0.4093  <S**2>=0.000
     309 -> 315        0.15726
     311 -> 313        0.68850
 This state for optimization and/or second-order correction.
 Total Energy, E(TD-HF/TD-DFT) =  -4069.72640264
 Copying the excited state density for this state as the 1-particle RhoCI density.

 Excited State   2:      Singlet-A      1.7950 eV  690.74 nm  f=0.3730  <S**2>=0.000
     310 -> 316       -0.18879
     312 -> 314        0.68031
     310 <- 316       -0.10304

 Excited State   3:      Singlet-A      2.1693 eV  571.55 nm  f=0.0974  <S**2>=0.000
     310 -> 314        0.64307
     312 -> 316        0.27287

 Excited State   4:      Singlet-A      2.1912 eV  565.82 nm  f=0.1274  <S**2>=0.000
     309 -> 313        0.64542
     311 -> 315       -0.25762

 Excited State   5:      Singlet-A      3.0528 eV  406.13 nm  f=0.0000  <S**2>=0.000
     312 -> 313        0.70710

 The electronic state is 1-A.
 Alpha  occ. eigenvalues --  -46.88537 -46.87904 -19.23262 -19.22145 -19.20304
 Alpha  occ. eigenvalues --  -19.19572 -19.19562 -19.18836 -19.18362 -19.17927
 Alpha  occ. eigenvalues --  -14.42537 -14.41973 -14.41964 -14.41737 -14.40248
 Alpha  occ. eigenvalues --  -14.39741 -14.38559 -14.38001 -10.38544 -10.38084
 Alpha  occ. eigenvalues --  -10.36794 -10.35312 -10.34810 -10.34179 -10.32211
 Alpha  occ. eigenvalues --  -10.31805 -10.31546 -10.31263 -10.31026 -10.31008
 Alpha  occ. eigenvalues --  -10.30879 -10.30813 -10.30736 -10.30632 -10.30608
 Alpha  occ. eigenvalues --  -10.30594 -10.30445 -10.30257 -10.30092 -10.29730
 Alpha  occ. eigenvalues --  -10.29502 -10.29265 -10.29215 -10.29205 -10.28535
 Alpha  occ. eigenvalues --  -10.28230 -10.28228 -10.28204 -10.28185 -10.28088
 Alpha  occ. eigenvalues --  -10.27977 -10.27889 -10.27853 -10.27839 -10.27728
 Alpha  occ. eigenvalues --  -10.27693 -10.27689 -10.27629 -10.27624 -10.27590
 Alpha  occ. eigenvalues --  -10.27587 -10.27443 -10.27385 -10.27287 -10.27137
 Alpha  occ. eigenvalues --  -10.26896 -10.26694 -10.26514 -10.26467 -10.26461
 Alpha  occ. eigenvalues --  -10.26439 -10.26219 -10.26162 -10.26153 -10.26078
 Alpha  occ. eigenvalues --  -10.25974 -10.25956 -10.25872 -10.25861 -10.25857
 Alpha  occ. eigenvalues --  -10.25800 -10.25615 -10.25445 -10.25300 -10.24464
 Alpha  occ. eigenvalues --  -10.24421  -3.16997  -3.16666  -1.91910  -1.91535
 Alpha  occ. eigenvalues --   -1.91454  -1.91294  -1.91131  -1.90983  -1.16753
 Alpha  occ. eigenvalues --   -1.15197  -1.10481  -1.09541  -1.09539  -1.08092
 Alpha  occ. eigenvalues --   -1.07694  -1.06994  -1.05104  -1.04610  -1.04517
 Alpha  occ. eigenvalues --   -1.03411  -1.02042  -1.01691  -1.00967  -1.00603
 Alpha  occ. eigenvalues --   -0.92567  -0.91814  -0.89281  -0.89165  -0.88900
 Alpha  occ. eigenvalues --   -0.88597  -0.88478  -0.87743  -0.87592  -0.87327
 Alpha  occ. eigenvalues --   -0.87233  -0.87180  -0.86655  -0.85438  -0.84203
 Alpha  occ. eigenvalues --   -0.83980  -0.83686  -0.83442  -0.82865  -0.82385
 Alpha  occ. eigenvalues --   -0.81872  -0.81694  -0.80845  -0.80670  -0.80204
 Alpha  occ. eigenvalues --   -0.79863  -0.78757  -0.78597  -0.77383  -0.77187
 Alpha  occ. eigenvalues --   -0.76672  -0.76375  -0.75397  -0.75239  -0.75211
 Alpha  occ. eigenvalues --   -0.75147  -0.73045  -0.72504  -0.71694  -0.71668
 Alpha  occ. eigenvalues --   -0.69826  -0.69308  -0.68669  -0.68619  -0.67922
 Alpha  occ. eigenvalues --   -0.67530  -0.67249  -0.66628  -0.66042  -0.65650
 Alpha  occ. eigenvalues --   -0.65282  -0.65191  -0.64975  -0.64521  -0.63865
 Alpha  occ. eigenvalues --   -0.63462  -0.61045  -0.60836  -0.60201  -0.60167
 Alpha  occ. eigenvalues --   -0.59380  -0.59100  -0.58978  -0.58599  -0.58439
 Alpha  occ. eigenvalues --   -0.58273  -0.58053  -0.57674  -0.57539  -0.56827
 Alpha  occ. eigenvalues --   -0.56484  -0.56454  -0.55553  -0.55433  -0.55265
 Alpha  occ. eigenvalues --   -0.55078  -0.54263  -0.53906  -0.53678  -0.53606
 Alpha  occ. eigenvalues --   -0.53244  -0.53197  -0.53115  -0.52974  -0.52821
 Alpha  occ. eigenvalues --   -0.52649  -0.52261  -0.52176  -0.52132  -0.52016
 Alpha  occ. eigenvalues --   -0.51730  -0.51581  -0.51361  -0.51342  -0.51197
 Alpha  occ. eigenvalues --   -0.51166  -0.50906  -0.50732  -0.50536  -0.50506
 Alpha  occ. eigenvalues --   -0.50173  -0.50107  -0.50029  -0.49983  -0.49767
 Alpha  occ. eigenvalues --   -0.49603  -0.49279  -0.48947  -0.48936  -0.48649
 Alpha  occ. eigenvalues --   -0.48566  -0.48513  -0.48330  -0.48056  -0.48022
 Alpha  occ. eigenvalues --   -0.47998  -0.47834  -0.47518  -0.47314  -0.47259
 Alpha  occ. eigenvalues --   -0.47017  -0.46929  -0.46810  -0.46557  -0.46490
 Alpha  occ. eigenvalues --   -0.46467  -0.46148  -0.46120  -0.45972  -0.45558
 Alpha  occ. eigenvalues --   -0.45445  -0.45381  -0.45253  -0.45040  -0.44952
 Alpha  occ. eigenvalues --   -0.44874  -0.44614  -0.44250  -0.44137  -0.43940
 Alpha  occ. eigenvalues --   -0.43718  -0.43643  -0.43494  -0.43325  -0.43311
 Alpha  occ. eigenvalues --   -0.43072  -0.43039  -0.42887  -0.42735  -0.42598
 Alpha  occ. eigenvalues --   -0.42489  -0.42253  -0.42010  -0.41961  -0.41686
 Alpha  occ. eigenvalues --   -0.41630  -0.41551  -0.41396  -0.41353  -0.41155
 Alpha  occ. eigenvalues --   -0.41146  -0.41000  -0.40974  -0.40612  -0.40135
 Alpha  occ. eigenvalues --   -0.40111  -0.39999  -0.39867  -0.39056  -0.39041
 Alpha  occ. eigenvalues --   -0.38782  -0.38686  -0.37795  -0.37721  -0.37663
 Alpha  occ. eigenvalues --   -0.37557  -0.37050  -0.36374  -0.36097  -0.35752
 Alpha  occ. eigenvalues --   -0.35400  -0.34896  -0.34434  -0.34169  -0.34061
 Alpha  occ. eigenvalues --   -0.33793  -0.33162  -0.33097  -0.31899  -0.31526
 Alpha  occ. eigenvalues --   -0.31411  -0.31187  -0.30473  -0.30007  -0.29919
 Alpha  occ. eigenvalues --   -0.29755  -0.29250  -0.28298  -0.24356  -0.23724
 Alpha  occ. eigenvalues --   -0.21441  -0.21326
 Alpha virt. eigenvalues --   -0.09262  -0.08486  -0.02151  -0.02023  -0.00215
 Alpha virt. eigenvalues --   -0.00122   0.01963   0.02439   0.02722   0.03012
 Alpha virt. eigenvalues --    0.04825   0.05145   0.05377   0.05770   0.06370

 Mulliken charges:
               1
     1  Mg   0.825998
     2  C    0.028315
     3  C   -0.094169
     4  C   -0.058324
     5  C   -0.101656
     6  N   -0.299866
     7  C   -0.077930
     8  C    0.037513
     9  C   -0.089639
    10  C    0.070699
    11  C    0.065656
    12  C    0.032574
    13  C   -0.092753
    14  H    0.019564
    15  N   -0.403867
    16  C    0.188361
    17  C   -0.166153
    18  C    0.011985
    19  C    0.173234
    20  C    0.129755
    21  C   -0.020945
    22  O   -0.222374
    23  C    0.027959
    24  N   -0.333186
    25  C    0.018345
    26  C    0.006447
    27  C   -0.041506
    28  C    0.114556
    29  C    0.047034
    30  C    0.002764
    31  C   -0.000934
    32  N   -0.324977
    33  C    0.108887
    34  C   -0.169615
    35  C    0.001176
    36  C    0.101990
    37  C    0.151113
    38  C    0.020526
    39  O   -0.181686
    40  C   -0.047762
    41  C    0.190028
    42  O   -0.156583
    43  O   -0.359241
    44  C    0.189253
    45  H   -0.036606
    46  H   -0.001692
    47  H   -0.045768
    48  H    0.009238
    49  H    0.006951
    50  H    0.028648
    51  H    0.005708
    52  H    0.024025
    53  H    0.019504
    54  H    0.016498
    55  H    0.052571
    56  H    0.038935
    57  H    0.034299
    58  H    0.012921
    59  H    0.031462
    60  H    0.024636
    61  H    0.050731
    62  H    0.032317
    63  H    0.025058
    64  H    0.015866
    65  H    0.012277
    66  H    0.024116
    67  H    0.035844
    68  H    0.008837
    69  H    0.005447
    70  H    0.005673
    71  H    0.014997
    72  H    0.015275
    73  H    0.020622
    74  H    0.030212
    75  H    0.042972
    76  H    0.023897
    77  H    0.031487
    78  H    0.021510
    79  H    0.040968
    80  Mg   0.811765
    81  C    0.065961
    82  C   -0.080722
    83  C   -0.049825
    84  C   -0.080337
    85  N   -0.243687
    86  C   -0.044157
    87  C   -0.078531
    88  C   -0.052592
    89  C    0.070661
    90  C    0.081532
    91  C    0.031134
    92  C   -0.039735
    93  H    0.027215
    94  N   -0.472433
    95  C    0.156181
    96  C   -0.129859
    97  C   -0.043996
    98  C    0.185447
    99  C    0.083034
   100  C    0.032464
   101  O   -0.206806
   102  C    0.049070
   103  N   -0.232728
   104  C   -0.065509
   105  C    0.007708
   106  C   -0.051188
   107  C    0.034430
   108  C    0.080391
   109  C    0.038143
   110  C   -0.000210
   111  N   -0.356299
   112  C    0.124446
   113  C   -0.178851
   114  C    0.006949
   115  C    0.040656
   116  C    0.124971
   117  C    0.058965
   118  O   -0.165406
   119  C   -0.025072
   120  C    0.157038
   121  O   -0.178217
   122  O   -0.379237
   123  C    0.174372
   124  H   -0.025468
   125  H   -0.012914
   126  H   -0.046861
   127  H    0.010041
   128  H    0.010011
   129  H    0.016357
   130  H    0.011404
   131  H    0.026198
   132  H    0.000549
   133  H    0.030978
   134  H    0.019287
   135  H    0.041721
   136  H    0.019255
   137  H    0.042646
   138  H    0.038269
   139  H    0.056935
   140  H    0.022332
   141  H    0.039028
   142  H    0.015476
   143  H    0.015259
   144  H    0.024409
   145  H    0.009832
   146  H    0.034413
   147  H    0.006816
   148  H   -0.002334
   149  H    0.016773
   150  H    0.017351
   151  H    0.022476
   152  H    0.015575
   153  H    0.033863
   154  H    0.028263
   155  H    0.049777
   156  H    0.034582
   157  H    0.053000
   158  H    0.037565
 Sum of Mulliken charges =  -0.00000

 Dipole moment (field-independent basis, Debye):
    X=             -6.1295    Y=             -2.5338    Z=              5.9811  Tot=              8.9311
 Quadrupole moment (field-independent basis, Debye-Ang):
   XX=           -313.0679   YY=           -490.0698   ZZ=           -503.1129
   XY=            -16.5304   XZ=             90.6243   YZ=             43.8035

 Normal termination of Gaussian 16 at Thu Sep 16 08:27:10 2021.
