 Gaussian 16, Revision A.03,
 Gaussian 16:  ES64L-G16RevA.03 25-Dec-2016

 -----------------------------------
 #p cam-b3lyp/Def2SVP td=(nstates=5)
 -----------------------------------

 --------------------------------
 TDDFT excited states in gaussian
 --------------------------------
 Symbolic Z-matrix:
 Charge =  0 Multiplicity = 1

                         Standard orientation:
 ---------------------------------------------------------------------
 Center     Atomic      Atomic             Coordinates (Angstroms)
 Number     Number       Type             X           Y           Z
 ---------------------------------------------------------------------
      1         12           0      -29.869589   -0.224139    0.119180
      2          6           0      -26.539875    0.067088   -0.919795
      3          6           0      -28.614465   -1.802751    2.928686
      4          6           0      -32.968580   -0.239855    1.359344
      5          6           0      -30.811522    2.092726   -2.323213
      6          7           0      -27.644138   -0.629144    0.997397
      7          6           0      -26.489408   -0.521378    0.312665
      8          6           0      -25.283240   -1.002698    1.082806
      9          6           0      -26.077080   -1.845087    2.152727
     10          6           0      -27.534432   -1.398304    2.099391
     11          6           0      -26.012927   -3.353470    1.792921
     12          6           0      -24.397628    0.169592    1.523719
     13          6           0      -25.047240    1.476238    2.024881
     14          1           0      -24.502279    2.031633    3.335391
     15          7           0      -30.677891   -0.921079    1.864367
     16          6           0      -30.003947   -1.638390    2.816933
     17          6           0      -30.976709   -2.379710    3.630138
     18          6           0      -32.283368   -1.831911    3.311680
     19          6           0      -31.997400   -0.969704    2.124562
     20          6           0      -30.557247   -3.272893    4.859763
     21          6           0      -33.599276   -2.107903    4.043312
     22          8           0      -33.657829   -2.945790    4.899626
     23          6           0      -34.843451   -1.360244    3.659243
     24          7           0      -31.608741    1.000734   -0.328686
     25          6           0      -32.859611    0.735073    0.258760
     26          6           0      -34.034827    1.596676   -0.370367
     27          6           0      -33.286048    2.289672   -1.606360
     28          6           0      -31.798342    1.731130   -1.446082
     29          6           0      -35.431205    0.900978   -0.767787
     30          6           0      -33.360980    3.880789   -1.714608
     31          6           0      -33.386106    4.342167   -3.254901
     32          7           0      -28.930181    0.860459   -1.400233
     33          6           0      -29.463725    1.689504   -2.365949
     34          6           0      -28.411961    2.075225   -3.298841
     35          6           0      -27.225916    1.434051   -2.857086
     36          6           0      -27.581482    0.758791   -1.634082
     37          6           0      -28.588678    2.839931   -4.584483
     38          6           0      -25.749053    1.233389   -3.019661
     39          8           0      -24.971094    1.742955   -3.795047
     40          6           0      -25.320418    0.307875   -1.802862
     41          6           0      -24.775607   -0.960442   -2.400033
     42          8           0      -23.632947   -1.061235   -2.912840
     43          8           0      -25.657780   -2.004007   -2.160225
     44          6           0      -25.166185   -3.305496   -2.467593
     45          1           0      -28.230062   -2.381665    3.771134
     46          1           0      -34.040707   -0.330202    1.547203
     47          1           0      -31.158371    2.653057   -3.194094
     48          1           0      -24.705950   -1.731727    0.514476
     49          1           0      -25.765984   -1.770481    3.193841
     50          1           0      -26.963888   -3.776527    2.117553
     51          1           0      -25.121114   -3.811018    2.218862
     52          1           0      -26.033858   -3.651225    0.744116
     53          1           0      -23.858229    0.479883    0.629336
     54          1           0      -23.697369   -0.199719    2.273047
     55          1           0      -26.106488    1.295665    2.206210
     56          1           0      -24.869742    2.249254    1.277745
     57          1           0      -30.294583   -2.721735    5.763130
     58          1           0      -29.720332   -3.911421    4.576800
     59          1           0      -31.277136   -4.029629    5.169421
     60          1           0      -35.660938   -1.542264    4.357635
     61          1           0      -35.196324   -1.600562    2.656134
     62          1           0      -34.541831   -0.326838    3.832169
     63          1           0      -34.189299    2.303742    0.443810
     64          1           0      -33.649831    1.894506   -2.554398
     65          1           0      -36.078033    0.961567    0.106677
     66          1           0      -35.289112   -0.135415   -1.072804
     67          1           0      -35.851424    1.435962   -1.619684
     68          1           0      -32.444947    4.341883   -1.345489
     69          1           0      -34.202749    4.274386   -1.144328
     70          1           0      -32.520712    4.961420   -3.491300
     71          1           0      -34.288327    4.923272   -3.443476
     72          1           0      -33.292897    3.587306   -4.034909
     73          1           0      -29.026285    3.809530   -4.349251
     74          1           0      -29.272250    2.299748   -5.239840
     75          1           0      -27.640578    3.034485   -5.085570
     76          1           0      -24.463372    0.825420   -1.372484
     77          1           0      -25.897972   -4.048701   -2.151826
     78          1           0      -24.159539   -3.450646   -2.075169
     79          1           0      -25.129480   -3.485844   -3.541910
     80         12           0       29.297155    0.735582    0.535136
     81          6           0       29.588552   -2.629966   -0.888091
     82          6           0       26.954030    1.371156   -1.991076
     83          6           0       29.240312    3.844693    1.513797
     84          6           0       31.474702   -0.167611    3.026011
     85          7           0       28.545166   -0.401616   -1.331653
     86          6           0       28.688772   -1.814503   -1.660332
     87          6           0       27.911700   -2.242188   -2.923843
     88          6           0       27.247137   -0.800534   -3.324456
     89          6           0       27.591779    0.160266   -2.169619
     90          6           0       27.684778   -0.280852   -4.680078
     91          6           0       26.939108   -3.416174   -2.599270
     92          6           0       25.922949   -3.720007   -3.658794
     93          1           0       25.642194   -5.156419   -4.040326
     94          7           0       28.256209    2.433180   -0.147419
     95          6           0       27.328560    2.503629   -1.192929
     96          6           0       26.793961    3.860925   -1.285868
     97          6           0       27.456313    4.627133   -0.241287
     98          6           0       28.380076    3.658872    0.457451
     99          6           0       25.656621    4.316548   -2.271948
    100          6           0       27.375755    6.065277    0.125103
    101          8           0       27.970861    6.585797    1.059263
    102          6           0       26.440601    6.955237   -0.583295
    103          7           0       30.124284    1.657166    2.061426
    104          6           0       30.067903    2.981665    2.212497
    105          6           0       30.867560    3.477587    3.440068
    106          6           0       31.180869    2.166304    4.130296
    107          6           0       30.976866    1.114262    2.972187
    108          6           0       32.115643    4.268789    3.066145
    109          6           0       30.474808    1.710066    5.380796
    110          6           0       28.990097    1.472045    5.206137
    111          7           0       30.410820   -0.973061    0.957085
    112          6           0       31.194831   -1.211426    2.100309
    113          6           0       31.717844   -2.553844    2.035279
    114          6           0       31.027422   -3.098935    0.922286
    115          6           0       30.254946   -2.110976    0.282395
    116          6           0       32.592715   -3.267973    3.023797
    117          6           0       30.841103   -4.401764    0.211629
    118          8           0       31.238831   -5.552260    0.493962
    119          6           0       29.936558   -4.095985   -0.980102
    120          6           0       30.618504   -4.528626   -2.279750
    121          8           0       31.678142   -4.103944   -2.828103
    122          8           0       29.781028   -5.415598   -2.889074
    123          6           0       30.216298   -5.901316   -4.218162
    124          1           0       26.087622    1.500712   -2.641505
    125          1           0       29.285638    4.892380    1.818190
    126          1           0       32.191864   -0.516829    3.771940
    127          1           0       28.667301   -2.650523   -3.594920
    128          1           0       26.162581   -0.881985   -3.252029
    129          1           0       26.798305   -0.143167   -5.299858
    130          1           0       28.311277   -1.057589   -5.117136
    131          1           0       28.419683    0.523638   -4.698651
    132          1           0       26.540083   -3.196859   -1.608319
    133          1           0       27.528884   -4.319991   -2.445874
    134          1           0       26.108030   -3.314190   -4.653092
    135          1           0       24.941260   -3.395335   -3.315066
    136          1           0       24.837338    4.625872   -1.622307
    137          1           0       25.302448    3.518861   -2.924732
    138          1           0       26.068761    5.147224   -2.844993
    139          1           0       26.435266    6.818579   -1.664879
    140          1           0       26.808060    7.952215   -0.342723
    141          1           0       25.459751    6.607227   -0.260810
    142          1           0       30.204884    4.131128    4.007495
    143          1           0       32.216238    2.118826    4.468896
    144          1           0       32.207416    5.111070    3.750914
    145          1           0       32.048572    4.655242    2.049719
    146          1           0       33.010367    3.680127    3.271915
    147          1           0       30.710935    2.419034    6.174815
    148          1           0       30.805713    0.713961    5.674228
    149          1           0       28.407558    1.915635    6.012755
    150          1           0       28.725674    0.414971    5.241866
    151          1           0       28.574118    1.882791    4.286079
    152          1           0       32.134941   -4.218472    3.296734
    153          1           0       32.866396   -2.797073    3.967934
    154          1           0       33.537450   -3.470346    2.518764
    155          1           0       29.049058   -4.724428   -0.900611
    156          1           0       29.681462   -5.362420   -4.999962
    157          1           0       29.981555   -6.958220   -4.091786
    158          1           0       31.299757   -5.868467   -4.339759
 ---------------------------------------------------------------------

 SCF Done:  E(RCAM-B3LYP) =  -4069.81376484     A.U. after   19 cycles

 Excitation energies and oscillator strengths:

 Excited State   1:      Singlet-A      1.6630 eV  745.53 nm  f=0.3990  <S**2>=0.000
     309 -> 316       -0.16582
     311 -> 313        0.68886
     309 <- 316       -0.10534
 This state for optimization and/or second-order correction.
 Total Energy, E(TD-HF/TD-DFT) =  -4069.75264935
 Copying the excited state density for this state as the 1-particle RhoCI density.

 Excited State   2:      Singlet-A      1.7469 eV  709.75 nm  f=0.3587  <S**2>=0.000
     310 -> 315        0.19412
     312 -> 314        0.68069
     310 <- 315        0.10947

 Excited State   3:      Singlet-A      2.1713 eV  571.01 nm  f=0.1379  <S**2>=0.000
     309 -> 313        0.65261
     311 -> 316        0.25467

 Excited State   4:      Singlet-A      2.2374 eV  554.14 nm  f=0.1044  <S**2>=0.000
     310 -> 314        0.63522
     312 -> 315       -0.29910

 Excited State   5:      Singlet-A      3.1405 eV  394.79 nm  f=0.0000  <S**2>=0.000
     312 -> 313        0.70711

 The electronic state is 1-A.
 Alpha  occ. eigenvalues --  -46.90416 -46.87750 -19.26062 -19.25752 -19.20035
 Alpha  occ. eigenvalues --  -19.19626 -19.19567 -19.19058 -19.18758 -19.18461
 Alpha  occ. eigenvalues --  -14.42493 -14.42280 -14.42159 -14.41833 -14.40543
 Alpha  occ. eigenvalues --  -14.39951 -14.39495 -14.38856 -10.39997 -10.39947
 Alpha  occ. eigenvalues --  -10.35809 -10.35324 -10.34731 -10.34643 -10.32851
 Alpha  occ. eigenvalues --  -10.32002 -10.31967 -10.31903 -10.31851 -10.31494
 Alpha  occ. eigenvalues --  -10.31365 -10.31150 -10.31088 -10.30871 -10.30686
 Alpha  occ. eigenvalues --  -10.30610 -10.30607 -10.30463 -10.30231 -10.29905
 Alpha  occ. eigenvalues --  -10.29602 -10.29569 -10.29285 -10.29258 -10.28976
 Alpha  occ. eigenvalues --  -10.28956 -10.28947 -10.28872 -10.28813 -10.28647
 Alpha  occ. eigenvalues --  -10.28593 -10.28582 -10.28560 -10.28546 -10.28463
 Alpha  occ. eigenvalues --  -10.28414 -10.28245 -10.28087 -10.28014 -10.27929
 Alpha  occ. eigenvalues --  -10.27814 -10.27806 -10.27765 -10.27742 -10.27526
 Alpha  occ. eigenvalues --  -10.27502 -10.27381 -10.27002 -10.26964 -10.26897
 Alpha  occ. eigenvalues --  -10.26831 -10.26451 -10.26313 -10.26280 -10.26276
 Alpha  occ. eigenvalues --  -10.26238 -10.26197 -10.25966 -10.25907 -10.25892
 Alpha  occ. eigenvalues --  -10.25819 -10.25728 -10.25715 -10.25624 -10.24698
 Alpha  occ. eigenvalues --  -10.24556  -3.18779  -3.16490  -1.93642  -1.93254
 Alpha  occ. eigenvalues --   -1.93069  -1.91395  -1.90956  -1.90792  -1.16479
 Alpha  occ. eigenvalues --   -1.15994  -1.11524  -1.10679  -1.10378  -1.07797
 Alpha  occ. eigenvalues --   -1.07072  -1.05756  -1.05046  -1.04807  -1.03908
 Alpha  occ. eigenvalues --   -1.02983  -1.02818  -1.02265  -1.01917  -1.00601
 Alpha  occ. eigenvalues --   -0.92534  -0.92300  -0.89689  -0.89041  -0.88855
 Alpha  occ. eigenvalues --   -0.88691  -0.88358  -0.87760  -0.87366  -0.87317
 Alpha  occ. eigenvalues --   -0.86995  -0.86069  -0.85876  -0.85685  -0.84872
 Alpha  occ. eigenvalues --   -0.84765  -0.84048  -0.83371  -0.82936  -0.82733
 Alpha  occ. eigenvalues --   -0.82295  -0.81902  -0.81415  -0.80828  -0.80389
 Alpha  occ. eigenvalues --   -0.80071  -0.78516  -0.77557  -0.77311  -0.77268
 Alpha  occ. eigenvalues --   -0.76806  -0.76727  -0.76441  -0.75961  -0.75494
 Alpha  occ. eigenvalues --   -0.75344  -0.72835  -0.72757  -0.72081  -0.71947
 Alpha  occ. eigenvalues --   -0.70293  -0.69954  -0.69442  -0.69425  -0.68241
 Alpha  occ. eigenvalues --   -0.67629  -0.67180  -0.67138  -0.65918  -0.65058
 Alpha  occ. eigenvalues --   -0.64917  -0.64860  -0.64658  -0.64651  -0.64323
 Alpha  occ. eigenvalues --   -0.63818  -0.63740  -0.61936  -0.60224  -0.60052
 Alpha  occ. eigenvalues --   -0.59295  -0.59158  -0.59077  -0.58979  -0.58317
 Alpha  occ. eigenvalues --   -0.58200  -0.57818  -0.57714  -0.57396  -0.57369
 Alpha  occ. eigenvalues --   -0.56316  -0.56276  -0.56114  -0.55984  -0.55512
 Alpha  occ. eigenvalues --   -0.55477  -0.55296  -0.55086  -0.54800  -0.54323
 Alpha  occ. eigenvalues --   -0.54285  -0.53687  -0.53456  -0.53236  -0.53082
 Alpha  occ. eigenvalues --   -0.53069  -0.52809  -0.52723  -0.52493  -0.52124
 Alpha  occ. eigenvalues --   -0.51952  -0.51658  -0.51462  -0.51141  -0.51109
 Alpha  occ. eigenvalues --   -0.50828  -0.50727  -0.50720  -0.50574  -0.50381
 Alpha  occ. eigenvalues --   -0.50183  -0.50068  -0.49961  -0.49788  -0.49740
 Alpha  occ. eigenvalues --   -0.49573  -0.49516  -0.48957  -0.48837  -0.48807
 Alpha  occ. eigenvalues --   -0.48712  -0.48540  -0.48443  -0.48399  -0.48072
 Alpha  occ. eigenvalues --   -0.47713  -0.47593  -0.47561  -0.47335  -0.47259
 Alpha  occ. eigenvalues --   -0.47013  -0.46971  -0.46753  -0.46693  -0.46516
 Alpha  occ. eigenvalues --   -0.46338  -0.46149  -0.46104  -0.45995  -0.45711
 Alpha  occ. eigenvalues --   -0.45697  -0.45580  -0.45436  -0.45347  -0.45227
 Alpha  occ. eigenvalues --   -0.44939  -0.44906  -0.44529  -0.44349  -0.44272
 Alpha  occ. eigenvalues --   -0.44177  -0.43976  -0.43971  -0.43880  -0.43660
 Alpha  occ. eigenvalues --   -0.43485  -0.43407  -0.43289  -0.43178  -0.43007
 Alpha  occ. eigenvalues --   -0.42807  -0.42629  -0.42499  -0.42247  -0.42235
 Alpha  occ. eigenvalues --   -0.42196  -0.42024  -0.41846  -0.41756  -0.41751
 Alpha  occ. eigenvalues --   -0.41256  -0.41199  -0.40951  -0.40457  -0.40398
 Alpha  occ. eigenvalues --   -0.39948  -0.39941  -0.39224  -0.39119  -0.39101
 Alpha  occ. eigenvalues --   -0.38969  -0.38889  -0.38144  -0.37327  -0.37299
 Alpha  occ. eigenvalues --   -0.37214  -0.37124  -0.36806  -0.36761  -0.36516
 Alpha  occ. eigenvalues --   -0.36341  -0.36105  -0.34711  -0.34417  -0.34300
 Alpha  occ. eigenvalues --   -0.34092  -0.33179  -0.33064  -0.31508  -0.31395
 Alpha  occ. eigenvalues --   -0.31264  -0.31227  -0.30926  -0.30630  -0.30396
 Alpha  occ. eigenvalues --   -0.30312  -0.29753  -0.29168  -0.24245  -0.24056
 Alpha  occ. eigenvalues --   -0.21472  -0.21416
 Alpha virt. eigenvalues --   -0.09288  -0.08657  -0.02101  -0.01657   0.00072
 Alpha virt. eigenvalues --    0.00335   0.00744   0.01985   0.02194   0.03371
 Alpha virt. eigenvalues --    0.04412   0.04514   0.05165   0.05467   0.05741

 Mulliken charges:
               1
     1  Mg   0.821344
     2  C    0.141396
     3  C   -0.072419
     4  C   -0.088175
     5  C   -0.079392
     6  N   -0.220262
     7  C   -0.143079
     8  C    0.066437
     9  C   -0.054799
    10  C   -0.010667
    11  C    0.063587
    12  C    0.064057
    13  C   -0.078559
    14  H    0.015473
    15  N   -0.372569
    16  C    0.163219
    17  C   -0.137161
    18  C   -0.058516
    19  C    0.190592
    20  C    0.093535
    21  C   -0.010333
    22  O   -0.168272
    23  C    0.051842
    24  N   -0.300584
    25  C   -0.021024
    26  C   -0.011938
    27  C   -0.040258
    28  C    0.044999
    29  C    0.055019
    30  C    0.036437
    31  C   -0.036869
    32  N   -0.352634
    33  C    0.125097
    34  C   -0.196537
    35  C    0.022492
    36  C    0.045494
    37  C    0.117942
    38  C    0.063999
    39  O   -0.137440
    40  C   -0.139026
    41  C    0.228295
    42  O   -0.237506
    43  O   -0.322903
    44  C    0.183477
    45  H   -0.018137
    46  H   -0.048416
    47  H   -0.045692
    48  H    0.002294
    49  H   -0.000449
    50  H    0.003842
    51  H    0.026692
    52  H    0.004882
    53  H    0.013087
    54  H    0.020332
    55  H    0.050696
    56  H    0.037463
    57  H    0.040191
    58  H    0.005489
    59  H    0.031872
    60  H    0.019364
    61  H    0.059883
    62  H    0.032464
    63  H    0.026043
    64  H    0.015649
    65  H    0.028263
    66  H    0.025965
    67  H    0.028354
    68  H    0.025544
    69  H    0.019010
    70  H    0.017216
    71  H    0.020695
    72  H    0.021743
    73  H    0.015709
    74  H    0.029800
    75  H    0.034180
    76  H    0.055805
    77  H    0.031247
    78  H    0.037692
    79  H    0.027414
    80  Mg   0.833753
    81  C   -0.021278
    82  C   -0.080142
    83  C   -0.082739
    84  C   -0.070304
    85  N   -0.301388
    86  C   -0.047353
    87  C   -0.021613
    88  C   -0.058512
    89  C    0.064038
    90  C    0.100729
    91  C    0.032564
    92  C   -0.071177
    93  H    0.011806
    94  N   -0.386356
    95  C    0.147001
    96  C   -0.156155
    97  C   -0.010720
    98  C    0.125009
    99  C    0.113796
   100  C   -0.027314
   101  O   -0.211692
   102  C    0.063958
   103  N   -0.345420
   104  C    0.087685
   105  C   -0.030103
   106  C   -0.026329
   107  C    0.096068
   108  C    0.087960
   109  C    0.059807
   110  C   -0.013222
   111  N   -0.360274
   112  C    0.064896
   113  C   -0.139151
   114  C   -0.053522
   115  C    0.135971
   116  C    0.107479
   117  C    0.083458
   118  O   -0.200410
   119  C    0.008597
   120  C    0.216116
   121  O   -0.257652
   122  O   -0.336365
   123  C    0.163766
   124  H   -0.033227
   125  H   -0.005316
   126  H   -0.025216
   127  H    0.025817
   128  H    0.008756
   129  H    0.023490
   130  H    0.000238
   131  H    0.025551
   132  H    0.009584
   133  H    0.036926
   134  H    0.030377
   135  H    0.032719
   136  H    0.039168
   137  H    0.020317
   138  H    0.045787
   139  H    0.005842
   140  H    0.040877
   141  H    0.037727
   142  H    0.013765
   143  H   -0.013288
   144  H    0.012812
   145  H    0.026533
   146  H    0.015529
   147  H    0.009172
   148  H    0.003997
   149  H    0.005190
   150  H    0.012494
   151  H    0.021977
   152  H    0.039105
   153  H    0.005101
   154  H    0.032598
   155  H    0.049799
   156  H    0.048537
   157  H    0.042668
   158  H    0.059327
 Sum of Mulliken charges =  -0.00000

 Dipole moment (field-independent basis, Debye):
    X=             -9.3896    Y=              1.3359    Z=             -1.2966  Tot=              9.5724
 Quadrupole moment (field-independent basis, Debye-Ang):
   XX=           -476.1578   YY=           -533.2026   ZZ=           -506.0385
   XY=             87.1964   XZ=             -2.7065   YZ=             12.9018

 Normal termination of Gaussian 16 at Thu Sep  2 00:22:23 2021.
