 Gaussian 16, Revision A.03,
 Gaussian 16:  ES64L-G16RevA.03 25-Dec-2016

 -----------------------------------
 #p cam-b3lyp/Def2SVP td=(nstates=5)
 -----------------------------------

 --------------------------------
 TDDFT excited states in gaussian
 --------------------------------
 Symbolic Z-matrix:
 Charge =  0 Multiplicity = 1

                         Standard orientation:
 ---------------------------------------------------------------------
 Center     Atomic      Atomic             Coordinates (Angstroms)
 Number     Number       Type             X           Y           Z
 ---------------------------------------------------------------------
      1         12           0       -9.198814   -0.220959   -0.030802
      2          6           0       -7.008644    2.116918    1.160594
      3          6           0      -11.012453    2.131166   -1.540946
      4          6           0      -11.291618   -2.571761   -0.877229
      5          6           0       -7.539412   -2.541974    2.105042
      6          7           0       -9.130449    1.948219   -0.038922
      7          6           0       -8.004688    2.629852    0.289793
      8          6           0       -7.970927    3.994898   -0.341225
      9          6           0       -9.419423    4.066128   -0.971765
     10          6           0       -9.943359    2.659438   -0.779693
     11          6           0      -10.322620    5.180794   -0.391495
     12          6           0       -6.698875    4.241591   -1.360252
     13          6           0       -5.891921    5.541967   -1.225743
     14          1           0       -6.621325    6.762731   -0.581846
     15          7           0      -10.750523   -0.247595   -1.163333
     16          6           0      -11.408243    0.799794   -1.725543
     17          6           0      -12.631927    0.415368   -2.385879
     18          6           0      -12.617020   -0.946712   -2.378139
     19          6           0      -11.590310   -1.295805   -1.347684
     20          6           0      -13.549465    1.531561   -2.850429
     21          6           0      -13.582908   -1.927884   -3.071667
     22          8           0      -13.525856   -3.130050   -2.956501
     23          6           0      -14.645991   -1.256987   -3.890404
     24          7           0       -9.457900   -2.235325    0.697668
     25          6           0      -10.350580   -3.003709    0.047844
     26          6           0      -10.246053   -4.463989    0.498852
     27          6           0       -8.849001   -4.511851    1.205763
     28          6           0       -8.590327   -3.001551    1.382769
     29          6           0      -11.416626   -5.066076    1.387097
     30          6           0       -7.669367   -5.152822    0.381902
     31          6           0       -7.231570   -4.627582   -0.959999
     32          7           0       -7.549789   -0.326664    1.311148
     33          6           0       -7.031605   -1.290545    2.182105
     34          6           0       -5.894531   -0.769151    2.951251
     35          6           0       -5.841013    0.580329    2.571414
     36          6           0       -6.862835    0.756190    1.585942
     37          6           0       -4.968658   -1.517154    3.875792
     38          6           0       -5.193269    1.796713    2.761343
     39          8           0       -4.294818    2.156706    3.505847
     40          6           0       -5.749967    2.781249    1.700525
     41          6           0       -6.001278    4.002631    2.499375
     42          8           0       -6.980978    4.194719    3.223610
     43          8           0       -4.945210    4.864239    2.428259
     44          6           0       -4.862505    5.983090    3.372420
     45          1           0      -11.466051    2.894146   -2.177352
     46          1           0      -11.917288   -3.419750   -1.160830
     47          1           0       -7.103929   -3.365104    2.676681
     48          1           0       -7.963707    4.771543    0.423619
     49          1           0       -9.326914    4.194055   -2.050054
     50          1           0      -11.040308    4.731038    0.294503
     51          1           0      -10.875560    5.638500   -1.211792
     52          1           0       -9.661973    5.873946    0.129400
     53          1           0       -7.133751    4.192039   -2.358589
     54          1           0       -5.951918    3.458511   -1.233986
     55          1           0       -5.633030    5.927529   -2.211497
     56          1           0       -4.938073    5.335272   -0.740553
     57          1           0      -13.929390    2.178742   -2.059758
     58          1           0      -14.539200    1.304777   -3.246329
     59          1           0      -12.924652    2.008117   -3.605838
     60          1           0      -14.199769   -0.599181   -4.635869
     61          1           0      -15.262452   -0.797103   -3.118294
     62          1           0      -15.283988   -1.869174   -4.526810
     63          1           0      -10.285887   -4.989941   -0.455694
     64          1           0       -8.976602   -4.938285    2.200984
     65          1           0      -12.179021   -4.303942    1.546556
     66          1           0      -11.065751   -5.276343    2.396734
     67          1           0      -11.878966   -5.985510    1.024732
     68          1           0       -8.040541   -6.175221    0.306501
     69          1           0       -6.735205   -5.165148    0.942505
     70          1           0       -7.945460   -3.880460   -1.309251
     71          1           0       -7.230074   -5.426812   -1.701011
     72          1           0       -6.277150   -4.102246   -0.988421
     73          1           0       -5.138493   -1.270554    4.922921
     74          1           0       -3.932859   -1.305082    3.610207
     75          1           0       -5.281888   -2.553513    3.747046
     76          1           0       -5.062767    2.909300    0.863987
     77          1           0       -3.834962    6.311712    3.532608
     78          1           0       -5.443368    5.799170    4.274937
     79          1           0       -5.391314    6.868114    3.019066
     80         12           0        8.412146   -1.065946   -0.673348
     81          6           0       10.750483    1.518440   -0.527554
     82          6           0        5.972243    1.159730   -1.085791
     83          6           0        6.236946   -3.415591    0.523637
     84          6           0       10.994654   -3.353399   -0.189116
     85          7           0        8.391415    1.113310   -0.961164
     86          6           0        9.442653    1.919639   -0.877967
     87          6           0        9.000668    3.376057   -1.269430
     88          6           0        7.460050    3.243366   -1.329547
     89          6           0        7.228469    1.754426   -1.090133
     90          6           0        6.689241    4.023503   -0.152358
     91          6           0        9.601935    3.923703   -2.642708
     92          6           0       10.021604    5.350501   -2.547653
     93          1           0        9.532392    6.346385   -3.587907
     94          7           0        6.383401   -1.109859   -0.357987
     95          6           0        5.522344   -0.076019   -0.614802
     96          6           0        4.147158   -0.593215   -0.584608
     97          6           0        4.239253   -1.932088   -0.111897
     98          6           0        5.678225   -2.175040    0.083385
     99          6           0        2.895866    0.288750   -0.895160
    100          6           0        3.088310   -2.929082    0.219971
    101          8           0        3.263835   -4.074216    0.620858
    102          6           0        1.693419   -2.473314    0.013070
    103          7           0        8.570992   -3.018142    0.070244
    104          6           0        7.543950   -3.814900    0.585111
    105          6           0        8.150253   -5.083676    1.239727
    106          6           0        9.506091   -5.285353    0.431112
    107          6           0        9.675214   -3.780405    0.078067
    108          6           0        8.280364   -4.974556    2.774168
    109          6           0        9.447911   -6.133378   -0.807622
    110          6           0        8.902314   -5.588907   -2.094280
    111          7           0       10.476252   -1.040290   -0.606686
    112          6           0       11.406062   -2.025438   -0.366721
    113          6           0       12.773083   -1.499564   -0.358810
    114          6           0       12.572919   -0.046571   -0.318384
    115          6           0       11.143881    0.146264   -0.463123
    116          6           0       13.984397   -2.255389   -0.155119
    117          6           0       13.226101    1.250688   -0.192734
    118          8           0       14.338498    1.562129    0.015136
    119          6           0       12.044730    2.333352   -0.407987
    120          6           0       12.019205    3.437681    0.618347
    121          8           0       11.365368    3.424215    1.657092
    122          8           0       12.780413    4.504215    0.141149
    123          6           0       12.864673    5.712248    0.981778
    124          1           0        5.079384    1.705504   -1.399018
    125          1           0        5.487155   -4.109676    0.909992
    126          1           0       11.759104   -4.130732   -0.133497
    127          1           0        9.221542    4.098024   -0.482854
    128          1           0        6.978933    3.603464   -2.238901
    129          1           0        6.447637    5.013886   -0.538726
    130          1           0        7.276775    4.210272    0.746173
    131          1           0        5.765751    3.482355    0.056924
    132          1           0        8.878569    3.855505   -3.455399
    133          1           0       10.451555    3.367393   -3.038898
    134          1           0       11.096908    5.300230   -2.716610
    135          1           0        9.880964    5.862444   -1.596102
    136          1           0        2.592041    0.713804    0.061048
    137          1           0        2.115703   -0.283037   -1.398237
    138          1           0        3.126588    1.221724   -1.410485
    139          1           0        1.374517   -1.466325    0.281640
    140          1           0        1.009654   -3.136892    0.541857
    141          1           0        1.371450   -2.754017   -0.990155
    142          1           0        7.449447   -5.869575    0.959529
    143          1           0       10.305769   -5.682568    1.056026
    144          1           0        9.267140   -5.166385    3.195610
    145          1           0        7.486811   -5.487822    3.317709
    146          1           0        8.080500   -3.950762    3.089902
    147          1           0        8.887972   -7.060292   -0.689559
    148          1           0       10.463831   -6.459633   -1.030721
    149          1           0        9.807178   -5.264166   -2.607647
    150          1           0        8.259030   -4.713059   -2.006782
    151          1           0        8.397128   -6.388502   -2.637033
    152          1           0       14.738696   -1.777567   -0.780538
    153          1           0       13.798862   -3.263061   -0.526146
    154          1           0       14.284558   -2.210953    0.891330
    155          1           0       12.218859    2.802254   -1.376456
    156          1           0       13.183149    5.386635    1.972423
    157          1           0       11.885456    6.177514    1.091651
    158          1           0       13.514685    6.533883    0.680487
 ---------------------------------------------------------------------

 SCF Done:  E(RCAM-B3LYP) =  -4069.81108552     A.U. after   18 cycles

 Excitation energies and oscillator strengths:

 Excited State   1:      Singlet-A      1.6792 eV  738.33 nm  f=0.4741  <S**2>=0.000
     310 -> 316       -0.17546
     312 -> 313        0.68197
     310 <- 316       -0.10778
 This state for optimization and/or second-order correction.
 Total Energy, E(TD-HF/TD-DFT) =  -4069.74937444
 Copying the excited state density for this state as the 1-particle RhoCI density.

 Excited State   2:      Singlet-A      1.7695 eV  700.66 nm  f=0.3144  <S**2>=0.000
     309 -> 315       -0.19056
     311 -> 314        0.67718
     309 <- 315       -0.10531

 Excited State   3:      Singlet-A      2.2561 eV  549.55 nm  f=0.0936  <S**2>=0.000
     310 -> 313        0.63179
     312 -> 316        0.30580

 Excited State   4:      Singlet-A      2.2763 eV  544.68 nm  f=0.0631  <S**2>=0.000
     309 -> 314        0.61510
     311 -> 315        0.33760

 Excited State   5:      Singlet-A      2.8166 eV  440.19 nm  f=0.0000  <S**2>=0.000
     311 -> 313        0.70675

 The electronic state is 1-A.
 Alpha  occ. eigenvalues --  -46.88076 -46.87823 -19.24935 -19.24062 -19.20034
 Alpha  occ. eigenvalues --  -19.20009 -19.19596 -19.19070 -19.18479 -19.17791
 Alpha  occ. eigenvalues --  -14.42099 -14.41832 -14.41326 -14.41171 -14.40118
 Alpha  occ. eigenvalues --  -14.39188 -14.39125 -14.38873 -10.39601 -10.38398
 Alpha  occ. eigenvalues --  -10.36064 -10.35532 -10.35431 -10.33689 -10.31718
 Alpha  occ. eigenvalues --  -10.31232 -10.30945 -10.30801 -10.30711 -10.30579
 Alpha  occ. eigenvalues --  -10.30498 -10.30488 -10.30355 -10.30257 -10.29912
 Alpha  occ. eigenvalues --  -10.29790 -10.29647 -10.29375 -10.29291 -10.29212
 Alpha  occ. eigenvalues --  -10.29071 -10.29040 -10.28832 -10.28675 -10.28560
 Alpha  occ. eigenvalues --  -10.28291 -10.28231 -10.28200 -10.28189 -10.28124
 Alpha  occ. eigenvalues --  -10.27970 -10.27964 -10.27932 -10.27928 -10.27850
 Alpha  occ. eigenvalues --  -10.27810 -10.27683 -10.27647 -10.27621 -10.27580
 Alpha  occ. eigenvalues --  -10.27480 -10.27476 -10.27388 -10.27368 -10.26972
 Alpha  occ. eigenvalues --  -10.26815 -10.26613 -10.26612 -10.26606 -10.26346
 Alpha  occ. eigenvalues --  -10.26158 -10.26117 -10.26024 -10.26002 -10.26001
 Alpha  occ. eigenvalues --  -10.25954 -10.25811 -10.25676 -10.25673 -10.25499
 Alpha  occ. eigenvalues --  -10.25443 -10.25318 -10.25278 -10.25161 -10.24488
 Alpha  occ. eigenvalues --  -10.24184  -3.16931  -3.16526  -1.91796  -1.91430
 Alpha  occ. eigenvalues --   -1.91401  -1.91264  -1.90957  -1.90853  -1.15067
 Alpha  occ. eigenvalues --   -1.14989  -1.12855  -1.11627  -1.10046  -1.09146
 Alpha  occ. eigenvalues --   -1.07363  -1.06063  -1.05709  -1.05084  -1.04820
 Alpha  occ. eigenvalues --   -1.04226  -1.03483  -1.03113  -1.02770  -1.02039
 Alpha  occ. eigenvalues --   -0.92474  -0.91775  -0.89741  -0.88950  -0.88544
 Alpha  occ. eigenvalues --   -0.88525  -0.88164  -0.88063  -0.87925  -0.87582
 Alpha  occ. eigenvalues --   -0.87087  -0.86802  -0.86674  -0.86190  -0.84506
 Alpha  occ. eigenvalues --   -0.84086  -0.83692  -0.83510  -0.82809  -0.82734
 Alpha  occ. eigenvalues --   -0.82452  -0.81742  -0.81189  -0.80904  -0.80651
 Alpha  occ. eigenvalues --   -0.80268  -0.79136  -0.78130  -0.77571  -0.77181
 Alpha  occ. eigenvalues --   -0.77108  -0.76634  -0.75833  -0.75756  -0.75315
 Alpha  occ. eigenvalues --   -0.74761  -0.72757  -0.72150  -0.71802  -0.71372
 Alpha  occ. eigenvalues --   -0.69743  -0.69148  -0.69144  -0.68401  -0.68285
 Alpha  occ. eigenvalues --   -0.67666  -0.67445  -0.66660  -0.65610  -0.65556
 Alpha  occ. eigenvalues --   -0.65076  -0.64866  -0.64517  -0.64146  -0.64009
 Alpha  occ. eigenvalues --   -0.63882  -0.61846  -0.61713  -0.61226  -0.60039
 Alpha  occ. eigenvalues --   -0.59499  -0.59446  -0.59406  -0.58779  -0.58073
 Alpha  occ. eigenvalues --   -0.58010  -0.57926  -0.57671  -0.57656  -0.57138
 Alpha  occ. eigenvalues --   -0.56411  -0.55702  -0.55447  -0.55425  -0.55253
 Alpha  occ. eigenvalues --   -0.55230  -0.54767  -0.54752  -0.54526  -0.54009
 Alpha  occ. eigenvalues --   -0.53766  -0.53482  -0.53333  -0.53284  -0.52886
 Alpha  occ. eigenvalues --   -0.52752  -0.52749  -0.52574  -0.52399  -0.52395
 Alpha  occ. eigenvalues --   -0.52066  -0.51746  -0.51662  -0.51533  -0.51378
 Alpha  occ. eigenvalues --   -0.51297  -0.51147  -0.50740  -0.50579  -0.50352
 Alpha  occ. eigenvalues --   -0.50285  -0.50071  -0.49970  -0.49609  -0.49520
 Alpha  occ. eigenvalues --   -0.49454  -0.49419  -0.49215  -0.49058  -0.48891
 Alpha  occ. eigenvalues --   -0.48673  -0.48494  -0.48220  -0.48187  -0.48113
 Alpha  occ. eigenvalues --   -0.47906  -0.47897  -0.47701  -0.47287  -0.46906
 Alpha  occ. eigenvalues --   -0.46858  -0.46798  -0.46699  -0.46624  -0.46489
 Alpha  occ. eigenvalues --   -0.46175  -0.45997  -0.45816  -0.45656  -0.45587
 Alpha  occ. eigenvalues --   -0.45411  -0.45362  -0.45106  -0.44955  -0.44860
 Alpha  occ. eigenvalues --   -0.44634  -0.44537  -0.44299  -0.44249  -0.44069
 Alpha  occ. eigenvalues --   -0.44039  -0.43946  -0.43630  -0.43564  -0.43275
 Alpha  occ. eigenvalues --   -0.43231  -0.43154  -0.43026  -0.42975  -0.42693
 Alpha  occ. eigenvalues --   -0.42561  -0.42547  -0.42253  -0.41977  -0.41782
 Alpha  occ. eigenvalues --   -0.41703  -0.41492  -0.41442  -0.41379  -0.41248
 Alpha  occ. eigenvalues --   -0.41166  -0.41096  -0.40881  -0.40662  -0.40417
 Alpha  occ. eigenvalues --   -0.40137  -0.39718  -0.39314  -0.39046  -0.38577
 Alpha  occ. eigenvalues --   -0.38569  -0.38306  -0.37977  -0.37581  -0.37159
 Alpha  occ. eigenvalues --   -0.36898  -0.36570  -0.36501  -0.36441  -0.36394
 Alpha  occ. eigenvalues --   -0.35829  -0.35297  -0.34472  -0.34371  -0.34190
 Alpha  occ. eigenvalues --   -0.33408  -0.33066  -0.32710  -0.32603  -0.31466
 Alpha  occ. eigenvalues --   -0.31295  -0.31127  -0.30916  -0.30839  -0.30231
 Alpha  occ. eigenvalues --   -0.29919  -0.29837  -0.29460  -0.23933  -0.23888
 Alpha  occ. eigenvalues --   -0.20725  -0.20680
 Alpha virt. eigenvalues --   -0.08366  -0.07945  -0.01869  -0.01284   0.00103
 Alpha virt. eigenvalues --    0.00506   0.02143   0.02517   0.02871   0.02894
 Alpha virt. eigenvalues --    0.04653   0.04867   0.05660   0.05984   0.06149

 Mulliken charges:
               1
     1  Mg   0.850269
     2  C    0.012255
     3  C   -0.109491
     4  C   -0.070245
     5  C   -0.108826
     6  N   -0.257926
     7  C   -0.051969
     8  C   -0.000764
     9  C   -0.101451
    10  C    0.045374
    11  C    0.094727
    12  C    0.049123
    13  C   -0.072564
    14  H    0.013673
    15  N   -0.419526
    16  C    0.163785
    17  C   -0.108805
    18  C   -0.091148
    19  C    0.161940
    20  C    0.094021
    21  C    0.026295
    22  O   -0.168240
    23  C    0.036154
    24  N   -0.251369
    25  C    0.003116
    26  C   -0.037070
    27  C    0.001932
    28  C   -0.034636
    29  C    0.070250
    30  C    0.035283
    31  C    0.008717
    32  N   -0.312524
    33  C    0.155193
    34  C   -0.183477
    35  C    0.078520
    36  C    0.062450
    37  C    0.144512
    38  C   -0.023051
    39  O   -0.177933
    40  C    0.001708
    41  C    0.195540
    42  O   -0.239019
    43  O   -0.324162
    44  C    0.190330
    45  H   -0.032985
    46  H   -0.010282
    47  H   -0.034484
    48  H    0.022108
    49  H    0.005809
    50  H    0.023688
    51  H    0.016681
    52  H    0.024971
    53  H    0.008951
    54  H    0.017303
    55  H    0.025658
    56  H    0.039296
    57  H    0.037527
    58  H    0.007651
    59  H    0.045165
    60  H    0.040663
    61  H    0.049292
    62  H    0.021501
    63  H    0.008616
    64  H    0.002960
    65  H    0.016704
    66  H    0.005355
    67  H    0.028462
    68  H    0.007025
    69  H    0.007990
    70  H    0.009627
    71  H    0.018203
    72  H    0.020609
    73  H    0.036903
    74  H    0.040719
    75  H   -0.000946
    76  H    0.042739
    77  H    0.042626
    78  H    0.040756
    79  H    0.012169
    80  Mg   0.845127
    81  C    0.027560
    82  C   -0.076874
    83  C   -0.074979
    84  C   -0.103317
    85  N   -0.243897
    86  C   -0.032291
    87  C    0.000812
    88  C   -0.076966
    89  C    0.082502
    90  C    0.038810
    91  C    0.070245
    92  C   -0.093179
    93  H    0.009221
    94  N   -0.370948
    95  C    0.094891
    96  C   -0.139658
    97  C   -0.061998
    98  C    0.102007
    99  C    0.093442
   100  C    0.039388
   101  O   -0.201047
   102  C    0.041658
   103  N   -0.293974
   104  C    0.034479
   105  C    0.001903
   106  C   -0.010200
   107  C    0.025350
   108  C    0.092584
   109  C    0.017688
   110  C    0.022204
   111  N   -0.363009
   112  C    0.153918
   113  C   -0.162824
   114  C   -0.040061
   115  C    0.088624
   116  C    0.123074
   117  C    0.056261
   118  O   -0.102630
   119  C   -0.071476
   120  C    0.218737
   121  O   -0.219910
   122  O   -0.352238
   123  C    0.187097
   124  H   -0.036607
   125  H   -0.006427
   126  H   -0.034873
   127  H    0.020411
   128  H    0.017294
   129  H    0.008454
   130  H    0.029855
   131  H    0.017973
   132  H    0.013543
   133  H    0.012828
   134  H    0.031404
   135  H    0.030268
   136  H    0.037523
   137  H    0.041507
   138  H    0.008760
   139  H    0.040429
   140  H    0.011922
   141  H    0.037514
   142  H   -0.003978
   143  H   -0.004104
   144  H    0.017156
   145  H    0.021870
   146  H    0.010931
   147  H    0.001045
   148  H   -0.002233
   149  H    0.005293
   150  H    0.031928
   151  H    0.015859
   152  H    0.033097
   153  H    0.015102
   154  H    0.051102
   155  H    0.046501
   156  H    0.036717
   157  H    0.023140
   158  H    0.042690
 Sum of Mulliken charges =  -0.00000

 Dipole moment (field-independent basis, Debye):
    X=             -5.0495    Y=              1.2005    Z=             -7.1363  Tot=              8.8241
 Quadrupole moment (field-independent basis, Debye-Ang):
   XX=           -511.0203   YY=           -476.4877   ZZ=           -519.5766
   XY=            -28.8127   XZ=             21.8324   YZ=            -25.0333

 Normal termination of Gaussian 16 at Tue Aug 31 14:31:30 2021.
