 Gaussian 16, Revision A.03,
 Gaussian 16:  ES64L-G16RevA.03 25-Dec-2016

 -----------------------------------
 #p cam-b3lyp/Def2SVP td=(nstates=5)
 -----------------------------------

 --------------------------------
 TDDFT excited states in gaussian
 --------------------------------
 Symbolic Z-matrix:
 Charge =  0 Multiplicity = 1

                         Standard orientation:
 ---------------------------------------------------------------------
 Center     Atomic      Atomic             Coordinates (Angstroms)
 Number     Number       Type             X           Y           Z
 ---------------------------------------------------------------------
      1         12           0       29.290289    0.577489    0.023934
      2          6           0       26.419293   -0.460145   -1.673031
      3          6           0       30.458681   -2.711666   -0.308851
      4          6           0       31.829021    1.252788    2.097046
      5          6           0       27.567334    3.348132    1.118588
      6          7           0       28.571256   -1.403237   -1.000340
      7          6           0       27.332314   -1.503645   -1.551131
      8          6           0       27.076233   -2.972135   -2.075313
      9          6           0       28.310048   -3.746460   -1.385937
     10          6           0       29.154511   -2.591880   -0.821094
     11          6           0       27.731860   -4.559367   -0.173550
     12          6           0       27.230364   -2.944416   -3.640407
     13          6           0       27.155189   -4.302277   -4.390324
     14          1           0       28.026007   -4.817553   -5.497356
     15          7           0       30.981997   -0.509932    0.599307
     16          6           0       31.339369   -1.844781    0.346023
     17          6           0       32.559187   -2.092580    0.992212
     18          6           0       33.063483   -0.916632    1.531357
     19          6           0       31.950466    0.011215    1.416169
     20          6           0       33.220905   -3.425223    0.861115
     21          6           0       34.406023   -0.625816    2.279820
     22          8           0       34.748985    0.473009    2.702787
     23          6           0       35.529255   -1.662725    2.366476
     24          7           0       29.568399    2.025909    1.482587
     25          6           0       30.766816    2.167141    2.091758
     26          6           0       30.917302    3.495087    2.859406
     27          6           0       29.500774    4.102902    2.662486
     28          6           0       28.859947    3.204498    1.619889
     29          6           0       31.479644    3.346454    4.312093
     30          6           0       29.417831    5.615250    2.317937
     31          6           0       29.769913    5.995167    0.942406
     32          7           0       27.428126    1.388316   -0.269130
     33          6           0       26.873888    2.476993    0.211700
     34          6           0       25.551242    2.723193   -0.371930
     35          6           0       25.365953    1.533406   -1.146114
     36          6           0       26.495155    0.747226   -1.025848
     37          6           0       24.826830    3.979793   -0.510709
     38          6           0       24.424767    0.882596   -2.040673
     39          8           0       23.377226    1.272868   -2.504144
     40          6           0       25.074663   -0.473375   -2.341670
     41          6           0       24.157691   -1.640195   -1.960082
     42          8           0       24.000129   -2.040325   -0.835975
     43          8           0       23.503546   -2.089925   -3.082080
     44          6           0       22.601032   -3.228425   -2.794210
     45          1           0       30.867450   -3.698716   -0.531076
     46          1           0       32.728092    1.601949    2.609619
     47          1           0       27.311632    4.340704    1.493460
     48          1           0       26.138858   -3.390051   -1.707312
     49          1           0       28.862697   -4.407437   -2.054776
     50          1           0       27.937550   -4.163866    0.820605
     51          1           0       28.264599   -5.500306   -0.033811
     52          1           0       26.657581   -4.733830   -0.229922
     53          1           0       28.173675   -2.445939   -3.861890
     54          1           0       26.473943   -2.256978   -4.019999
     55          1           0       26.108286   -4.375361   -4.686322
     56          1           0       27.373757   -4.988100   -3.572736
     57          1           0       32.663490   -4.176866    0.301527
     58          1           0       33.557423   -3.728837    1.853361
     59          1           0       34.106452   -3.211688    0.261894
     60          1           0       35.280847   -2.529633    2.978836
     61          1           0       36.502288   -1.257304    2.644320
     62          1           0       35.720407   -1.988821    1.343943
     63          1           0       31.668754    3.943509    2.210130
     64          1           0       28.993710    3.896844    3.605106
     65          1           0       32.135808    2.480192    4.389841
     66          1           0       30.649452    3.208133    5.005229
     67          1           0       32.082509    4.200667    4.620968
     68          1           0       30.137695    6.032849    3.021158
     69          1           0       28.445944    6.007356    2.618208
     70          1           0       28.903568    5.858236    0.295455
     71          1           0       30.644803    5.445922    0.595104
     72          1           0       29.987882    7.060197    0.857651
     73          1           0       25.599219    4.748578   -0.478379
     74          1           0       24.142567    4.301441    0.274579
     75          1           0       24.292971    3.924838   -1.458842
     76          1           0       25.292590   -0.505084   -3.409700
     77          1           0       21.729557   -3.147467   -3.443612
     78          1           0       22.107356   -3.216121   -1.822263
     79          1           0       23.083991   -4.177436   -3.024802
     80         12           0      -29.422191   -0.075758   -0.077427
     81          6           0      -25.964559   -0.399163   -0.655036
     82          6           0      -28.959703   -2.130771    2.689672
     83          6           0      -32.573075    0.502865    0.832896
     84          6           0      -29.423878    2.614722   -2.269391
     85          7           0      -27.575752   -0.991521    0.957655
     86          6           0      -26.277299   -1.119785    0.504380
     87          6           0      -25.456511   -2.197363    1.181260
     88          6           0      -26.428308   -2.769588    2.240694
     89          6           0      -27.729237   -1.937299    1.994503
     90          6           0      -26.668925   -4.329887    2.130573
     91          6           0      -24.089456   -1.732418    1.855892
     92          6           0      -24.018355   -0.309811    2.434459
     93          1           0      -24.090738   -0.136526    3.980522
     94          7           0      -30.573894   -0.720182    1.499277
     95          6           0      -30.231705   -1.597686    2.488531
     96          6           0      -31.404659   -1.894126    3.322965
     97          6           0      -32.485647   -1.128079    2.788783
     98          6           0      -31.876245   -0.384034    1.643974
     99          6           0      -31.381523   -2.865177    4.497398
    100          6           0      -33.875997   -1.145870    3.526840
    101          8           0      -33.967649   -1.794138    4.559991
    102          6           0      -35.081108   -0.268849    2.983162
    103          7           0      -30.726756    1.410917   -0.544640
    104          6           0      -32.065360    1.360079   -0.162543
    105          6           0      -32.924536    2.522324   -0.919796
    106          6           0      -31.750237    3.238155   -1.782832
    107          6           0      -30.573806    2.356365   -1.512665
    108          6           0      -34.084615    1.944907   -1.783138
    109          6           0      -31.449813    4.749826   -1.397035
    110          6           0      -31.429623    5.811551   -2.507592
    111          7           0      -28.031081    0.873011   -1.351693
    112          6           0      -28.137651    1.957905   -2.183740
    113          6           0      -26.814614    2.215664   -2.790439
    114          6           0      -25.964759    1.200651   -2.274766
    115          6           0      -26.769071    0.454379   -1.368785
    116          6           0      -26.435219    3.323323   -3.733827
    117          6           0      -24.561668    0.745522   -2.280448
    118          8           0      -23.573814    1.069066   -2.955966
    119          6           0      -24.582075   -0.459771   -1.352193
    120          6           0      -24.285815   -1.681115   -2.022084
    121          8           0      -25.144980   -2.289191   -2.711566
    122          8           0      -22.963200   -2.098900   -1.774110
    123          6           0      -22.552335   -3.414130   -2.254875
    124          1           0      -28.914193   -2.900561    3.462431
    125          1           0      -33.647211    0.600701    1.001045
    126          1           0      -29.523242    3.432474   -2.985612
    127          1           0      -25.251599   -2.885757    0.362241
    128          1           0      -26.058509   -2.407952    3.199476
    129          1           0      -26.214583   -4.827913    2.987059
    130          1           0      -26.196355   -4.639607    1.198065
    131          1           0      -27.732690   -4.569905    2.130664
    132          1           0      -23.412054   -1.770489    1.001850
    133          1           0      -23.781144   -2.480011    2.587105
    134          1           0      -24.799366    0.318577    2.005092
    135          1           0      -23.100292    0.154179    2.076367
    136          1           0      -31.358700   -2.393596    5.479864
    137          1           0      -30.649302   -3.656671    4.337252
    138          1           0      -32.274178   -3.490446    4.498375
    139          1           0      -35.145529   -0.453808    1.910633
    140          1           0      -34.846974    0.773302    3.198786
    141          1           0      -35.999879   -0.371262    3.560632
    142          1           0      -33.421659    3.085252   -0.130369
    143          1           0      -32.020771    3.130943   -2.833513
    144          1           0      -33.711926    1.842475   -2.802097
    145          1           0      -35.001422    2.529470   -1.705786
    146          1           0      -34.446331    0.972258   -1.450054
    147          1           0      -30.510144    4.747047   -0.843730
    148          1           0      -32.285571    4.969461   -0.732690
    149          1           0      -30.888605    6.709077   -2.206587
    150          1           0      -32.490478    6.019035   -2.645905
    151          1           0      -30.945812    5.309308   -3.345578
    152          1           0      -27.146001    4.117309   -3.506345
    153          1           0      -26.691545    2.897227   -4.703778
    154          1           0      -25.378534    3.592354   -3.736391
    155          1           0      -23.801637   -0.192923   -0.639928
    156          1           0      -22.526087   -3.568119   -3.333656
    157          1           0      -23.195501   -4.183795   -1.827188
    158          1           0      -21.607621   -3.639078   -1.759615
 ---------------------------------------------------------------------

 SCF Done:  E(RCAM-B3LYP) =  -4069.81594480     A.U. after   17 cycles

 Excitation energies and oscillator strengths:

 Excited State   1:      Singlet-A      1.7179 eV  721.70 nm  f=0.3775  <S**2>=0.000
     309 -> 315       -0.18148
     312 -> 314        0.68503
     309 <- 315       -0.10790
 This state for optimization and/or second-order correction.
 Total Energy, E(TD-HF/TD-DFT) =  -4069.75281150
 Copying the excited state density for this state as the 1-particle RhoCI density.

 Excited State   2:      Singlet-A      1.7450 eV  710.50 nm  f=0.3889  <S**2>=0.000
     310 -> 316       -0.18610
     311 -> 313        0.68380
     310 <- 316       -0.10699

 Excited State   3:      Singlet-A      2.2617 eV  548.19 nm  f=0.1157  <S**2>=0.000
     310 -> 313        0.64504
     311 -> 316        0.27672

 Excited State   4:      Singlet-A      2.3104 eV  536.64 nm  f=0.0714  <S**2>=0.000
     309 -> 314        0.61632
     312 -> 315        0.33583

 Excited State   5:      Singlet-A      3.2241 eV  384.55 nm  f=0.0000  <S**2>=0.000
     312 -> 313        0.70710

 The electronic state is 1-A.
 Alpha  occ. eigenvalues --  -46.88922 -46.88702 -19.25787 -19.25781 -19.20410
 Alpha  occ. eigenvalues --  -19.20231 -19.19611 -19.19429 -19.19188 -19.18830
 Alpha  occ. eigenvalues --  -14.42633 -14.42240 -14.42078 -14.41056 -14.39954
 Alpha  occ. eigenvalues --  -14.39310 -14.39141 -14.39133 -10.40018 -10.39776
 Alpha  occ. eigenvalues --  -10.36490 -10.36164 -10.35346 -10.34505 -10.32110
 Alpha  occ. eigenvalues --  -10.31875 -10.31809 -10.31344 -10.31072 -10.30931
 Alpha  occ. eigenvalues --  -10.30634 -10.30626 -10.30581 -10.30571 -10.30355
 Alpha  occ. eigenvalues --  -10.30084 -10.29957 -10.29835 -10.29645 -10.29613
 Alpha  occ. eigenvalues --  -10.29295 -10.28995 -10.28694 -10.28672 -10.28553
 Alpha  occ. eigenvalues --  -10.28460 -10.28390 -10.28366 -10.28302 -10.28302
 Alpha  occ. eigenvalues --  -10.28300 -10.28027 -10.27958 -10.27756 -10.27737
 Alpha  occ. eigenvalues --  -10.27734 -10.27640 -10.27593 -10.27501 -10.27464
 Alpha  occ. eigenvalues --  -10.27420 -10.27385 -10.27270 -10.27149 -10.27136
 Alpha  occ. eigenvalues --  -10.27096 -10.27031 -10.26955 -10.26791 -10.26727
 Alpha  occ. eigenvalues --  -10.26655 -10.26580 -10.26566 -10.26347 -10.26188
 Alpha  occ. eigenvalues --  -10.26051 -10.25986 -10.25985 -10.25854 -10.25830
 Alpha  occ. eigenvalues --  -10.25453 -10.25284 -10.25267 -10.25169 -10.25124
 Alpha  occ. eigenvalues --  -10.24291  -3.17548  -3.17265  -1.92406  -1.92152
 Alpha  occ. eigenvalues --   -1.92020  -1.91853  -1.91734  -1.91553  -1.16828
 Alpha  occ. eigenvalues --   -1.14967  -1.10412  -1.10394  -1.10295  -1.09051
 Alpha  occ. eigenvalues --   -1.08765  -1.07017  -1.04966  -1.04142  -1.03778
 Alpha  occ. eigenvalues --   -1.03543  -1.03344  -1.02609  -1.02437  -1.01875
 Alpha  occ. eigenvalues --   -0.93818  -0.93129  -0.89431  -0.89160  -0.88843
 Alpha  occ. eigenvalues --   -0.88560  -0.88243  -0.88045  -0.87480  -0.87218
 Alpha  occ. eigenvalues --   -0.86802  -0.86195  -0.86076  -0.85557  -0.84519
 Alpha  occ. eigenvalues --   -0.84063  -0.83910  -0.83620  -0.82796  -0.82400
 Alpha  occ. eigenvalues --   -0.81658  -0.81534  -0.81005  -0.80921  -0.80408
 Alpha  occ. eigenvalues --   -0.80078  -0.78508  -0.78164  -0.77591  -0.77213
 Alpha  occ. eigenvalues --   -0.76766  -0.76580  -0.76516  -0.76149  -0.74899
 Alpha  occ. eigenvalues --   -0.74858  -0.72478  -0.72328  -0.71796  -0.71746
 Alpha  occ. eigenvalues --   -0.70047  -0.69289  -0.69159  -0.68905  -0.68429
 Alpha  occ. eigenvalues --   -0.68352  -0.67001  -0.66806  -0.65775  -0.65367
 Alpha  occ. eigenvalues --   -0.65183  -0.64823  -0.64574  -0.64437  -0.64196
 Alpha  occ. eigenvalues --   -0.64006  -0.62485  -0.62436  -0.60228  -0.60066
 Alpha  occ. eigenvalues --   -0.59618  -0.59444  -0.59374  -0.59060  -0.58648
 Alpha  occ. eigenvalues --   -0.58630  -0.58238  -0.57735  -0.57346  -0.57180
 Alpha  occ. eigenvalues --   -0.56548  -0.56138  -0.55724  -0.55599  -0.55501
 Alpha  occ. eigenvalues --   -0.55231  -0.54942  -0.54592  -0.54426  -0.54188
 Alpha  occ. eigenvalues --   -0.54010  -0.53759  -0.53245  -0.53135  -0.53080
 Alpha  occ. eigenvalues --   -0.52685  -0.52611  -0.52543  -0.52338  -0.52120
 Alpha  occ. eigenvalues --   -0.52091  -0.51557  -0.51181  -0.51127  -0.51011
 Alpha  occ. eigenvalues --   -0.50941  -0.50704  -0.50596  -0.50296  -0.50281
 Alpha  occ. eigenvalues --   -0.49974  -0.49918  -0.49624  -0.49451  -0.49353
 Alpha  occ. eigenvalues --   -0.49345  -0.49251  -0.49215  -0.48970  -0.48960
 Alpha  occ. eigenvalues --   -0.48817  -0.48567  -0.48492  -0.48341  -0.48131
 Alpha  occ. eigenvalues --   -0.47898  -0.47495  -0.47360  -0.47195  -0.47091
 Alpha  occ. eigenvalues --   -0.46655  -0.46606  -0.46442  -0.46233  -0.46154
 Alpha  occ. eigenvalues --   -0.46112  -0.45996  -0.45763  -0.45732  -0.45375
 Alpha  occ. eigenvalues --   -0.45364  -0.45072  -0.44965  -0.44961  -0.44783
 Alpha  occ. eigenvalues --   -0.44730  -0.44605  -0.44549  -0.44422  -0.44204
 Alpha  occ. eigenvalues --   -0.44175  -0.44075  -0.43917  -0.43850  -0.43662
 Alpha  occ. eigenvalues --   -0.43333  -0.43240  -0.43220  -0.43024  -0.42922
 Alpha  occ. eigenvalues --   -0.42897  -0.42669  -0.42570  -0.42400  -0.42387
 Alpha  occ. eigenvalues --   -0.42385  -0.42252  -0.42089  -0.41844  -0.41654
 Alpha  occ. eigenvalues --   -0.41555  -0.41056  -0.40767  -0.40599  -0.40266
 Alpha  occ. eigenvalues --   -0.40250  -0.39849  -0.39689  -0.39606  -0.38895
 Alpha  occ. eigenvalues --   -0.38837  -0.38471  -0.37842  -0.37742  -0.37635
 Alpha  occ. eigenvalues --   -0.37503  -0.37322  -0.37070  -0.37003  -0.36710
 Alpha  occ. eigenvalues --   -0.36618  -0.36353  -0.34923  -0.34747  -0.34399
 Alpha  occ. eigenvalues --   -0.34265  -0.33188  -0.33157  -0.31438  -0.31404
 Alpha  occ. eigenvalues --   -0.31192  -0.31086  -0.30968  -0.30803  -0.30253
 Alpha  occ. eigenvalues --   -0.30047  -0.29592  -0.29177  -0.24131  -0.23787
 Alpha  occ. eigenvalues --   -0.21069  -0.20819
 Alpha virt. eigenvalues --   -0.08379  -0.08174  -0.01796  -0.01325   0.00288
 Alpha virt. eigenvalues --    0.00440   0.01661   0.01903   0.02063   0.02561
 Alpha virt. eigenvalues --    0.03449   0.05046   0.05154   0.05233   0.05549

 Mulliken charges:
               1
     1  Mg   0.838608
     2  C    0.003056
     3  C   -0.061075
     4  C   -0.104777
     5  C   -0.054757
     6  N   -0.218653
     7  C   -0.092765
     8  C   -0.042362
     9  C   -0.061307
    10  C    0.010995
    11  C    0.050370
    12  C    0.024653
    13  C   -0.040716
    14  H    0.041616
    15  N   -0.391168
    16  C    0.155148
    17  C   -0.142611
    18  C   -0.042386
    19  C    0.127192
    20  C    0.119213
    21  C    0.040006
    22  O   -0.203576
    23  C    0.039545
    24  N   -0.333276
    25  C    0.048221
    26  C   -0.057742
    27  C    0.015396
    28  C   -0.039395
    29  C    0.082146
    30  C    0.031354
    31  C    0.039674
    32  N   -0.320462
    33  C    0.146499
    34  C   -0.155197
    35  C   -0.024220
    36  C    0.123345
    37  C    0.118395
    38  C    0.036039
    39  O   -0.149035
    40  C   -0.004670
    41  C    0.202101
    42  O   -0.198431
    43  O   -0.329894
    44  C    0.164262
    45  H   -0.038350
    46  H   -0.000496
    47  H   -0.043695
    48  H    0.025023
    49  H    0.023758
    50  H    0.021435
    51  H    0.003549
    52  H    0.029317
    53  H    0.011278
    54  H    0.008517
    55  H    0.027383
    56  H    0.016223
    57  H    0.020644
    58  H    0.026108
    59  H    0.028286
    60  H    0.036699
    61  H    0.028213
    62  H    0.021109
    63  H    0.014647
    64  H    0.015005
    65  H    0.028219
    66  H    0.010040
    67  H    0.017424
    68  H   -0.003790
    69  H    0.009895
    70  H    0.011559
    71  H    0.012329
    72  H    0.011283
    73  H    0.009260
    74  H    0.018032
    75  H    0.040681
    76  H    0.048860
    77  H    0.031875
    78  H    0.052092
    79  H    0.038229
    80  Mg   0.851597
    81  C   -0.100121
    82  C   -0.078307
    83  C   -0.099252
    84  C   -0.088963
    85  N   -0.279367
    86  C   -0.081207
    87  C   -0.019319
    88  C   -0.002816
    89  C   -0.000115
    90  C    0.073889
    91  C    0.027091
    92  C   -0.064903
    93  H    0.020888
    94  N   -0.362110
    95  C    0.140207
    96  C   -0.140675
    97  C   -0.078383
    98  C    0.187256
    99  C    0.142636
   100  C    0.026519
   101  O   -0.197144
   102  C    0.035344
   103  N   -0.347428
   104  C    0.055860
   105  C   -0.054204
   106  C   -0.028391
   107  C    0.061100
   108  C    0.055239
   109  C    0.021390
   110  C    0.018574
   111  N   -0.317882
   112  C    0.107219
   113  C   -0.195286
   114  C   -0.057873
   115  C    0.233631
   116  C    0.136020
   117  C    0.071831
   118  O   -0.182058
   119  C    0.008132
   120  C    0.252100
   121  O   -0.249971
   122  O   -0.351328
   123  C    0.193048
   124  H   -0.033200
   125  H   -0.057994
   126  H   -0.041237
   127  H    0.023636
   128  H    0.018849
   129  H    0.021276
   130  H    0.018762
   131  H    0.026152
   132  H    0.015715
   133  H    0.022983
   134  H    0.041899
   135  H    0.033139
   136  H    0.040400
   137  H    0.001795
   138  H    0.020831
   139  H    0.054660
   140  H    0.038700
   141  H    0.026063
   142  H    0.018357
   143  H    0.011702
   144  H    0.016642
   145  H    0.015995
   146  H    0.011098
   147  H    0.024251
   148  H    0.000201
   149  H    0.028362
   150  H    0.019636
   151  H    0.018978
   152  H    0.013663
   153  H    0.031449
   154  H    0.042873
   155  H    0.030577
   156  H    0.050927
   157  H    0.016617
   158  H    0.033775
 Sum of Mulliken charges =  -0.00000

 Dipole moment (field-independent basis, Debye):
    X=              0.7277    Y=             -2.8421    Z=             -0.0379  Tot=              2.9341
 Quadrupole moment (field-independent basis, Debye-Ang):
   XX=           -210.0347   YY=           -461.5612   ZZ=           -535.7175
   XY=            -94.6178   XZ=              8.1662   YZ=             10.0186

 Normal termination of Gaussian 16 at Tue Aug 31 22:14:56 2021.
