 Gaussian 16, Revision A.03,
 Gaussian 16:  ES64L-G16RevA.03 25-Dec-2016

 ----------------------------------------------------------
 #p cam-b3lyp/Def2SVP td=(nstates=5) density=(transition=1)
 ----------------------------------------------------------

 --------------------------------
 TDDFT excited states in gaussian
 --------------------------------
 Symbolic Z-matrix:
 Charge =  0 Multiplicity = 1

                         Standard orientation:
 ---------------------------------------------------------------------
 Center     Atomic      Atomic             Coordinates (Angstroms)
 Number     Number       Type             X           Y           Z
 ---------------------------------------------------------------------
      1         12           0      -21.210051    0.133338   -0.143619
      2          6           0      -17.667345    0.259653   -0.141794
      3          6           0      -21.000561   -2.327568   -2.473357
      4          6           0      -24.486506   -0.531520    0.474598
      5          6           0      -21.184261    2.265127    2.589062
      6          7           0      -19.430894   -0.955942   -1.012317
      7          6           0      -18.084814   -0.705085   -0.977374
      8          6           0      -17.332668   -1.568263   -1.920852
      9          6           0      -18.477994   -2.138388   -2.883072
     10          6           0      -19.700672   -1.815196   -2.094137
     11          6           0      -18.436342   -1.492480   -4.258591
     12          6           0      -16.544855   -2.585183   -1.080110
     13          6           0      -14.979834   -2.683466   -1.322937
     14          1           0      -14.298351   -4.039941   -1.675444
     15          7           0      -22.611756   -1.183256   -0.886825
     16          6           0      -22.324379   -2.072982   -1.931248
     17          6           0      -23.561296   -2.653626   -2.360009
     18          6           0      -24.616848   -2.185706   -1.506496
     19          6           0      -23.929721   -1.198464   -0.631423
     20          6           0      -23.608452   -3.592967   -3.558262
     21          6           0      -26.082306   -2.559378   -1.514121
     22          8           0      -26.406488   -3.306068   -2.482541
     23          6           0      -27.173955   -2.238153   -0.454437
     24          7           0      -22.678815    0.779819    1.333817
     25          6           0      -23.970114    0.382076    1.349900
     26          6           0      -24.783584    0.994069    2.520988
     27          6           0      -23.733959    1.985091    3.132411
     28          6           0      -22.409481    1.607988    2.316050
     29          6           0      -26.033200    1.664739    1.979136
     30          6           0      -23.505741    1.850182    4.607025
     31          6           0      -23.992941    3.026769    5.408401
     32          7           0      -19.843808    1.209677    0.898861
     33          6           0      -19.927882    2.102408    1.974839
     34          6           0      -18.742747    2.761571    2.191707
     35          6           0      -17.822924    2.097538    1.354684
     36          6           0      -18.525118    1.119038    0.654764
     37          6           0      -18.616322    4.001668    3.051082
     38          6           0      -16.412235    2.119053    0.884544
     39          8           0      -15.524270    2.850912    1.194999
     40          6           0      -16.326558    0.843418   -0.036158
     41          6           0      -15.478242    1.218807   -1.231600
     42          8           0      -14.307489    0.874988   -1.394608
     43          8           0      -16.238537    1.974981   -2.156481
     44          6           0      -15.500373    2.255739   -3.387547
     45          1           0      -20.965243   -2.952097   -3.368721
     46          1           0      -25.560425   -0.639359    0.644057
     47          1           0      -21.069879    2.754507    3.557877
     48          1           0      -16.626340   -0.959019   -2.484929
     49          1           0      -18.313908   -3.208421   -3.007542
     50          1           0      -18.178686   -0.434667   -4.229224
     51          1           0      -19.443013   -1.515992   -4.677251
     52          1           0      -17.802650   -2.018560   -4.972540
     53          1           0      -16.986644   -3.563665   -1.267955
     54          1           0      -16.708222   -2.490218   -0.006612
     55          1           0      -14.620345   -2.363633   -0.344547
     56          1           0      -14.637505   -1.871143   -1.962981
     57          1           0      -22.863334   -4.383236   -3.466617
     58          1           0      -23.349941   -2.986601   -4.426276
     59          1           0      -24.521820   -4.169481   -3.711162
     60          1           0      -27.317862   -1.163972   -0.566282
     61          1           0      -26.780849   -2.481649    0.532686
     62          1           0      -28.088368   -2.811881   -0.607720
     63          1           0      -25.120486    0.264853    3.257333
     64          1           0      -23.957169    3.003515    2.815503
     65          1           0      -26.541508    0.945537    1.336673
     66          1           0      -25.725402    2.531977    1.394082
     67          1           0      -26.737467    2.123775    2.671930
     68          1           0      -22.454061    1.766219    4.880935
     69          1           0      -23.933456    0.972621    5.091443
     70          1           0      -24.664628    2.650562    6.179041
     71          1           0      -24.604386    3.713053    4.822525
     72          1           0      -23.196939    3.642360    5.828718
     73          1           0      -17.674474    4.470198    2.763784
     74          1           0      -18.596833    3.767637    4.115217
     75          1           0      -19.493035    4.599403    2.802701
     76          1           0      -15.667492    0.195586    0.542966
     77          1           0      -16.187862    2.391519   -4.222535
     78          1           0      -14.923223    1.390673   -3.711042
     79          1           0      -14.818393    3.101317   -3.293963
     80         12           0       20.590341   -0.806100    0.266725
     81          6           0       21.446519    2.342637   -1.069907
     82          6           0       17.488635    0.455984    1.040015
     83          6           0       19.723538   -3.750527    1.630368
     84          6           0       23.916545   -1.855776   -0.012082
     85          7           0       19.638096    1.119730   -0.140324
     86          6           0       20.068228    2.261092   -0.670482
     87          6           0       19.043949    3.411948   -0.753862
     88          6           0       17.942199    2.759549    0.213990
     89          6           0       18.413945    1.342115    0.428443
     90          6           0       17.767455    3.496943    1.519382
     91          6           0       18.476844    3.697555   -2.252657
     92          6           0       18.007530    5.141622   -2.452318
     93          1           0       18.783092    5.914487   -3.550066
     94          7           0       18.772345   -1.636359    1.078814
     95          6           0       17.601855   -0.885562    1.350564
     96          6           0       16.567695   -1.837031    1.689603
     97          6           0       17.179693   -3.077265    1.847318
     98          6           0       18.623141   -2.888786    1.499860
     99          6           0       15.144002   -1.448961    2.041657
    100          6           0       16.619579   -4.433593    2.209821
    101          8           0       17.335850   -5.391861    2.207587
    102          6           0       15.167304   -4.641384    2.503519
    103          7           0       21.678864   -2.479987    0.928770
    104          6           0       21.085675   -3.615382    1.398586
    105          6           0       22.219110   -4.666523    1.557277
    106          6           0       23.299083   -4.275521    0.564452
    107          6           0       23.004904   -2.759721    0.471800
    108          6           0       22.784375   -4.590359    2.974852
    109          6           0       23.240794   -4.994614   -0.732281
    110          6           0       21.914639   -5.125845   -1.439512
    111          7           0       22.353038    0.006259   -0.422989
    112          6           0       23.635324   -0.506881   -0.476928
    113          6           0       24.522870    0.498486   -1.081588
    114          6           0       23.691079    1.601216   -1.342715
    115          6           0       22.428454    1.262083   -0.939297
    116          6           0       25.968519    0.367680   -1.298229
    117          6           0       23.601271    2.882658   -1.989815
    118          8           0       24.473149    3.561620   -2.607720
    119          6           0       22.086755    3.382743   -1.844190
    120          6           0       22.137680    4.668223   -1.059797
    121          8           0       22.766176    4.788443   -0.050222
    122          8           0       21.335264    5.726858   -1.565116
    123          6           0       21.131017    6.872180   -0.626850
    124          1           0       16.517114    0.852445    1.340444
    125          1           0       19.510085   -4.682918    2.157878
    126          1           0       24.924008   -2.175080   -0.287852
    127          1           0       19.503807    4.345294   -0.426671
    128          1           0       17.022513    2.808314   -0.370326
    129          1           0       16.900963    4.144533    1.386495
    130          1           0       18.675825    4.004775    1.844223
    131          1           0       17.415926    2.727508    2.206691
    132          1           0       17.625701    3.046976   -2.456038
    133          1           0       19.222995    3.432706   -3.002072
    134          1           0       18.126855    5.547359   -1.447497
    135          1           0       16.935469    5.203095   -2.638444
    136          1           0       15.028223   -0.450851    1.620898
    137          1           0       15.183965   -1.350585    3.126099
    138          1           0       14.408048   -2.127594    1.609983
    139          1           0       14.765017   -4.522389    1.497338
    140          1           0       14.722429   -3.887641    3.152616
    141          1           0       15.001149   -5.640991    2.906579
    142          1           0       21.911581   -5.704317    1.433539
    143          1           0       24.321882   -4.461093    0.890711
    144          1           0       23.731236   -4.080675    3.153402
    145          1           0       22.884325   -5.613042    3.338342
    146          1           0       22.033683   -4.117961    3.609438
    147          1           0       23.681183   -5.989743   -0.665669
    148          1           0       23.898464   -4.415086   -1.379870
    149          1           0       21.997755   -4.509311   -2.335003
    150          1           0       20.959328   -4.854529   -0.989236
    151          1           0       21.819892   -6.153729   -1.789268
    152          1           0       26.459866    0.392655   -0.325633
    153          1           0       26.207403    1.204730   -1.954166
    154          1           0       26.221171   -0.599130   -1.735670
    155          1           0       21.726188    3.458660   -2.870187
    156          1           0       22.016144    7.507950   -0.608178
    157          1           0       20.902413    6.557298    0.392351
    158          1           0       20.356440    7.585738   -0.906395
 ---------------------------------------------------------------------

 SCF Done:  E(RCAM-B3LYP) =  -4069.80351892     A.U. after   19 cycles

 Excitation energies and oscillator strengths:

 Excited State   1:      Singlet-A      1.6837 eV  736.38 nm  f=0.3745  <S**2>=0.000
     309 -> 315       -0.17383
     311 -> 313        0.68644
     309 <- 315       -0.10790
 This state for optimization and/or second-order correction.
 Total Energy, E(TD-HF/TD-DFT) =  -4069.74164424
 Copying the excited state density for this state as the 1-particle RhoCI density.

 Excited State   2:      Singlet-A      1.6960 eV  731.05 nm  f=0.3583  <S**2>=0.000
     310 -> 316       -0.17400
     312 -> 314        0.68728
     310 <- 316       -0.10602

 Excited State   3:      Singlet-A      2.1843 eV  567.62 nm  f=0.1189  <S**2>=0.000
     310 -> 314        0.64718
     312 -> 316        0.27033

 Excited State   4:      Singlet-A      2.2197 eV  558.57 nm  f=0.1596  <S**2>=0.000
     309 -> 313        0.64872
     311 -> 315        0.26686

 Excited State   5:      Singlet-A      3.0336 eV  408.71 nm  f=0.0000  <S**2>=0.000
     312 -> 313        0.70710

 The electronic state is 1-A.
 Alpha  occ. eigenvalues --  -46.89076 -46.88599 -19.25705 -19.24475 -19.21087
 Alpha  occ. eigenvalues --  -19.20020 -19.19927 -19.19055 -19.18367 -19.18217
 Alpha  occ. eigenvalues --  -14.43390 -14.42439 -14.42297 -14.41316 -14.40156
 Alpha  occ. eigenvalues --  -14.39682 -14.39067 -14.39032 -10.40431 -10.39375
 Alpha  occ. eigenvalues --  -10.35726 -10.35553 -10.35160 -10.34718 -10.32056
 Alpha  occ. eigenvalues --  -10.31826 -10.31741 -10.31659 -10.31249 -10.31189
 Alpha  occ. eigenvalues --  -10.31095 -10.30924 -10.30923 -10.30735 -10.30704
 Alpha  occ. eigenvalues --  -10.30621 -10.30584 -10.30495 -10.29412 -10.29364
 Alpha  occ. eigenvalues --  -10.29129 -10.28930 -10.28831 -10.28778 -10.28648
 Alpha  occ. eigenvalues --  -10.28613 -10.28605 -10.28469 -10.28402 -10.28388
 Alpha  occ. eigenvalues --  -10.28362 -10.28342 -10.28286 -10.28276 -10.28213
 Alpha  occ. eigenvalues --  -10.28175 -10.28101 -10.28051 -10.27794 -10.27548
 Alpha  occ. eigenvalues --  -10.27503 -10.27433 -10.27369 -10.27199 -10.27102
 Alpha  occ. eigenvalues --  -10.27101 -10.27097 -10.27046 -10.26825 -10.26671
 Alpha  occ. eigenvalues --  -10.26657 -10.26627 -10.26559 -10.26553 -10.26389
 Alpha  occ. eigenvalues --  -10.26364 -10.26016 -10.25596 -10.25433 -10.25375
 Alpha  occ. eigenvalues --  -10.25265 -10.25154 -10.25095 -10.25084 -10.24440
 Alpha  occ. eigenvalues --  -10.24402  -3.17640  -3.17094  -1.92520  -1.92101
 Alpha  occ. eigenvalues --   -1.92016  -1.91945  -1.91525  -1.91410  -1.15667
 Alpha  occ. eigenvalues --   -1.15590  -1.12116  -1.12090  -1.08030  -1.07693
 Alpha  occ. eigenvalues --   -1.07357  -1.06631  -1.05321  -1.05273  -1.04343
 Alpha  occ. eigenvalues --   -1.03514  -1.03426  -1.02911  -1.02822  -1.01745
 Alpha  occ. eigenvalues --   -0.93390  -0.92927  -0.90024  -0.90000  -0.89415
 Alpha  occ. eigenvalues --   -0.89391  -0.89135  -0.88808  -0.87936  -0.87823
 Alpha  occ. eigenvalues --   -0.87083  -0.86911  -0.86198  -0.86022  -0.84907
 Alpha  occ. eigenvalues --   -0.84682  -0.84349  -0.83551  -0.82706  -0.82602
 Alpha  occ. eigenvalues --   -0.82449  -0.82018  -0.81089  -0.80775  -0.80570
 Alpha  occ. eigenvalues --   -0.79899  -0.78886  -0.77884  -0.77533  -0.77324
 Alpha  occ. eigenvalues --   -0.77084  -0.76973  -0.76573  -0.76261  -0.75580
 Alpha  occ. eigenvalues --   -0.74967  -0.73599  -0.72434  -0.72299  -0.71310
 Alpha  occ. eigenvalues --   -0.69682  -0.69484  -0.69059  -0.68825  -0.67818
 Alpha  occ. eigenvalues --   -0.67792  -0.67309  -0.67098  -0.66421  -0.65805
 Alpha  occ. eigenvalues --   -0.65770  -0.65427  -0.65008  -0.64916  -0.64181
 Alpha  occ. eigenvalues --   -0.63387  -0.63201  -0.61746  -0.60604  -0.60359
 Alpha  occ. eigenvalues --   -0.60170  -0.59915  -0.59669  -0.59123  -0.59034
 Alpha  occ. eigenvalues --   -0.58959  -0.58586  -0.58132  -0.57571  -0.56966
 Alpha  occ. eigenvalues --   -0.56371  -0.56301  -0.55907  -0.55737  -0.55705
 Alpha  occ. eigenvalues --   -0.55025  -0.54762  -0.54520  -0.54426  -0.54066
 Alpha  occ. eigenvalues --   -0.53976  -0.53956  -0.53693  -0.53662  -0.53590
 Alpha  occ. eigenvalues --   -0.53283  -0.53022  -0.52775  -0.52414  -0.52359
 Alpha  occ. eigenvalues --   -0.52118  -0.51859  -0.51786  -0.51605  -0.51504
 Alpha  occ. eigenvalues --   -0.51197  -0.50954  -0.50818  -0.50710  -0.50616
 Alpha  occ. eigenvalues --   -0.50364  -0.50177  -0.50118  -0.49989  -0.49944
 Alpha  occ. eigenvalues --   -0.49731  -0.49668  -0.49561  -0.49187  -0.49051
 Alpha  occ. eigenvalues --   -0.48983  -0.48726  -0.48414  -0.48278  -0.48199
 Alpha  occ. eigenvalues --   -0.48072  -0.47801  -0.47712  -0.47626  -0.47287
 Alpha  occ. eigenvalues --   -0.47154  -0.46959  -0.46685  -0.46678  -0.46534
 Alpha  occ. eigenvalues --   -0.46333  -0.46094  -0.45984  -0.45856  -0.45822
 Alpha  occ. eigenvalues --   -0.45571  -0.45535  -0.45383  -0.45382  -0.45224
 Alpha  occ. eigenvalues --   -0.45198  -0.44962  -0.44932  -0.44296  -0.44146
 Alpha  occ. eigenvalues --   -0.44127  -0.44039  -0.43744  -0.43710  -0.43481
 Alpha  occ. eigenvalues --   -0.43340  -0.43134  -0.43082  -0.42827  -0.42726
 Alpha  occ. eigenvalues --   -0.42577  -0.42511  -0.42501  -0.42481  -0.42443
 Alpha  occ. eigenvalues --   -0.42145  -0.41809  -0.41801  -0.41651  -0.41537
 Alpha  occ. eigenvalues --   -0.41463  -0.41187  -0.41021  -0.40908  -0.40356
 Alpha  occ. eigenvalues --   -0.40251  -0.40202  -0.39725  -0.39500  -0.39110
 Alpha  occ. eigenvalues --   -0.38849  -0.38322  -0.38294  -0.37886  -0.37693
 Alpha  occ. eigenvalues --   -0.37404  -0.37332  -0.37262  -0.37106  -0.36499
 Alpha  occ. eigenvalues --   -0.36408  -0.36171  -0.35493  -0.34769  -0.34661
 Alpha  occ. eigenvalues --   -0.34497  -0.33260  -0.33183  -0.31819  -0.31689
 Alpha  occ. eigenvalues --   -0.31344  -0.31200  -0.30648  -0.30293  -0.30088
 Alpha  occ. eigenvalues --   -0.29987  -0.29858  -0.29307  -0.24482  -0.24121
 Alpha  occ. eigenvalues --   -0.21713  -0.21365
 Alpha virt. eigenvalues --   -0.09397  -0.08938  -0.01902  -0.01716   0.00160
 Alpha virt. eigenvalues --    0.00460   0.01732   0.02196   0.02333   0.03283
 Alpha virt. eigenvalues --    0.04070   0.04676   0.04945   0.05322   0.05634

 Mulliken charges:
               1
     1  Mg  12.001560
     2  C    5.973234
     3  C    6.001574
     4  C    6.039178
     5  C    6.013033
     6  N    6.972371
     7  C    6.030034
     8  C    5.989868
     9  C    6.016786
    10  C    5.973950
    11  C    6.005136
    12  C    5.994535
    13  C    6.000573
    14  H    1.005602
    15  N    7.010224
    16  C    5.956870
    17  C    5.980351
    18  C    5.991076
    19  C    5.951261
    20  C    6.003923
    21  C    5.989108
    22  O    7.980354
    23  C    5.998140
    24  N    7.018486
    25  C    5.958339
    26  C    6.011803
    27  C    5.993256
    28  C    6.018907
    29  C    6.003925
    30  C    5.994614
    31  C    5.997807
    32  N    6.998815
    33  C    6.029242
    34  C    6.028734
    35  C    6.004993
    36  C    6.038250
    37  C    5.999405
    38  C    6.018094
    39  O    8.026498
    40  C    6.003470
    41  C    6.003423
    42  O    8.006333
    43  O    7.997967
    44  C    5.996646
    45  H    0.984605
    46  H    0.999179
    47  H    1.015800
    48  H    0.998389
    49  H    0.994431
    50  H    0.984498
    51  H    1.004897
    52  H    0.989085
    53  H    1.011187
    54  H    0.996259
    55  H    0.995222
    56  H    0.998423
    57  H    0.981994
    58  H    0.981406
    59  H    0.984360
    60  H    0.990038
    61  H    0.989930
    62  H    0.989235
    63  H    0.998953
    64  H    1.002002
    65  H    1.008116
    66  H    0.994765
    67  H    0.993150
    68  H    0.994584
    69  H    1.011102
    70  H    1.007256
    71  H    1.005403
    72  H    0.997751
    73  H    1.015304
    74  H    1.020995
    75  H    1.016511
    76  H    1.004621
    77  H    1.007015
    78  H    1.005627
    79  H    1.000162
    80  Mg  12.000198
    81  C    5.999191
    82  C    6.000766
    83  C    6.000671
    84  C    5.999391
    85  N    6.999655
    86  C    6.001465
    87  C    5.999472
    88  C    6.000654
    89  C    5.998451
    90  C    6.000181
    91  C    5.999974
    92  C    5.999988
    93  H    0.999909
    94  N    7.000457
    95  C    5.998130
    96  C    5.999691
    97  C    5.999166
    98  C    5.998896
    99  C    6.000064
   100  C    5.999627
   101  O    7.999051
   102  C    6.000116
   103  N    7.000009
   104  C    5.998990
   105  C    6.000100
   106  C    5.999834
   107  C    6.001090
   108  C    5.999961
   109  C    5.999767
   110  C    5.999975
   111  N    6.999947
   112  C    6.001606
   113  C    6.001090
   114  C    6.000135
   115  C    6.001063
   116  C    5.999923
   117  C    6.000456
   118  O    8.001104
   119  C    6.000164
   120  C    6.000199
   121  O    8.000084
   122  O    8.000103
   123  C    5.999912
   124  H    0.999543
   125  H    0.999865
   126  H    1.000335
   127  H    0.999903
   128  H    0.999699
   129  H    0.999603
   130  H    0.999479
   131  H    1.000159
   132  H    1.000390
   133  H    0.999798
   134  H    1.000075
   135  H    1.000134
   136  H    0.999396
   137  H    0.999415
   138  H    0.999424
   139  H    0.999723
   140  H    0.999673
   141  H    0.999500
   142  H    1.000054
   143  H    1.000061
   144  H    0.999577
   145  H    0.999973
   146  H    1.000198
   147  H    1.000319
   148  H    0.999786
   149  H    0.999787
   150  H    1.000552
   151  H    1.000142
   152  H    1.000813
   153  H    1.000519
   154  H    1.000779
   155  H    1.000236
   156  H    1.000072
   157  H    1.000174
   158  H    1.000170
 Sum of Mulliken charges = 624.00000

 Dipole moment (field-independent basis, Debye):
    X=              6.3409    Y=              6.7727    Z=              5.5897  Tot=             10.8315
 Quadrupole moment (field-independent basis, Debye-Ang):
   XX=           -240.9089   YY=              1.0429   ZZ=             -0.2625
   XY=           -137.8998   XZ=           -125.8559   YZ=             -0.1716

 Normal termination of Gaussian 16 at Wed Sep 22 16:56:04 2021.
