 Gaussian 16, Revision A.03,
 Gaussian 16:  ES64L-G16RevA.03 25-Dec-2016

 -----------------------------------
 #p cam-b3lyp/Def2SVP td=(nstates=5)
 -----------------------------------

 --------------------------------
 TDDFT excited states in gaussian
 --------------------------------
 Symbolic Z-matrix:
 Charge =  0 Multiplicity = 1

                         Standard orientation:
 ---------------------------------------------------------------------
 Center     Atomic      Atomic             Coordinates (Angstroms)
 Number     Number       Type             X           Y           Z
 ---------------------------------------------------------------------
      1         12           0       13.641154    0.198907    0.367164
      2          6           0       10.220023   -0.431063   -0.560846
      3          6           0       14.174307    1.133810   -2.872520
      4          6           0       16.885847    0.490713    1.166090
      5          6           0       12.983663   -1.226112    3.381826
      6          7           0       12.250647    0.380156   -1.554111
      7          6           0       10.916375    0.097508   -1.601644
      8          6           0       10.421259    0.547816   -2.923545
      9          6           0       11.693888    0.923787   -3.731895
     10          6           0       12.855258    0.780295   -2.710570
     11          6           0       11.909821   -0.026043   -4.952818
     12          6           0        9.388854    1.647078   -2.900780
     13          6           0        8.657164    2.004327   -4.184503
     14          1           0        7.190578    2.091557   -4.110722
     15          7           0       15.254158    0.835849   -0.661841
     16          6           0       15.300011    1.094142   -2.059685
     17          6           0       16.653824    1.604459   -2.346706
     18          6           0       17.414650    1.325726   -1.214295
     19          6           0       16.516160    0.793251   -0.173938
     20          6           0       17.025735    2.112113   -3.724192
     21          6           0       18.914214    1.579679   -0.948328
     22          8           0       19.546088    1.091858    0.007436
     23          6           0       19.612336    2.482397   -1.881640
     24          7           0       14.829731   -0.355554    2.031246
     25          6           0       16.121153   -0.143424    2.180706
     26          6           0       16.678750   -0.657161    3.536518
     27          6           0       15.376490   -0.954077    4.283286
     28          6           0       14.337845   -0.796849    3.196448
     29          6           0       17.575915   -1.926545    3.346441
     30          6           0       15.072960   -0.101067    5.494328
     31          6           0       14.520874   -0.830839    6.731765
     32          7           0       11.945516   -0.559130    1.253653
     33          6           0       11.847214   -1.100600    2.516749
     34          6           0       10.440263   -1.491959    2.832326
     35          6           0        9.852555   -1.237457    1.609581
     36          6           0       10.769962   -0.736245    0.678213
     37          6           0        9.853293   -1.883138    4.150447
     38          6           0        8.568270   -1.315428    0.929136
     39          8           0        7.491616   -1.662590    1.401365
     40          6           0        8.734719   -0.794249   -0.516726
     41          6           0        8.160327   -1.793806   -1.380721
     42          8           0        8.668747   -2.894592   -1.703057
     43          8           0        7.026028   -1.316931   -1.964179
     44          6           0        6.449534   -2.054324   -3.067178
     45          1           0       14.341396    1.516823   -3.881144
     46          1           0       17.955551    0.427726    1.375639
     47          1           0       12.935032   -1.867796    4.263841
     48          1           0        9.982263   -0.359841   -3.335644
     49          1           0       11.653261    1.940809   -4.122301
     50          1           0       12.082134    0.329913   -5.969037
     51          1           0       10.995645   -0.618256   -4.990446
     52          1           0       12.648434   -0.813535   -4.800730
     53          1           0        9.838327    2.604668   -2.637375
     54          1           0        8.732964    1.572120   -2.033876
     55          1           0        8.862635    1.269628   -4.961586
     56          1           0        8.894976    3.052398   -4.364555
     57          1           0       17.972889    1.728089   -4.102467
     58          1           0       17.066690    3.198477   -3.800543
     59          1           0       16.348363    1.809391   -4.523087
     60          1           0       19.032219    3.401057   -1.970120
     61          1           0       19.582206    1.918008   -2.813008
     62          1           0       20.553110    2.749981   -1.401963
     63          1           0       17.228302    0.178029    3.972087
     64          1           0       15.247720   -1.977554    4.634282
     65          1           0       17.110087   -2.814564    3.772649
     66          1           0       18.526269   -1.821583    3.869833
     67          1           0       17.679576   -2.045287    2.267791
     68          1           0       14.392546    0.715310    5.254214
     69          1           0       15.970600    0.503837    5.618365
     70          1           0       14.822991   -0.245362    7.599576
     71          1           0       14.784257   -1.888672    6.757677
     72          1           0       13.449245   -0.781350    6.539882
     73          1           0        9.317024   -1.081170    4.658100
     74          1           0       10.669231   -2.355434    4.696771
     75          1           0        9.228208   -2.766507    4.014170
     76          1           0        8.036593    0.040168   -0.582978
     77          1           0        7.051227   -2.893519   -3.417215
     78          1           0        6.173820   -1.380209   -3.877675
     79          1           0        5.489215   -2.498452   -2.803881
     80         12           0      -13.130093   -0.478772   -0.529383
     81          6           0      -12.917027    2.678808    0.827296
     82          6           0       -9.900918   -0.162593   -1.595569
     83          6           0      -12.996542   -3.777696   -0.638839
     84          6           0      -16.423376   -0.648623    0.675988
     85          7           0      -11.484098    0.943601    0.047345
     86          6           0      -11.692042    2.242280    0.385286
     87          6           0      -10.451192    3.077551    0.271139
     88          6           0       -9.704614    2.293876   -0.856479
     89          6           0      -10.444946    0.964632   -0.867063
     90          6           0       -9.680773    3.053610   -2.213773
     91          6           0       -9.601015    3.095879    1.638913
     92          6           0       -8.854591    4.471890    1.964397
     93          1           0       -7.374286    4.190614    2.039381
     94          7           0      -11.704027   -1.765666   -1.238951
     95          6           0      -10.415226   -1.513522   -1.556714
     96          6           0       -9.725353   -2.743457   -1.924848
     97          6           0      -10.627738   -3.799346   -1.681894
     98          6           0      -11.845031   -3.120265   -1.155658
     99          6           0       -8.251785   -2.724808   -2.398685
    100          6           0      -10.226611   -5.246732   -1.745603
    101          8           0       -9.112910   -5.538484   -2.096022
    102          6           0      -11.132647   -6.425405   -1.341346
    103          7           0      -14.558088   -2.053745   -0.175744
    104          6           0      -14.250562   -3.270043   -0.275049
    105          6           0      -15.314324   -4.189671    0.199294
    106          6           0      -16.461563   -3.191162    0.624469
    107          6           0      -15.811481   -1.899957    0.375615
    108          6           0      -15.673775   -5.266513   -0.879606
    109          6           0      -16.887147   -3.380843    2.153708
    110          6           0      -18.278654   -2.802780    2.595151
    111          7           0      -14.473632    0.739642    0.455376
    112          6           0      -15.806737    0.563851    0.779161
    113          6           0      -16.371926    1.787533    1.276277
    114          6           0      -15.254869    2.694424    1.268068
    115          6           0      -14.138016    1.984715    0.871133
    116          6           0      -17.783959    2.042342    1.695305
    117          6           0      -14.878760    4.040977    1.528826
    118          8           0      -15.465353    5.050072    1.940760
    119          6           0      -13.316586    4.039844    1.441469
    120          6           0      -12.932061    5.258010    0.669850
    121          8           0      -12.628901    6.348482    1.174006
    122          8           0      -13.021152    5.003533   -0.670902
    123          6           0      -12.680860    6.244064   -1.422666
    124          1           0       -8.931561   -0.121046   -2.097397
    125          1           0      -12.901824   -4.865026   -0.629787
    126          1           0      -17.394569   -0.745066    1.167370
    127          1           0      -10.814532    4.036305   -0.096666
    128          1           0       -8.655514    2.187932   -0.579825
    129          1           0       -8.650639    3.299128   -2.470309
    130          1           0      -10.186438    4.006680   -2.055236
    131          1           0      -10.210178    2.439363   -2.941476
    132          1           0       -8.897909    2.275290    1.780862
    133          1           0      -10.255366    2.919218    2.491955
    134          1           0       -9.193826    4.724618    2.969072
    135          1           0       -9.068476    5.358560    1.367487
    136          1           0       -7.566776   -3.317618   -1.792630
    137          1           0       -7.833849   -1.723917   -2.512176
    138          1           0       -8.247843   -3.099021   -3.421887
    139          1           0      -12.013208   -6.528404   -1.974621
    140          1           0      -11.438600   -6.404492   -0.295073
    141          1           0      -10.469573   -7.291054   -1.344893
    142          1           0      -14.871968   -4.644096    1.085716
    143          1           0      -17.363313   -3.146604    0.014235
    144          1           0      -15.492488   -6.240071   -0.424699
    145          1           0      -15.086940   -5.142688   -1.789945
    146          1           0      -16.741764   -5.364041   -1.073895
    147          1           0      -16.140155   -2.930230    2.807541
    148          1           0      -16.867829   -4.456515    2.322574
    149          1           0      -19.054279   -3.451020    3.002019
    150          1           0      -18.790380   -2.350531    1.746718
    151          1           0      -18.141076   -2.020912    3.342067
    152          1           0      -18.508945    1.259559    1.473126
    153          1           0      -17.965715    2.961183    1.139271
    154          1           0      -17.623531    2.287981    2.745158
    155          1           0      -12.813042    4.028051    2.408706
    156          1           0      -13.473737    6.978414   -1.284238
    157          1           0      -12.722975    6.107023   -2.503219
    158          1           0      -11.694826    6.569558   -1.090515
 ---------------------------------------------------------------------

 SCF Done:  E(RCAM-B3LYP) =  -4069.80850118     A.U. after   19 cycles

 Excitation energies and oscillator strengths:

 Excited State   1:      Singlet-A      1.6896 eV  733.82 nm  f=0.3744  <S**2>=0.000
     309 -> 316       -0.16426
     311 -> 313        0.68764
     309 <- 316       -0.10165
 This state for optimization and/or second-order correction.
 Total Energy, E(TD-HF/TD-DFT) =  -4069.74641056
 Copying the excited state density for this state as the 1-particle RhoCI density.

 Excited State   2:      Singlet-A      1.7540 eV  706.85 nm  f=0.3702  <S**2>=0.000
     310 -> 315       -0.19886
     312 -> 314        0.68097
     310 <- 315       -0.11267

 Excited State   3:      Singlet-A      2.2124 eV  560.42 nm  f=0.1068  <S**2>=0.000
     309 -> 313        0.64123
     311 -> 316        0.27959

 Excited State   4:      Singlet-A      2.3188 eV  534.70 nm  f=0.0721  <S**2>=0.000
     310 -> 314        0.61702
     312 -> 315        0.33883

 Excited State   5:      Singlet-A      2.9535 eV  419.78 nm  f=0.0000  <S**2>=0.000
     312 -> 313        0.70707

 The electronic state is 1-A.
 Alpha  occ. eigenvalues --  -46.89164 -46.88512 -19.25514 -19.25179 -19.19453
 Alpha  occ. eigenvalues --  -19.19041 -19.18994 -19.18852 -19.18620 -19.17845
 Alpha  occ. eigenvalues --  -14.42055 -14.41918 -14.41848 -14.41115 -14.40251
 Alpha  occ. eigenvalues --  -14.39776 -14.39611 -14.38532 -10.39155 -10.38613
 Alpha  occ. eigenvalues --  -10.35687 -10.35259 -10.34463 -10.34017 -10.32258
 Alpha  occ. eigenvalues --  -10.31672 -10.31651 -10.31236 -10.30925 -10.30762
 Alpha  occ. eigenvalues --  -10.30625 -10.30618 -10.30570 -10.30486 -10.30416
 Alpha  occ. eigenvalues --  -10.30405 -10.30194 -10.30095 -10.29909 -10.29310
 Alpha  occ. eigenvalues --  -10.29046 -10.28715 -10.28622 -10.28413 -10.28335
 Alpha  occ. eigenvalues --  -10.28331 -10.28153 -10.28134 -10.28106 -10.28023
 Alpha  occ. eigenvalues --  -10.28001 -10.27976 -10.27966 -10.27791 -10.27718
 Alpha  occ. eigenvalues --  -10.27628 -10.27616 -10.27549 -10.27531 -10.27511
 Alpha  occ. eigenvalues --  -10.27366 -10.27337 -10.27238 -10.27206 -10.27108
 Alpha  occ. eigenvalues --  -10.27088 -10.26977 -10.26942 -10.26930 -10.26612
 Alpha  occ. eigenvalues --  -10.26586 -10.26555 -10.26510 -10.26302 -10.26229
 Alpha  occ. eigenvalues --  -10.26225 -10.26170 -10.26164 -10.26105 -10.25994
 Alpha  occ. eigenvalues --  -10.25941 -10.25928 -10.25776 -10.25711 -10.24616
 Alpha  occ. eigenvalues --  -10.24375  -3.17738  -3.17118  -1.92625  -1.92207
 Alpha  occ. eigenvalues --   -1.92029  -1.92026  -1.91565  -1.91430  -1.16127
 Alpha  occ. eigenvalues --   -1.15902  -1.11886  -1.09486  -1.09073  -1.08052
 Alpha  occ. eigenvalues --   -1.06994  -1.06379  -1.05972  -1.05778  -1.04590
 Alpha  occ. eigenvalues --   -1.04532  -1.03878  -1.03088  -1.02770  -1.02193
 Alpha  occ. eigenvalues --   -0.93176  -0.92441  -0.90101  -0.89675  -0.89331
 Alpha  occ. eigenvalues --   -0.88633  -0.88489  -0.88200  -0.87601  -0.87241
 Alpha  occ. eigenvalues --   -0.87091  -0.86815  -0.86635  -0.86571  -0.84687
 Alpha  occ. eigenvalues --   -0.84240  -0.84077  -0.83750  -0.82946  -0.82617
 Alpha  occ. eigenvalues --   -0.82220  -0.81762  -0.81255  -0.80890  -0.80855
 Alpha  occ. eigenvalues --   -0.80292  -0.78679  -0.78369  -0.77779  -0.77731
 Alpha  occ. eigenvalues --   -0.77455  -0.76748  -0.76587  -0.75921  -0.75434
 Alpha  occ. eigenvalues --   -0.75258  -0.73001  -0.72634  -0.72165  -0.71966
 Alpha  occ. eigenvalues --   -0.70434  -0.69553  -0.69276  -0.69253  -0.68099
 Alpha  occ. eigenvalues --   -0.68092  -0.67684  -0.66767  -0.66543  -0.66431
 Alpha  occ. eigenvalues --   -0.65423  -0.65299  -0.65120  -0.64794  -0.64570
 Alpha  occ. eigenvalues --   -0.64405  -0.62556  -0.62370  -0.60455  -0.60419
 Alpha  occ. eigenvalues --   -0.59916  -0.59565  -0.59501  -0.59124  -0.58787
 Alpha  occ. eigenvalues --   -0.58745  -0.58407  -0.57917  -0.57623  -0.56939
 Alpha  occ. eigenvalues --   -0.56639  -0.56477  -0.56156  -0.55763  -0.55612
 Alpha  occ. eigenvalues --   -0.55529  -0.54989  -0.54453  -0.54087  -0.54043
 Alpha  occ. eigenvalues --   -0.53902  -0.53534  -0.53498  -0.53178  -0.52981
 Alpha  occ. eigenvalues --   -0.52887  -0.52601  -0.52334  -0.51983  -0.51916
 Alpha  occ. eigenvalues --   -0.51889  -0.51698  -0.51646  -0.51223  -0.51179
 Alpha  occ. eigenvalues --   -0.51129  -0.50799  -0.50595  -0.50496  -0.50345
 Alpha  occ. eigenvalues --   -0.50303  -0.50148  -0.49944  -0.49854  -0.49663
 Alpha  occ. eigenvalues --   -0.49627  -0.49089  -0.49086  -0.48885  -0.48651
 Alpha  occ. eigenvalues --   -0.48566  -0.48393  -0.48352  -0.48284  -0.47968
 Alpha  occ. eigenvalues --   -0.47811  -0.47711  -0.47627  -0.47372  -0.47347
 Alpha  occ. eigenvalues --   -0.47246  -0.47015  -0.46860  -0.46757  -0.46549
 Alpha  occ. eigenvalues --   -0.46244  -0.46225  -0.46165  -0.46053  -0.45769
 Alpha  occ. eigenvalues --   -0.45754  -0.45582  -0.45317  -0.45151  -0.45063
 Alpha  occ. eigenvalues --   -0.45041  -0.44606  -0.44538  -0.44361  -0.44241
 Alpha  occ. eigenvalues --   -0.44148  -0.43970  -0.43920  -0.43873  -0.43716
 Alpha  occ. eigenvalues --   -0.43429  -0.43322  -0.43160  -0.43103  -0.42853
 Alpha  occ. eigenvalues --   -0.42550  -0.42510  -0.42445  -0.42136  -0.42055
 Alpha  occ. eigenvalues --   -0.41907  -0.41839  -0.41764  -0.41695  -0.41574
 Alpha  occ. eigenvalues --   -0.41394  -0.41246  -0.41107  -0.41080  -0.40877
 Alpha  occ. eigenvalues --   -0.40711  -0.40134  -0.40012  -0.39942  -0.39563
 Alpha  occ. eigenvalues --   -0.38823  -0.38559  -0.38224  -0.37921  -0.37646
 Alpha  occ. eigenvalues --   -0.37051  -0.36764  -0.36648  -0.36422  -0.36083
 Alpha  occ. eigenvalues --   -0.36012  -0.35658  -0.34906  -0.33825  -0.33545
 Alpha  occ. eigenvalues --   -0.33539  -0.33331  -0.33018  -0.31838  -0.31575
 Alpha  occ. eigenvalues --   -0.31314  -0.31055  -0.30599  -0.30551  -0.30539
 Alpha  occ. eigenvalues --   -0.30271  -0.29996  -0.28901  -0.24124  -0.24083
 Alpha  occ. eigenvalues --   -0.21104  -0.20922
 Alpha virt. eigenvalues --   -0.08736  -0.08159  -0.01802  -0.01740   0.00265
 Alpha virt. eigenvalues --    0.00739   0.01722   0.02420   0.02510   0.03009
 Alpha virt. eigenvalues --    0.04545   0.04684   0.05512   0.05865   0.06064

 Mulliken charges:
               1
     1  Mg   0.834422
     2  C    0.024672
     3  C   -0.055713
     4  C   -0.051604
     5  C   -0.106181
     6  N   -0.264125
     7  C   -0.113529
     8  C    0.060319
     9  C   -0.062129
    10  C    0.034797
    11  C    0.055121
    12  C    0.051942
    13  C   -0.062102
    14  H    0.017607
    15  N   -0.433189
    16  C    0.174999
    17  C   -0.115158
    18  C   -0.045473
    19  C    0.143463
    20  C    0.083565
    21  C    0.007303
    22  O   -0.223196
    23  C    0.070556
    24  N   -0.254211
    25  C   -0.036996
    26  C   -0.004009
    27  C   -0.057304
    28  C    0.011882
    29  C    0.079529
    30  C    0.047589
    31  C    0.022752
    32  N   -0.327817
    33  C    0.125505
    34  C   -0.201373
    35  C    0.044228
    36  C    0.113393
    37  C    0.151098
    38  C   -0.008624
    39  O   -0.172825
    40  C    0.036388
    41  C    0.195483
    42  O   -0.253649
    43  O   -0.318344
    44  C    0.171996
    45  H   -0.038334
    46  H    0.004209
    47  H   -0.019181
    48  H    0.008443
    49  H    0.010540
    50  H    0.018345
    51  H   -0.002309
    52  H    0.013820
    53  H   -0.010845
    54  H    0.002165
    55  H    0.034885
    56  H    0.034204
    57  H    0.018570
    58  H    0.030372
    59  H    0.016758
    60  H    0.031167
    61  H    0.040912
    62  H    0.035936
    63  H    0.017098
    64  H    0.006256
    65  H    0.011855
    66  H    0.025626
    67  H    0.033348
    68  H   -0.002000
    69  H   -0.015534
    70  H    0.028587
    71  H    0.017461
    72  H    0.021567
    73  H    0.054934
    74  H   -0.004382
    75  H    0.025645
    76  H    0.050933
    77  H    0.050033
    78  H    0.029461
    79  H    0.028398
    80  Mg   0.827907
    81  C    0.029783
    82  C   -0.080457
    83  C   -0.070039
    84  C   -0.085217
    85  N   -0.279593
    86  C   -0.085637
    87  C    0.013150
    88  C   -0.095826
    89  C    0.097116
    90  C    0.091201
    91  C    0.062575
    92  C   -0.075349
    93  H    0.013802
    94  N   -0.375482
    95  C    0.100372
    96  C   -0.121921
    97  C   -0.020110
    98  C    0.147759
    99  C    0.132992
   100  C   -0.028593
   101  O   -0.181079
   102  C    0.044331
   103  N   -0.219551
   104  C   -0.003971
   105  C   -0.028904
   106  C    0.001873
   107  C   -0.020750
   108  C    0.065831
   109  C    0.026773
   110  C   -0.008568
   111  N   -0.362079
   112  C    0.142912
   113  C   -0.189974
   114  C    0.039436
   115  C    0.070795
   116  C    0.143849
   117  C    0.011101
   118  O   -0.190004
   119  C    0.005501
   120  C    0.179231
   121  O   -0.228291
   122  O   -0.342824
   123  C    0.180454
   124  H   -0.022380
   125  H   -0.067079
   126  H   -0.047077
   127  H    0.007524
   128  H    0.015688
   129  H    0.019114
   130  H    0.006536
   131  H    0.019592
   132  H    0.017571
   133  H    0.008068
   134  H    0.035194
   135  H    0.040661
   136  H    0.046451
   137  H   -0.003569
   138  H    0.028729
   139  H    0.045261
   140  H    0.039537
   141  H    0.024766
   142  H    0.020092
   143  H    0.015853
   144  H    0.008905
   145  H    0.036909
   146  H    0.015414
   147  H    0.016401
   148  H    0.011555
   149  H    0.015937
   150  H    0.014975
   151  H    0.022400
   152  H    0.021443
   153  H    0.042114
   154  H    0.041774
   155  H    0.048133
   156  H    0.046259
   157  H    0.028226
   158  H    0.044497
 Sum of Mulliken charges =  -0.00000

 Dipole moment (field-independent basis, Debye):
    X=              1.0741    Y=             -1.7614    Z=             -4.2832  Tot=              4.7541
 Quadrupole moment (field-independent basis, Debye-Ang):
   XX=           -449.7149   YY=           -541.1960   ZZ=           -476.7434
   XY=            143.0305   XZ=             21.5181   YZ=            -42.3598

 Normal termination of Gaussian 16 at Thu Sep 16 01:23:09 2021.
