 Gaussian 16, Revision A.03,
 Gaussian 16:  ES64L-G16RevA.03 25-Dec-2016

 -----------------------------------
 #p cam-b3lyp/Def2SVP td=(nstates=5)
 -----------------------------------

 --------------------------------
 TDDFT excited states in gaussian
 --------------------------------
 Symbolic Z-matrix:
 Charge =  0 Multiplicity = 1

                         Standard orientation:
 ---------------------------------------------------------------------
 Center     Atomic      Atomic             Coordinates (Angstroms)
 Number     Number       Type             X           Y           Z
 ---------------------------------------------------------------------
      1         12           0      -30.095589   -0.550738    0.497495
      2          6           0      -30.389474    2.174932   -1.543655
      3          6           0      -28.598901   -2.295562   -1.914522
      4          6           0      -30.116492   -3.105347    2.521371
      5          6           0      -32.221012    1.194145    2.764765
      6          7           0      -29.695004   -0.166823   -1.600651
      7          6           0      -29.663608    1.092254   -2.104392
      8          6           0      -28.810416    1.181050   -3.340051
      9          6           0      -28.485206   -0.346804   -3.586409
     10          6           0      -29.022518   -1.014187   -2.338983
     11          6           0      -29.033294   -0.917811   -4.916262
     12          6           0      -27.526830    2.206860   -3.207720
     13          6           0      -27.265132    3.205891   -4.345128
     14          1           0      -27.820630    2.832347   -5.755371
     15          7           0      -29.324859   -2.307721    0.396872
     16          6           0      -28.734112   -2.915153   -0.665081
     17          6           0      -28.414042   -4.300817   -0.422761
     18          6           0      -28.656358   -4.485643    0.904893
     19          6           0      -29.501179   -3.312591    1.289686
     20          6           0      -27.958219   -5.125585   -1.612531
     21          6           0      -28.356091   -5.718984    1.779725
     22          8           0      -28.665396   -5.814980    2.944558
     23          6           0      -27.666431   -6.830879    1.045805
     24          7           0      -31.201911   -0.929682    2.310757
     25          6           0      -30.891689   -2.051159    2.985750
     26          6           0      -31.559961   -2.062359    4.364168
     27          6           0      -31.965131   -0.562987    4.567861
     28          6           0      -31.819251   -0.050646    3.120285
     29          6           0      -32.758980   -3.073044    4.614363
     30          6           0      -31.043400    0.287829    5.520568
     31          6           0      -29.569834    0.477979    5.274220
     32          7           0      -31.071386    1.328478    0.715793
     33          6           0      -31.973378    1.884977    1.628408
     34          6           0      -32.391972    3.232547    1.221945
     35          6           0      -31.779463    3.395797   -0.029622
     36          6           0      -31.007241    2.212231   -0.251086
     37          6           0      -33.224941    4.225398    1.991318
     38          6           0      -31.618214    4.242021   -1.121930
     39          8           0      -32.089803    5.330567   -1.411362
     40          6           0      -30.537542    3.607873   -2.035473
     41          6           0      -31.144949    3.729954   -3.380556
     42          8           0      -32.008426    2.982342   -3.846076
     43          8           0      -30.711106    4.856623   -4.017032
     44          6           0      -31.408459    5.318296   -5.221468
     45          1           0      -27.944820   -2.765650   -2.652152
     46          1           0      -30.118666   -3.897522    3.271991
     47          1           0      -32.826888    1.623044    3.566589
     48          1           0      -29.410142    1.478402   -4.200358
     49          1           0      -27.405237   -0.486825   -3.545283
     50          1           0      -29.918732   -1.516856   -4.703903
     51          1           0      -28.275584   -1.570775   -5.349435
     52          1           0      -29.279652   -0.060281   -5.542517
     53          1           0      -26.662175    1.551707   -3.100979
     54          1           0      -27.633280    2.838911   -2.326651
     55          1           0      -26.195464    3.285205   -4.537255
     56          1           0      -27.574605    4.204509   -4.036998
     57          1           0      -28.684198   -5.213819   -2.420935
     58          1           0      -27.817776   -6.202151   -1.517526
     59          1           0      -27.020126   -4.627887   -1.858331
     60          1           0      -26.742595   -6.475954    0.589630
     61          1           0      -28.455363   -7.178552    0.379184
     62          1           0      -27.290044   -7.681230    1.613309
     63          1           0      -30.740330   -2.397709    5.000656
     64          1           0      -33.024348   -0.519859    4.822403
     65          1           0      -32.934592   -3.657352    3.711442
     66          1           0      -33.696990   -2.534430    4.743690
     67          1           0      -32.664524   -3.736747    5.475178
     68          1           0      -31.224837   -0.237397    6.458637
     69          1           0      -31.395582    1.313522    5.625482
     70          1           0      -29.248116   -0.178829    4.464955
     71          1           0      -28.995239    0.191159    6.154814
     72          1           0      -29.256533    1.467070    4.940689
     73          1           0      -34.225210    4.339124    1.575790
     74          1           0      -32.721318    5.192038    2.010316
     75          1           0      -33.345637    3.741590    2.960901
     76          1           0      -29.569465    4.095521   -1.919430
     77          1           0      -31.296343    6.392069   -5.376194
     78          1           0      -32.428222    4.939867   -5.272843
     79          1           0      -31.021052    4.858933   -6.130680
     80         12           0       30.795118    0.556433   -0.298933
     81          6           0       28.226155   -1.948239   -0.334360
     82          6           0       28.596919    2.380256    1.846170
     83          6           0       33.313826    2.523198    0.738759
     84          6           0       32.920047   -1.704550   -1.737314
     85          7           0       28.708510    0.196848    0.636612
     86          6           0       27.860109   -0.857358    0.462413
     87          6           0       26.517442   -0.663121    1.249845
     88          6           0       26.576224    0.906855    1.570022
     89          6           0       28.068230    1.154236    1.414066
     90          6           0       25.792977    1.777097    0.614061
     91          6           0       26.347622   -1.635735    2.405186
     92          6           0       24.959032   -2.303474    2.581152
     93          1           0       23.921946   -1.767248    3.674209
     94          7           0       30.942784    2.338916    1.060074
     95          6           0       29.877931    2.951535    1.753134
     96          6           0       30.386386    4.149454    2.432523
     97          6           0       31.787312    4.219917    2.063479
     98          6           0       32.092135    2.997482    1.351537
     99          6           0       29.633888    5.054610    3.333558
    100          6           0       32.708765    5.371703    2.377784
    101          8           0       32.224455    6.380491    2.839325
    102          6           0       34.201747    5.359621    2.143451
    103          7           0       32.764555    0.322696   -0.393707
    104          6           0       33.591672    1.379402   -0.023521
    105          6           0       35.028354    0.974898   -0.362068
    106          6           0       34.860626   -0.253904   -1.328945
    107          6           0       33.404845   -0.542042   -1.180107
    108          6           0       36.014333    2.088775   -0.872870
    109          6           0       35.792855   -1.486473   -1.119217
    110          6           0       36.599268   -1.961341   -2.283763
    111          7           0       30.642043   -1.352611   -1.028840
    112          6           0       31.577827   -2.145442   -1.670029
    113          6           0       30.936934   -3.334097   -2.265019
    114          6           0       29.612044   -3.293124   -1.680098
    115          6           0       29.528099   -2.099561   -0.956623
    116          6           0       31.505321   -4.397698   -3.167149
    117          6           0       28.314098   -4.028948   -1.636388
    118          8           0       28.009309   -5.098643   -2.081484
    119          6           0       27.448267   -3.222959   -0.673530
    120          6           0       26.166584   -2.892227   -1.378251
    121          8           0       26.200948   -2.151270   -2.337125
    122          8           0       24.975215   -3.411190   -0.788033
    123          6           0       23.682052   -2.921936   -1.355171
    124          1           0       27.935561    2.993161    2.462390
    125          1           0       34.233379    3.064898    0.966519
    126          1           0       33.585071   -2.305744   -2.360347
    127          1           0       25.649838   -0.733076    0.594371
    128          1           0       26.333787    1.109834    2.613087
    129          1           0       26.392379    1.925999   -0.283778
    130          1           0       25.553917    2.698940    1.144123
    131          1           0       24.845108    1.407187    0.221764
    132          1           0       26.513432   -1.054711    3.311865
    133          1           0       27.189549   -2.327631    2.383551
    134          1           0       25.214364   -3.337693    2.813261
    135          1           0       24.371381   -2.327186    1.663353
    136          1           0       29.332412    5.906196    2.724379
    137          1           0       30.318803    5.475415    4.069772
    138          1           0       28.766441    4.687779    3.883565
    139          1           0       34.741384    6.224670    2.528415
    140          1           0       34.324477    5.345477    1.060405
    141          1           0       34.786661    4.500430    2.469634
    142          1           0       35.423152    0.738299    0.626413
    143          1           0       34.899576    0.115663   -2.353207
    144          1           0       35.460400    2.946196   -1.256028
    145          1           0       36.706343    1.677715   -1.607665
    146          1           0       36.662610    2.417140   -0.060752
    147          1           0       35.192528   -2.321296   -0.757733
    148          1           0       36.427066   -1.262782   -0.261508
    149          1           0       36.172415   -2.892329   -2.656214
    150          1           0       37.619183   -2.169527   -1.960735
    151          1           0       36.676603   -1.300931   -3.147192
    152          1           0       30.714430   -4.911219   -3.713471
    153          1           0       32.055897   -5.084343   -2.523510
    154          1           0       32.261586   -3.929138   -3.797185
    155          1           0       27.359754   -3.801454    0.246165
    156          1           0       23.473368   -3.457999   -2.281172
    157          1           0       23.749833   -1.868427   -1.625681
    158          1           0       22.873413   -3.041763   -0.634426
 ---------------------------------------------------------------------

 SCF Done:  E(RCAM-B3LYP) =  -4069.80260811     A.U. after   18 cycles

 Excitation energies and oscillator strengths:

 Excited State   1:      Singlet-A      1.6714 eV  741.79 nm  f=0.3979  <S**2>=0.000
     309 -> 316        0.16934
     311 -> 313        0.68867
     309 <- 316        0.10660
 This state for optimization and/or second-order correction.
 Total Energy, E(TD-HF/TD-DFT) =  -4069.74118470
 Copying the excited state density for this state as the 1-particle RhoCI density.

 Excited State   2:      Singlet-A      1.7683 eV  701.13 nm  f=0.3763  <S**2>=0.000
     310 -> 315        0.19166
     312 -> 314        0.68182
     310 <- 315        0.10600

 Excited State   3:      Singlet-A      2.2361 eV  554.47 nm  f=0.1280  <S**2>=0.000
     309 -> 313        0.64117
     311 -> 316       -0.28144

 Excited State   4:      Singlet-A      2.2757 eV  544.83 nm  f=0.0579  <S**2>=0.000
     310 -> 314        0.61594
     312 -> 315       -0.33784

 Excited State   5:      Singlet-A      3.0054 eV  412.54 nm  f=0.0000  <S**2>=0.000
     312 -> 313        0.70711

 The electronic state is 1-A.
 Alpha  occ. eigenvalues --  -46.89342 -46.87962 -19.25277 -19.23915 -19.20747
 Alpha  occ. eigenvalues --  -19.19940 -19.19744 -19.18343 -19.18000 -19.17655
 Alpha  occ. eigenvalues --  -14.42777 -14.41732 -14.41714 -14.41065 -14.40007
 Alpha  occ. eigenvalues --  -14.39354 -14.39175 -14.38755 -10.40239 -10.38258
 Alpha  occ. eigenvalues --  -10.35970 -10.35425 -10.34529 -10.33551 -10.32287
 Alpha  occ. eigenvalues --  -10.31403 -10.31313 -10.30833 -10.30713 -10.30660
 Alpha  occ. eigenvalues --  -10.30589 -10.30531 -10.30456 -10.30298 -10.30251
 Alpha  occ. eigenvalues --  -10.30249 -10.30140 -10.29507 -10.29243 -10.29121
 Alpha  occ. eigenvalues --  -10.29036 -10.28971 -10.28932 -10.28853 -10.28722
 Alpha  occ. eigenvalues --  -10.28680 -10.28655 -10.28573 -10.28076 -10.28068
 Alpha  occ. eigenvalues --  -10.28010 -10.27857 -10.27831 -10.27816 -10.27811
 Alpha  occ. eigenvalues --  -10.27767 -10.27752 -10.27618 -10.27598 -10.27564
 Alpha  occ. eigenvalues --  -10.27494 -10.27332 -10.27245 -10.27239 -10.27028
 Alpha  occ. eigenvalues --  -10.26936 -10.26584 -10.26541 -10.26539 -10.26527
 Alpha  occ. eigenvalues --  -10.26510 -10.26500 -10.26330 -10.26268 -10.26067
 Alpha  occ. eigenvalues --  -10.26045 -10.26042 -10.25908 -10.25905 -10.25750
 Alpha  occ. eigenvalues --  -10.25569 -10.25549 -10.25388 -10.25221 -10.25060
 Alpha  occ. eigenvalues --  -10.24065  -3.17911  -3.16817  -1.92760  -1.92372
 Alpha  occ. eigenvalues --   -1.92218  -1.91682  -1.91286  -1.91150  -1.15386
 Alpha  occ. eigenvalues --   -1.14846  -1.11744  -1.11534  -1.10231  -1.09006
 Alpha  occ. eigenvalues --   -1.07887  -1.05925  -1.05593  -1.04703  -1.04612
 Alpha  occ. eigenvalues --   -1.04118  -1.03595  -1.03000  -1.02794  -1.01529
 Alpha  occ. eigenvalues --   -0.92773  -0.92345  -0.89634  -0.89425  -0.88905
 Alpha  occ. eigenvalues --   -0.88475  -0.88426  -0.88029  -0.87964  -0.87633
 Alpha  occ. eigenvalues --   -0.87472  -0.86562  -0.86248  -0.85667  -0.84511
 Alpha  occ. eigenvalues --   -0.84378  -0.83978  -0.83590  -0.82716  -0.82608
 Alpha  occ. eigenvalues --   -0.82513  -0.81861  -0.81068  -0.80574  -0.80530
 Alpha  occ. eigenvalues --   -0.80223  -0.79029  -0.78182  -0.77506  -0.77469
 Alpha  occ. eigenvalues --   -0.76986  -0.76817  -0.76368  -0.75706  -0.75243
 Alpha  occ. eigenvalues --   -0.75214  -0.72665  -0.72646  -0.71799  -0.71691
 Alpha  occ. eigenvalues --   -0.69648  -0.69568  -0.69033  -0.68955  -0.68155
 Alpha  occ. eigenvalues --   -0.67941  -0.67321  -0.66731  -0.65962  -0.65419
 Alpha  occ. eigenvalues --   -0.65115  -0.64979  -0.64751  -0.64560  -0.64337
 Alpha  occ. eigenvalues --   -0.63766  -0.62343  -0.61717  -0.61122  -0.59814
 Alpha  occ. eigenvalues --   -0.59574  -0.59322  -0.59289  -0.59210  -0.59086
 Alpha  occ. eigenvalues --   -0.58346  -0.57932  -0.57806  -0.57666  -0.57555
 Alpha  occ. eigenvalues --   -0.56555  -0.56310  -0.55680  -0.55453  -0.55320
 Alpha  occ. eigenvalues --   -0.55124  -0.54676  -0.54423  -0.54347  -0.53885
 Alpha  occ. eigenvalues --   -0.53640  -0.53384  -0.53211  -0.53100  -0.52977
 Alpha  occ. eigenvalues --   -0.52629  -0.52625  -0.52443  -0.52302  -0.52260
 Alpha  occ. eigenvalues --   -0.51853  -0.51742  -0.51636  -0.51333  -0.51263
 Alpha  occ. eigenvalues --   -0.51119  -0.50944  -0.50615  -0.50467  -0.50454
 Alpha  occ. eigenvalues --   -0.50236  -0.49957  -0.49890  -0.49759  -0.49505
 Alpha  occ. eigenvalues --   -0.49338  -0.49321  -0.49129  -0.49097  -0.48782
 Alpha  occ. eigenvalues --   -0.48724  -0.48613  -0.48578  -0.48206  -0.48068
 Alpha  occ. eigenvalues --   -0.48017  -0.47789  -0.47707  -0.47174  -0.47103
 Alpha  occ. eigenvalues --   -0.46995  -0.46803  -0.46660  -0.46517  -0.46439
 Alpha  occ. eigenvalues --   -0.46401  -0.46201  -0.46073  -0.45992  -0.45845
 Alpha  occ. eigenvalues --   -0.45713  -0.45487  -0.45269  -0.45255  -0.44978
 Alpha  occ. eigenvalues --   -0.44833  -0.44679  -0.44515  -0.44120  -0.43915
 Alpha  occ. eigenvalues --   -0.43837  -0.43793  -0.43634  -0.43469  -0.43467
 Alpha  occ. eigenvalues --   -0.43325  -0.43179  -0.42918  -0.42914  -0.42851
 Alpha  occ. eigenvalues --   -0.42659  -0.42568  -0.42448  -0.42442  -0.42143
 Alpha  occ. eigenvalues --   -0.41937  -0.41850  -0.41578  -0.41569  -0.41255
 Alpha  occ. eigenvalues --   -0.41139  -0.41065  -0.40850  -0.40752  -0.40592
 Alpha  occ. eigenvalues --   -0.40525  -0.40282  -0.39593  -0.39307  -0.39211
 Alpha  occ. eigenvalues --   -0.38488  -0.38473  -0.38200  -0.37719  -0.37359
 Alpha  occ. eigenvalues --   -0.37177  -0.37007  -0.36527  -0.36453  -0.36278
 Alpha  occ. eigenvalues --   -0.35841  -0.35156  -0.35066  -0.34418  -0.34363
 Alpha  occ. eigenvalues --   -0.33282  -0.33202  -0.32944  -0.32500  -0.31622
 Alpha  occ. eigenvalues --   -0.31368  -0.31128  -0.30721  -0.30512  -0.30095
 Alpha  occ. eigenvalues --   -0.29716  -0.29693  -0.28759  -0.24326  -0.23817
 Alpha  occ. eigenvalues --   -0.21144  -0.20612
 Alpha virt. eigenvalues --   -0.09005  -0.07833  -0.01757  -0.01516   0.00218
 Alpha virt. eigenvalues --    0.00449   0.01225   0.02273   0.02617   0.03020
 Alpha virt. eigenvalues --    0.04377   0.04382   0.05019   0.05584   0.06106

 Mulliken charges:
               1
     1  Mg   0.850640
     2  C    0.012187
     3  C   -0.109468
     4  C   -0.070342
     5  C   -0.108750
     6  N   -0.257963
     7  C   -0.051836
     8  C   -0.000868
     9  C   -0.101380
    10  C    0.045290
    11  C    0.094738
    12  C    0.048919
    13  C   -0.072540
    14  H    0.012998
    15  N   -0.419490
    16  C    0.163733
    17  C   -0.108887
    18  C   -0.091254
    19  C    0.161850
    20  C    0.094041
    21  C    0.026216
    22  O   -0.168447
    23  C    0.036215
    24  N   -0.251387
    25  C    0.003044
    26  C   -0.036983
    27  C    0.001974
    28  C   -0.034615
    29  C    0.070315
    30  C    0.035387
    31  C    0.008535
    32  N   -0.312645
    33  C    0.155295
    34  C   -0.183092
    35  C    0.078813
    36  C    0.062720
    37  C    0.144276
    38  C   -0.022479
    39  O   -0.177546
    40  C    0.001663
    41  C    0.195342
    42  O   -0.239442
    43  O   -0.323698
    44  C    0.190510
    45  H   -0.033059
    46  H   -0.010553
    47  H   -0.035036
    48  H    0.022039
    49  H    0.005872
    50  H    0.023432
    51  H    0.016542
    52  H    0.024993
    53  H    0.008946
    54  H    0.018139
    55  H    0.025940
    56  H    0.040070
    57  H    0.037372
    58  H    0.007428
    59  H    0.045226
    60  H    0.040696
    61  H    0.049179
    62  H    0.021278
    63  H    0.008510
    64  H    0.002541
    65  H    0.016668
    66  H    0.005064
    67  H    0.028208
    68  H    0.006571
    69  H    0.007644
    70  H    0.009853
    71  H    0.017905
    72  H    0.021346
    73  H    0.036312
    74  H    0.041577
    75  H   -0.001559
    76  H    0.044058
    77  H    0.042899
    78  H    0.040280
    79  H    0.012029
    80  Mg   0.850203
    81  C   -0.068697
    82  C   -0.046569
    83  C   -0.070138
    84  C   -0.117752
    85  N   -0.248531
    86  C   -0.056099
    87  C   -0.029298
    88  C   -0.067521
    89  C    0.027859
    90  C    0.088689
    91  C    0.079553
    92  C   -0.054251
    93  H    0.008663
    94  N   -0.346055
    95  C    0.095280
    96  C   -0.125933
    97  C   -0.029146
    98  C    0.139839
    99  C    0.130525
   100  C   -0.009044
   101  O   -0.204448
   102  C    0.048529
   103  N   -0.372414
   104  C    0.069199
   105  C   -0.081045
   106  C    0.022216
   107  C    0.057890
   108  C    0.063541
   109  C    0.049686
   110  C    0.008706
   111  N   -0.354577
   112  C    0.126924
   113  C   -0.180982
   114  C   -0.063999
   115  C    0.147739
   116  C    0.135419
   117  C    0.053061
   118  O   -0.136298
   119  C    0.059746
   120  C    0.212872
   121  O   -0.206829
   122  O   -0.375238
   123  C    0.175414
   124  H   -0.030906
   125  H   -0.056677
   126  H   -0.037308
   127  H    0.003948
   128  H    0.001845
   129  H    0.021996
   130  H    0.020334
   131  H    0.014367
   132  H    0.012530
   133  H    0.016709
   134  H    0.032668
   135  H    0.027181
   136  H    0.030817
   137  H    0.030823
   138  H    0.014437
   139  H    0.024104
   140  H    0.029764
   141  H    0.037086
   142  H    0.024835
   143  H    0.007140
   144  H    0.023791
   145  H    0.015808
   146  H    0.009101
   147  H    0.014431
   148  H   -0.000372
   149  H    0.015707
   150  H    0.013743
   151  H    0.015194
   152  H    0.047883
   153  H    0.030562
   154  H    0.013046
   155  H    0.042046
   156  H    0.044653
   157  H    0.034775
   158  H    0.047252
 Sum of Mulliken charges =  -0.00000

 Dipole moment (field-independent basis, Debye):
    X=              5.9541    Y=             -3.3130    Z=             -0.4220  Tot=              6.8268
 Quadrupole moment (field-independent basis, Debye-Ang):
   XX=           -606.9463   YY=           -559.0933   ZZ=           -505.9540
   XY=            100.1500   XZ=            -45.4593   YZ=              0.5976

 Normal termination of Gaussian 16 at Tue Aug 31 16:04:53 2021.
