 Gaussian 16, Revision A.03,
 Gaussian 16:  ES64L-G16RevA.03 25-Dec-2016

 ----------------------------------------------------------
 #p cam-b3lyp/Def2SVP td=(nstates=5) density=(transition=1)
 ----------------------------------------------------------

 --------------------------------
 TDDFT excited states in gaussian
 --------------------------------
 Symbolic Z-matrix:
 Charge =  0 Multiplicity = 1

                         Standard orientation:
 ---------------------------------------------------------------------
 Center     Atomic      Atomic             Coordinates (Angstroms)
 Number     Number       Type             X           Y           Z
 ---------------------------------------------------------------------
      1         12           0       18.676894   -0.389848    0.030756
      2          6           0       15.319336   -0.616907   -1.362155
      3          6           0       19.326677    2.028840   -2.318139
      4          6           0       21.013360    0.856609    2.072735
      5          6           0       17.901580   -2.894985    2.191662
      6          7           0       17.351642    0.723382   -1.534950
      7          6           0       16.018815    0.393576   -1.973959
      8          6           0       15.696007    1.176518   -3.249724
      9          6           0       17.076128    1.706449   -3.738889
     10          6           0       18.035919    1.488522   -2.487808
     11          6           0       17.644099    0.931303   -5.020391
     12          6           0       14.570829    2.167335   -3.181734
     13          6           0       14.103632    2.622472   -1.778999
     14          1           0       13.024100    3.673652   -1.462633
     15          7           0       20.104577    1.160649   -0.166890
     16          6           0       20.185371    2.055312   -1.211032
     17          6           0       21.392626    2.912458   -0.995283
     18          6           0       21.775580    2.629207    0.313260
     19          6           0       20.948221    1.553146    0.853768
     20          6           0       21.831353    3.889438   -2.027849
     21          6           0       22.910388    3.370619    1.078239
     22          8           0       23.443194    4.317424    0.527095
     23          6           0       23.293208    3.102857    2.496048
     24          7           0       19.210775   -0.897115    1.947177
     25          6           0       20.334650   -0.285405    2.501356
     26          6           0       20.749810   -0.976049    3.800409
     27          6           0       19.982163   -2.345236    3.720967
     28          6           0       19.025108   -2.067321    2.559613
     29          6           0       22.261260   -1.176553    4.081489
     30          6           0       19.269721   -2.811695    5.030894
     31          6           0       19.955311   -4.029716    5.803365
     32          7           0       17.004902   -1.613323    0.337900
     33          6           0       16.881025   -2.667416    1.231271
     34          6           0       15.657870   -3.379102    0.952772
     35          6           0       15.028323   -2.546293    0.017749
     36          6           0       15.920556   -1.501339   -0.327605
     37          6           0       15.201909   -4.628945    1.725436
     38          6           0       13.871530   -2.378544   -0.807417
     39          8           0       12.904979   -3.165705   -0.858109
     40          6           0       14.034359   -1.198085   -1.864373
     41          6           0       12.813091   -0.385468   -1.696183
     42          8           0       12.341104    0.026997   -0.631473
     43          8           0       12.382942   -0.074428   -2.943461
     44          6           0       11.045050    0.589591   -3.037308
     45          1           0       19.525587    2.809736   -3.054443
     46          1           0       21.789448    1.266730    2.722709
     47          1           0       17.735642   -3.773796    2.817659
     48          1           0       15.406296    0.323683   -3.863647
     49          1           0       17.097014    2.789445   -3.861759
     50          1           0       17.614082    1.690272   -5.801156
     51          1           0       17.027967    0.053215   -5.215378
     52          1           0       18.678926    0.686935   -4.777937
     53          1           0       13.767767    1.751557   -3.790003
     54          1           0       14.999798    2.998447   -3.742504
     55          1           0       15.015365    2.952748   -1.280243
     56          1           0       13.707339    1.766819   -1.231907
     57          1           0       21.637034    4.875166   -1.606149
     58          1           0       21.255927    3.705831   -2.934692
     59          1           0       22.878717    3.709732   -2.272930
     60          1           0       22.562702    3.315362    3.275700
     61          1           0       24.107084    3.740944    2.839108
     62          1           0       23.628408    2.068801    2.416838
     63          1           0       20.309760   -0.248399    4.483287
     64          1           0       20.733271   -3.057468    3.378687
     65          1           0       22.677702   -0.439302    4.768632
     66          1           0       22.823426   -1.046235    3.157381
     67          1           0       22.394824   -2.202237    4.427071
     68          1           0       18.219815   -3.075448    4.900460
     69          1           0       19.242871   -1.912628    5.646698
     70          1           0       19.905455   -3.693349    6.838664
     71          1           0       20.985894   -4.236728    5.514618
     72          1           0       19.396459   -4.925081    5.533481
     73          1           0       14.578733   -5.323544    1.161722
     74          1           0       14.598762   -4.172008    2.509240
     75          1           0       16.061402   -5.249391    1.978299
     76          1           0       14.135288   -1.623116   -2.864087
     77          1           0       10.817930    0.792890   -4.084393
     78          1           0       11.039784    1.542908   -2.508517
     79          1           0       10.391084   -0.160682   -2.595106
     80         12           0      -18.265631    0.381947    0.544452
     81          6           0      -15.492236   -0.940528   -1.170865
     82          6           0      -19.870426   -2.657242    0.016665
     83          6           0      -20.966017    1.781386    1.877513
     84          6           0      -16.824562    3.655604    0.233047
     85          7           0      -17.757921   -1.537681   -0.468516
     86          6           0      -16.499016   -1.868806   -0.989081
     87          6           0      -16.387163   -3.378273   -1.097591
     88          6           0      -17.848733   -3.899032   -0.991135
     89          6           0      -18.541591   -2.616784   -0.439202
     90          6           0      -18.462264   -4.515280   -2.287497
     91          6           0      -15.392635   -4.035763   -0.079056
     92          6           0      -14.682319   -5.353874   -0.620126
     93          1           0      -15.073746   -5.856838   -2.012182
     94          7           0      -20.050297   -0.359246    0.995457
     95          6           0      -20.503853   -1.648238    0.774240
     96          6           0      -21.800049   -1.838146    1.358651
     97          6           0      -22.205081   -0.536573    1.796194
     98          6           0      -21.055198    0.327673    1.598057
     99          6           0      -22.587052   -3.182831    1.298234
    100          6           0      -23.521622   -0.104562    2.354260
    101          8           0      -23.785344    1.105930    2.549549
    102          6           0      -24.772625   -0.964902    2.699726
    103          7           0      -18.950114    2.448451    0.751954
    104          6           0      -20.069639    2.747742    1.437500
    105          6           0      -20.079680    4.246053    1.831996
    106          6           0      -18.779770    4.855214    1.294480
    107          6           0      -18.099180    3.522942    0.749551
    108          6           0      -21.370986    4.911639    1.465273
    109          6           0      -17.900280    5.634438    2.295801
    110          6           0      -17.414756    4.822657    3.521958
    111          7           0      -16.537091    1.272063   -0.345139
    112          6           0      -16.053415    2.531430   -0.236355
    113          6           0      -14.673292    2.493143   -0.717493
    114          6           0      -14.347875    1.157713   -1.085841
    115          6           0      -15.549862    0.435881   -0.886862
    116          6           0      -13.688989    3.659515   -0.692554
    117          6           0      -13.328941    0.295503   -1.593587
    118          8           0      -12.132975    0.438167   -1.833751
    119          6           0      -14.089351   -1.178314   -1.738742
    120          6           0      -13.928205   -1.684178   -3.159930
    121          8           0      -14.612996   -1.305868   -4.090065
    122          8           0      -12.985911   -2.685660   -3.219804
    123          6           0      -12.409455   -3.036318   -4.513748
    124          1           0      -20.225741   -3.683935   -0.091672
    125          1           0      -21.844707    2.162584    2.401422
    126          1           0      -16.399289    4.659058    0.296945
    127          1           0      -15.997021   -3.640239   -2.080980
    128          1           0      -17.857542   -4.658433   -0.209789
    129          1           0      -19.361882   -3.916422   -2.425447
    130          1           0      -18.802482   -5.535303   -2.104867
    131          1           0      -17.895554   -4.492259   -3.218279
    132          1           0      -15.910235   -4.384578    0.814005
    133          1           0      -14.668780   -3.283966    0.232855
    134          1           0      -15.002818   -6.178284    0.017033
    135          1           0      -13.607095   -5.183562   -0.571183
    136          1           0      -23.638621   -2.940006    1.140652
    137          1           0      -22.528639   -3.744763    2.229784
    138          1           0      -22.334174   -3.955882    0.572755
    139          1           0      -24.510311   -1.762538    3.395332
    140          1           0      -25.266251   -1.359449    1.811641
    141          1           0      -25.473222   -0.484108    3.381415
    142          1           0      -20.163075    4.257448    2.917983
    143          1           0      -19.076488    5.377308    0.384138
    144          1           0      -22.035329    5.046039    2.319108
    145          1           0      -21.861080    4.355810    0.665759
    146          1           0      -21.253494    5.899526    1.018489
    147          1           0      -18.569016    6.417682    2.653346
    148          1           0      -17.050631    6.082933    1.780117
    149          1           0      -16.326599    4.850692    3.468853
    150          1           0      -17.804403    3.811624    3.402939
    151          1           0      -17.821043    5.161585    4.475059
    152          1           0      -12.696797    3.363523   -0.353088
    153          1           0      -13.973373    4.405764    0.048740
    154          1           0      -13.710937    4.140537   -1.670813
    155          1           0      -13.512279   -1.839103   -1.091364
    156          1           0      -13.226897   -3.005496   -5.234604
    157          1           0      -11.966847   -4.031230   -4.563424
    158          1           0      -11.608166   -2.315986   -4.678732
 ---------------------------------------------------------------------

 SCF Done:  E(RCAM-B3LYP) =  -4069.78245123     A.U. after   19 cycles

 Excitation energies and oscillator strengths:

 Excited State   1:      Singlet-A      1.6560 eV  748.69 nm  f=0.5053  <S**2>=0.000
     309 -> 315        0.15309
     311 -> 313        0.14420
     312 -> 314        0.67538
 This state for optimization and/or second-order correction.
 Total Energy, E(TD-HF/TD-DFT) =  -4069.72159396
 Copying the excited state density for this state as the 1-particle RhoCI density.

 Excited State   2:      Singlet-A      1.6591 eV  747.28 nm  f=0.2584  <S**2>=0.000
     310 -> 316        0.16363
     311 -> 313        0.67300
     312 -> 314       -0.14470
     310 <- 316        0.10302

 Excited State   3:      Singlet-A      2.1919 eV  565.65 nm  f=0.1547  <S**2>=0.000
     310 -> 313        0.65715
     311 -> 316       -0.24519

 Excited State   4:      Singlet-A      2.2758 eV  544.78 nm  f=0.0763  <S**2>=0.000
     309 -> 314        0.61915
     312 -> 315       -0.32530

 Excited State   5:      Singlet-A      2.8856 eV  429.67 nm  f=0.0000  <S**2>=0.000
     312 -> 313        0.70709

 The electronic state is 1-A.
 Alpha  occ. eigenvalues --  -46.89289 -46.88856 -19.25334 -19.24196 -19.19397
 Alpha  occ. eigenvalues --  -19.19301 -19.19199 -19.19064 -19.18314 -19.17056
 Alpha  occ. eigenvalues --  -14.42497 -14.42454 -14.41530 -14.41380 -14.40221
 Alpha  occ. eigenvalues --  -14.39711 -14.39325 -14.38726 -10.39110 -10.39060
 Alpha  occ. eigenvalues --  -10.35531 -10.35490 -10.35429 -10.33515 -10.32096
 Alpha  occ. eigenvalues --  -10.31917 -10.31639 -10.31488 -10.31351 -10.30991
 Alpha  occ. eigenvalues --  -10.30883 -10.30859 -10.30796 -10.30747 -10.30679
 Alpha  occ. eigenvalues --  -10.30484 -10.30415 -10.30301 -10.29801 -10.29464
 Alpha  occ. eigenvalues --  -10.29231 -10.28993 -10.28985 -10.28821 -10.28697
 Alpha  occ. eigenvalues --  -10.28505 -10.28462 -10.28380 -10.28186 -10.28148
 Alpha  occ. eigenvalues --  -10.28100 -10.27924 -10.27893 -10.27858 -10.27840
 Alpha  occ. eigenvalues --  -10.27803 -10.27659 -10.27616 -10.27594 -10.27532
 Alpha  occ. eigenvalues --  -10.27469 -10.27466 -10.27417 -10.27406 -10.27284
 Alpha  occ. eigenvalues --  -10.27222 -10.27156 -10.27106 -10.26911 -10.26874
 Alpha  occ. eigenvalues --  -10.26835 -10.26775 -10.26675 -10.26539 -10.26383
 Alpha  occ. eigenvalues --  -10.26287 -10.26244 -10.26206 -10.26020 -10.26019
 Alpha  occ. eigenvalues --  -10.25918 -10.25565 -10.25544 -10.25239 -10.24860
 Alpha  occ. eigenvalues --  -10.23961  -3.17777  -3.17427  -1.92650  -1.92297
 Alpha  occ. eigenvalues --   -1.92254  -1.92059  -1.91882  -1.91740  -1.16055
 Alpha  occ. eigenvalues --   -1.15388  -1.10673  -1.09390  -1.08365  -1.07457
 Alpha  occ. eigenvalues --   -1.07396  -1.06656  -1.04823  -1.04276  -1.04007
 Alpha  occ. eigenvalues --   -1.03416  -1.03164  -1.02806  -1.02062  -1.00334
 Alpha  occ. eigenvalues --   -0.92133  -0.91918  -0.89333  -0.89160  -0.88957
 Alpha  occ. eigenvalues --   -0.88589  -0.88496  -0.88096  -0.87317  -0.86807
 Alpha  occ. eigenvalues --   -0.86750  -0.86633  -0.86069  -0.85262  -0.84358
 Alpha  occ. eigenvalues --   -0.83766  -0.83682  -0.83284  -0.82716  -0.82336
 Alpha  occ. eigenvalues --   -0.82131  -0.81013  -0.80944  -0.80574  -0.80150
 Alpha  occ. eigenvalues --   -0.79991  -0.78659  -0.78007  -0.77743  -0.76899
 Alpha  occ. eigenvalues --   -0.76718  -0.76469  -0.75981  -0.75783  -0.75230
 Alpha  occ. eigenvalues --   -0.74935  -0.73015  -0.72489  -0.71664  -0.71033
 Alpha  occ. eigenvalues --   -0.69875  -0.69625  -0.69084  -0.68993  -0.68280
 Alpha  occ. eigenvalues --   -0.67589  -0.67473  -0.66894  -0.66172  -0.65350
 Alpha  occ. eigenvalues --   -0.65165  -0.64861  -0.64646  -0.64103  -0.64081
 Alpha  occ. eigenvalues --   -0.63522  -0.62096  -0.61578  -0.60857  -0.59610
 Alpha  occ. eigenvalues --   -0.59436  -0.59101  -0.59028  -0.58742  -0.58021
 Alpha  occ. eigenvalues --   -0.58002  -0.57483  -0.57364  -0.57180  -0.56900
 Alpha  occ. eigenvalues --   -0.56755  -0.56257  -0.55848  -0.55711  -0.55154
 Alpha  occ. eigenvalues --   -0.54867  -0.54693  -0.54552  -0.54221  -0.53887
 Alpha  occ. eigenvalues --   -0.53647  -0.53443  -0.53421  -0.52997  -0.52845
 Alpha  occ. eigenvalues --   -0.52726  -0.52531  -0.52493  -0.52299  -0.52275
 Alpha  occ. eigenvalues --   -0.51936  -0.51816  -0.51363  -0.51269  -0.51190
 Alpha  occ. eigenvalues --   -0.51026  -0.50972  -0.50668  -0.50631  -0.49968
 Alpha  occ. eigenvalues --   -0.49960  -0.49642  -0.49518  -0.49464  -0.49225
 Alpha  occ. eigenvalues --   -0.49155  -0.48978  -0.48928  -0.48759  -0.48717
 Alpha  occ. eigenvalues --   -0.48553  -0.48326  -0.48137  -0.48097  -0.47824
 Alpha  occ. eigenvalues --   -0.47738  -0.47701  -0.47589  -0.47365  -0.47135
 Alpha  occ. eigenvalues --   -0.46890  -0.46776  -0.46630  -0.46527  -0.46323
 Alpha  occ. eigenvalues --   -0.46243  -0.46217  -0.45780  -0.45697  -0.45443
 Alpha  occ. eigenvalues --   -0.45411  -0.45169  -0.45152  -0.44933  -0.44665
 Alpha  occ. eigenvalues --   -0.44498  -0.44428  -0.44184  -0.44024  -0.43970
 Alpha  occ. eigenvalues --   -0.43947  -0.43923  -0.43461  -0.43399  -0.43348
 Alpha  occ. eigenvalues --   -0.43082  -0.42995  -0.42807  -0.42713  -0.42589
 Alpha  occ. eigenvalues --   -0.42541  -0.42362  -0.42263  -0.42105  -0.41905
 Alpha  occ. eigenvalues --   -0.41874  -0.41795  -0.41724  -0.41551  -0.41483
 Alpha  occ. eigenvalues --   -0.41058  -0.40744  -0.40682  -0.40549  -0.40046
 Alpha  occ. eigenvalues --   -0.39903  -0.39583  -0.39331  -0.39188  -0.39069
 Alpha  occ. eigenvalues --   -0.38630  -0.38482  -0.37748  -0.37581  -0.37389
 Alpha  occ. eigenvalues --   -0.37078  -0.36770  -0.36557  -0.36325  -0.36259
 Alpha  occ. eigenvalues --   -0.35909  -0.35812  -0.34353  -0.33957  -0.33807
 Alpha  occ. eigenvalues --   -0.33690  -0.33007  -0.32675  -0.31509  -0.31417
 Alpha  occ. eigenvalues --   -0.31158  -0.30739  -0.30685  -0.30248  -0.30088
 Alpha  occ. eigenvalues --   -0.29438  -0.29414  -0.29213  -0.24437  -0.24071
 Alpha  occ. eigenvalues --   -0.21331  -0.20738
 Alpha virt. eigenvalues --   -0.09193  -0.08568  -0.01776  -0.01359   0.00001
 Alpha virt. eigenvalues --    0.00941   0.01412   0.01485   0.02219   0.02515
 Alpha virt. eigenvalues --    0.04911   0.05264   0.05425   0.05442   0.06129

 Mulliken charges:
               1
     1  Mg  12.000239
     2  C    5.966524
     3  C    5.994824
     4  C    6.040514
     5  C    6.004844
     6  N    6.974221
     7  C    6.028939
     8  C    5.995749
     9  C    6.002007
    10  C    5.989541
    11  C    6.002410
    12  C    5.998666
    13  C    5.993264
    14  H    1.002246
    15  N    7.013040
    16  C    5.962079
    17  C    5.972294
    18  C    6.000177
    19  C    5.944487
    20  C    6.006506
    21  C    5.988283
    22  O    7.985264
    23  C    6.002267
    24  N    7.011359
    25  C    5.952521
    26  C    6.013297
    27  C    5.987394
    28  C    6.030612
    29  C    5.999316
    30  C    5.993037
    31  C    6.001747
    32  N    6.998095
    33  C    6.035918
    34  C    6.024164
    35  C    6.002410
    36  C    6.040480
    37  C    5.999747
    38  C    6.014269
    39  O    8.033648
    40  C    6.008567
    41  C    6.004062
    42  O    8.000979
    43  O    8.002201
    44  C    5.999721
    45  H    0.985333
    46  H    0.995895
    47  H    1.017767
    48  H    0.994849
    49  H    1.000535
    50  H    0.994464
    51  H    0.984894
    52  H    1.002976
    53  H    0.997171
    54  H    1.008466
    55  H    1.010817
    56  H    0.992842
    57  H    0.980690
    58  H    0.984440
    59  H    0.980082
    60  H    0.989488
    61  H    0.988676
    62  H    0.992467
    63  H    0.998216
    64  H    1.006818
    65  H    1.002422
    66  H    1.004805
    67  H    0.990094
    68  H    0.993772
    69  H    1.009740
    70  H    1.005193
    71  H    1.006107
    72  H    0.997125
    73  H    1.016911
    74  H    1.017216
    75  H    1.014461
    76  H    1.005684
    77  H    1.004789
    78  H    1.004203
    79  H    0.998663
    80  Mg  11.999876
    81  C    6.005330
    82  C    5.998833
    83  C    5.995266
    84  C    6.002016
    85  N    7.002268
    86  C    5.992219
    87  C    6.002061
    88  C    5.997438
    89  C    6.005286
    90  C    6.000380
    91  C    6.000663
    92  C    6.000163
    93  H    0.998869
    94  N    6.998435
    95  C    6.008422
    96  C    6.005323
    97  C    6.002785
    98  C    6.007084
    99  C    5.999296
   100  C    6.001690
   101  O    8.006908
   102  C    5.999078
   103  N    6.998326
   104  C    6.007115
   105  C    5.998902
   106  C    6.001801
   107  C    5.995442
   108  C    5.999437
   109  C    6.000831
   110  C    6.001138
   111  N    7.001036
   112  C    5.992151
   113  C    5.991992
   114  C    6.000193
   115  C    5.991267
   116  C    6.000731
   117  C    5.997358
   118  O    7.994326
   119  C    5.998874
   120  C    5.999338
   121  O    7.998903
   122  O    7.999582
   123  C    6.000453
   124  H    1.002916
   125  H    1.000858
   126  H    0.997882
   127  H    1.000158
   128  H    1.000601
   129  H    0.999012
   130  H    1.000603
   131  H    1.002826
   132  H    0.997350
   133  H    1.001604
   134  H    0.998791
   135  H    1.000526
   136  H    1.003458
   137  H    1.004490
   138  H    1.004210
   139  H    1.001731
   140  H    1.001950
   141  H    1.003098
   142  H    0.999940
   143  H    0.999157
   144  H    0.999634
   145  H    0.999207
   146  H    1.002169
   147  H    0.998067
   148  H    1.001004
   149  H    1.001096
   150  H    0.998429
   151  H    0.998321
   152  H    0.995768
   153  H    0.995494
   154  H    0.995158
   155  H    0.998005
   156  H    0.999067
   157  H    0.998616
   158  H    0.999914
 Sum of Mulliken charges = 624.00000

 Dipole moment (field-independent basis, Debye):
    X=             -9.1421    Y=             -8.2600    Z=              3.0217  Tot=             12.6861
 Quadrupole moment (field-independent basis, Debye-Ang):
   XX=           -178.1158   YY=              3.0213   ZZ=             -1.3842
   XY=           -120.8118   XZ=             32.2023   YZ=             -2.6932

 Normal termination of Gaussian 16 at Tue Sep 21 19:32:49 2021.
