 Gaussian 16, Revision A.03,
 Gaussian 16:  ES64L-G16RevA.03 25-Dec-2016

 -----------------------------------
 #p cam-b3lyp/Def2SVP td=(nstates=5)
 -----------------------------------

 --------------------------------
 TDDFT excited states in gaussian
 --------------------------------
 Symbolic Z-matrix:
 Charge =  0 Multiplicity = 1

                         Standard orientation:
 ---------------------------------------------------------------------
 Center     Atomic      Atomic             Coordinates (Angstroms)
 Number     Number       Type             X           Y           Z
 ---------------------------------------------------------------------
      1         12           0       -9.604057    0.018198    0.752797
      2          6           0       -8.956884   -2.007583   -1.968748
      3          6           0       -6.798551   -1.281659    2.266017
      4          6           0       -9.889355    2.431686    3.180324
      5          6           0      -12.330002    1.349876   -0.874178
      6          7           0       -7.961323   -1.308412    0.138669
      7          6           0       -7.973436   -2.072612   -1.011521
      8          6           0       -6.773638   -3.013530   -1.082013
      9          6           0       -6.298174   -3.009926    0.418669
     10          6           0       -7.019175   -1.780322    0.951416
     11          6           0       -6.507527   -4.351150    1.257429
     12          6           0       -5.673484   -2.659067   -2.132708
     13          6           0       -5.157853   -3.816901   -2.961025
     14          1           0       -3.721997   -4.176739   -2.612259
     15          7           0       -8.482182    0.480993    2.439576
     16          6           0       -7.407462   -0.169819    2.899045
     17          6           0       -6.973623    0.383676    4.170127
     18          6           0       -7.778557    1.452245    4.528183
     19          6           0       -8.749220    1.547412    3.354687
     20          6           0       -5.674392   -0.147245    4.943555
     21          6           0       -7.717794    2.277840    5.857540
     22          8           0       -6.795932    2.026715    6.684412
     23          6           0       -8.673758    3.371183    6.146256
     24          7           0      -10.817218    1.878845    1.007412
     25          6           0      -10.861151    2.562110    2.127946
     26          6           0      -12.097648    3.429306    2.239660
     27          6           0      -12.912903    3.216044    0.919260
     28          6           0      -12.039032    2.019752    0.305827
     29          6           0      -12.893283    3.486730    3.582743
     30          6           0      -13.092072    4.381237   -0.096659
     31          6           0      -14.222845    4.143563   -1.076073
     32          7           0      -10.487406   -0.260144   -1.094456
     33          6           0      -11.676794    0.304529   -1.610364
     34          6           0      -11.966961   -0.345217   -2.859400
     35          6           0      -10.944104   -1.305137   -3.054425
     36          6           0      -10.084724   -1.150566   -1.970198
     37          6           0      -13.250354   -0.223638   -3.667453
     38          6           0      -10.537437   -2.298140   -3.919110
     39          8           0      -10.885300   -2.689059   -4.999962
     40          6           0       -9.098232   -2.733301   -3.325720
     41          6           0       -8.097095   -2.019124   -4.232486
     42          8           0       -7.771594   -0.850537   -4.148617
     43          8           0       -7.663686   -2.952328   -5.160416
     44          6           0       -6.774214   -2.449483   -6.202350
     45          1           0       -6.048611   -1.787130    2.877752
     46          1           0       -9.929168    3.160968    3.991741
     47          1           0      -13.236851    1.573994   -1.439709
     48          1           0       -7.156366   -4.013926   -1.281981
     49          1           0       -5.263606   -2.664847    0.414683
     50          1           0       -6.526780   -3.968646    2.277870
     51          1           0       -5.643504   -5.016099    1.262318
     52          1           0       -7.387815   -4.948184    1.019608
     53          1           0       -4.870121   -2.250073   -1.519645
     54          1           0       -5.853412   -1.787679   -2.761981
     55          1           0       -5.241093   -3.526756   -4.008645
     56          1           0       -5.739439   -4.727215   -2.814134
     57          1           0       -5.117679   -0.933445    4.431851
     58          1           0       -5.943191   -0.516411    5.933848
     59          1           0       -4.891423    0.604831    5.030279
     60          1           0       -9.688288    2.974017    6.155857
     61          1           0       -8.493640    4.240159    5.513238
     62          1           0       -8.526778    3.572152    7.206712
     63          1           0      -11.933744    4.499724    2.113695
     64          1           0      -13.835453    2.658811    1.083732
     65          1           0      -12.251194    3.017111    4.329189
     66          1           0      -13.903060    3.080269    3.515156
     67          1           0      -13.065619    4.495594    3.957981
     68          1           0      -12.119776    4.518660   -0.569600
     69          1           0      -13.240482    5.260605    0.529983
     70          1           0      -14.639232    5.116784   -1.337202
     71          1           0      -15.044421    3.531939   -0.701328
     72          1           0      -13.808007    3.768044   -2.011520
     73          1           0      -13.337793   -0.955998   -4.470064
     74          1           0      -13.299593    0.793099   -4.055067
     75          1           0      -14.129259   -0.347823   -3.034734
     76          1           0       -9.014344   -3.817183   -3.240796
     77          1           0       -7.314854   -1.741250   -6.830433
     78          1           0       -6.336178   -3.258017   -6.786585
     79          1           0       -5.969313   -1.874861   -5.744911
     80         12           0        9.524652    0.786685   -0.067382
     81          6           0        8.598688   -2.410407    1.012357
     82          6           0        6.241120    1.532140   -0.653320
     83          6           0       10.504577    3.655222   -1.391179
     84          6           0       12.928759   -0.193360    0.410104
     85          7           0        7.641241   -0.365875    0.122744
     86          6           0        7.450026   -1.626254    0.643873
     87          6           0        5.974747   -1.880622    0.892480
     88          6           0        5.273259   -0.717273    0.085999
     89          6           0        6.491477    0.254816   -0.074428
     90          6           0        4.705295   -1.160642   -1.256224
     91          6           0        5.708100   -2.031040    2.434605
     92          6           0        4.198171   -2.080910    2.798402
     93          1           0        3.267471   -2.670415    1.759064
     94          7           0        8.543574    2.326338   -0.862022
     95          6           0        7.184051    2.431187   -1.127599
     96          6           0        6.857644    3.694820   -1.811615
     97          6           0        8.129423    4.323222   -1.982997
     98          6           0        9.122861    3.420166   -1.407909
     99          6           0        5.471035    4.110639   -2.132763
    100          6           0        8.380372    5.652782   -2.646520
    101          8           0        9.535211    6.157668   -2.715370
    102          6           0        7.247659    6.481189   -3.189455
    103          7           0       11.468721    1.636942   -0.385605
    104          6           0       11.546907    2.841430   -0.951842
    105          6           0       13.066550    3.223699   -1.232345
    106          6           0       13.876249    1.925733   -0.671437
    107          6           0       12.704085    1.063419   -0.201150
    108          6           0       13.239589    3.490469   -2.783727
    109          6           0       14.840386    2.231072    0.553454
    110          6           0       16.271473    2.716883    0.184370
    111          7           0       10.591249   -0.906127    0.495904
    112          6           0       11.963560   -1.151580    0.765624
    113          6           0       12.128114   -2.560491    1.334091
    114          6           0       10.855028   -3.119526    1.381386
    115          6           0        9.945666   -2.034103    0.933293
    116          6           0       13.387501   -3.218654    1.803850
    117          6           0       10.061789   -4.264884    1.761664
    118          8           0       10.368237   -5.369660    2.220962
    119          6           0        8.525560   -3.789951    1.710859
    120          6           0        7.631099   -4.777722    0.997366
    121          8           0        7.452754   -4.787676   -0.190645
    122          8           0        6.857771   -5.521637    1.917015
    123          6           0        5.647131   -6.179052    1.402350
    124          1           0        5.165164    1.598097   -0.829809
    125          1           0       10.822539    4.597074   -1.843484
    126          1           0       13.942221   -0.594077    0.480615
    127          1           0        5.730807   -2.844863    0.448389
    128          1           0        4.500959   -0.168873    0.626329
    129          1           0        3.647958   -0.897757   -1.227890
    130          1           0        4.937267   -2.216117   -1.396700
    131          1           0        5.039919   -0.535222   -2.083514
    132          1           0        6.384811   -1.279925    2.840832
    133          1           0        6.167553   -2.979075    2.712285
    134          1           0        3.960059   -1.035871    2.996838
    135          1           0        4.090899   -2.673662    3.706716
    136          1           0        5.480156    4.127418   -3.222460
    137          1           0        5.189544    5.059545   -1.676989
    138          1           0        4.640507    3.450630   -1.879083
    139          1           0        6.601077    6.778386   -2.364940
    140          1           0        6.837575    5.749582   -3.886762
    141          1           0        7.524298    7.352210   -3.782857
    142          1           0       13.164211    4.091277   -0.578595
    143          1           0       14.308521    1.245340   -1.406362
    144          1           0       12.333042    3.347013   -3.371434
    145          1           0       13.989438    2.813427   -3.193803
    146          1           0       13.477099    4.550368   -2.869936
    147          1           0       14.817121    1.442669    1.305229
    148          1           0       14.387532    3.071620    1.078288
    149          1           0       16.420233    3.666073    0.697946
    150          1           0       16.352058    2.759837   -0.901876
    151          1           0       17.040927    2.031764    0.541048
    152          1           0       13.327118   -3.243751    2.892104
    153          1           0       14.257595   -2.659953    1.456927
    154          1           0       13.556835   -4.256392    1.517333
    155          1           0        8.220540   -3.653320    2.747949
    156          1           0        6.011444   -7.072487    0.895948
    157          1           0        5.046707   -5.481474    0.818067
    158          1           0        5.040165   -6.419128    2.274898
 ---------------------------------------------------------------------

 SCF Done:  E(RCAM-B3LYP) =  -4069.82252346     A.U. after   19 cycles

 Excitation energies and oscillator strengths:

 Excited State   1:      Singlet-A      1.7143 eV  723.22 nm  f=0.3827  <S**2>=0.000
     310 -> 315        0.19946
     312 -> 314        0.68037
     310 <- 315        0.11162
 This state for optimization and/or second-order correction.
 Total Energy, E(TD-HF/TD-DFT) =  -4069.75952265
 Copying the excited state density for this state as the 1-particle RhoCI density.

 Excited State   2:      Singlet-A      1.8632 eV  665.45 nm  f=0.3706  <S**2>=0.000
     309 -> 316       -0.14295
     311 -> 313        0.68807

 Excited State   3:      Singlet-A      2.2635 eV  547.74 nm  f=0.1289  <S**2>=0.000
     309 -> 313        0.64636
     311 -> 316        0.24687
     311 -> 318        0.10349

 Excited State   4:      Singlet-A      2.2905 eV  541.31 nm  f=0.0346  <S**2>=0.000
     310 -> 314        0.58758
     312 -> 315       -0.38617

 Excited State   5:      Singlet-A      2.7018 eV  458.89 nm  f=0.0000  <S**2>=0.000
     312 -> 313        0.70696

 The electronic state is 1-A.
 Alpha  occ. eigenvalues --  -46.89569 -46.88053 -19.24688 -19.23984 -19.20396
 Alpha  occ. eigenvalues --  -19.20300 -19.20048 -19.19171 -19.18366 -19.17877
 Alpha  occ. eigenvalues --  -14.42477 -14.42223 -14.42136 -14.41541 -14.40724
 Alpha  occ. eigenvalues --  -14.39935 -14.39857 -14.38654 -10.39421 -10.39260
 Alpha  occ. eigenvalues --  -10.37201 -10.35523 -10.35220 -10.33559 -10.33240
 Alpha  occ. eigenvalues --  -10.32576 -10.31895 -10.31779 -10.31311 -10.31253
 Alpha  occ. eigenvalues --  -10.30900 -10.30735 -10.30592 -10.30514 -10.30349
 Alpha  occ. eigenvalues --  -10.30343 -10.30297 -10.30096 -10.29978 -10.29970
 Alpha  occ. eigenvalues --  -10.29645 -10.29460 -10.29339 -10.29206 -10.29086
 Alpha  occ. eigenvalues --  -10.28607 -10.28555 -10.28534 -10.28505 -10.28491
 Alpha  occ. eigenvalues --  -10.28278 -10.28228 -10.28209 -10.28172 -10.28127
 Alpha  occ. eigenvalues --  -10.27736 -10.27706 -10.27700 -10.27583 -10.27576
 Alpha  occ. eigenvalues --  -10.27554 -10.27399 -10.27355 -10.27337 -10.27168
 Alpha  occ. eigenvalues --  -10.27117 -10.27114 -10.27055 -10.26997 -10.26957
 Alpha  occ. eigenvalues --  -10.26941 -10.26887 -10.26616 -10.26601 -10.26423
 Alpha  occ. eigenvalues --  -10.26401 -10.26205 -10.26154 -10.25970 -10.25931
 Alpha  occ. eigenvalues --  -10.25756 -10.25548 -10.25435 -10.25381 -10.25132
 Alpha  occ. eigenvalues --  -10.23266  -3.18008  -3.16735  -1.92891  -1.92469
 Alpha  occ. eigenvalues --   -1.92311  -1.91640  -1.91176  -1.91066  -1.15632
 Alpha  occ. eigenvalues --   -1.15479  -1.09958  -1.09317  -1.09104  -1.08078
 Alpha  occ. eigenvalues --   -1.07780  -1.07779  -1.04760  -1.04314  -1.04005
 Alpha  occ. eigenvalues --   -1.03450  -1.03362  -1.02780  -1.02716  -1.01359
 Alpha  occ. eigenvalues --   -0.91730  -0.91594  -0.89327  -0.88893  -0.88690
 Alpha  occ. eigenvalues --   -0.88574  -0.88136  -0.87807  -0.87547  -0.87223
 Alpha  occ. eigenvalues --   -0.86809  -0.86708  -0.86305  -0.85987  -0.84669
 Alpha  occ. eigenvalues --   -0.84239  -0.83789  -0.83384  -0.82924  -0.82233
 Alpha  occ. eigenvalues --   -0.82168  -0.81915  -0.80876  -0.80748  -0.80388
 Alpha  occ. eigenvalues --   -0.79991  -0.78938  -0.77809  -0.77403  -0.77321
 Alpha  occ. eigenvalues --   -0.76972  -0.76927  -0.75758  -0.75502  -0.75304
 Alpha  occ. eigenvalues --   -0.74528  -0.72557  -0.72051  -0.71862  -0.71455
 Alpha  occ. eigenvalues --   -0.69876  -0.69406  -0.69285  -0.68598  -0.68263
 Alpha  occ. eigenvalues --   -0.68085  -0.67534  -0.67046  -0.65800  -0.65630
 Alpha  occ. eigenvalues --   -0.65493  -0.65117  -0.64849  -0.64210  -0.63934
 Alpha  occ. eigenvalues --   -0.63753  -0.61871  -0.61263  -0.60613  -0.60137
 Alpha  occ. eigenvalues --   -0.59646  -0.59482  -0.59199  -0.58683  -0.58630
 Alpha  occ. eigenvalues --   -0.58009  -0.57792  -0.57558  -0.57497  -0.56754
 Alpha  occ. eigenvalues --   -0.56606  -0.56133  -0.55947  -0.55655  -0.55210
 Alpha  occ. eigenvalues --   -0.54504  -0.54341  -0.54237  -0.54090  -0.53942
 Alpha  occ. eigenvalues --   -0.53907  -0.53658  -0.53507  -0.53333  -0.53242
 Alpha  occ. eigenvalues --   -0.52880  -0.52494  -0.52194  -0.52167  -0.51888
 Alpha  occ. eigenvalues --   -0.51732  -0.51730  -0.51427  -0.51191  -0.51144
 Alpha  occ. eigenvalues --   -0.50977  -0.50806  -0.50703  -0.50467  -0.50334
 Alpha  occ. eigenvalues --   -0.50183  -0.50038  -0.49978  -0.49629  -0.49522
 Alpha  occ. eigenvalues --   -0.49418  -0.49309  -0.49190  -0.48986  -0.48879
 Alpha  occ. eigenvalues --   -0.48862  -0.48706  -0.48490  -0.48361  -0.48092
 Alpha  occ. eigenvalues --   -0.48039  -0.47740  -0.47540  -0.47362  -0.47347
 Alpha  occ. eigenvalues --   -0.46862  -0.46728  -0.46366  -0.46300  -0.46166
 Alpha  occ. eigenvalues --   -0.46126  -0.46058  -0.45718  -0.45575  -0.45386
 Alpha  occ. eigenvalues --   -0.45351  -0.45216  -0.45193  -0.45146  -0.45047
 Alpha  occ. eigenvalues --   -0.44846  -0.44834  -0.44637  -0.44453  -0.44169
 Alpha  occ. eigenvalues --   -0.44115  -0.43976  -0.43756  -0.43559  -0.43455
 Alpha  occ. eigenvalues --   -0.43255  -0.43106  -0.43055  -0.42887  -0.42878
 Alpha  occ. eigenvalues --   -0.42725  -0.42641  -0.42539  -0.42345  -0.42323
 Alpha  occ. eigenvalues --   -0.42203  -0.42084  -0.41786  -0.41509  -0.41271
 Alpha  occ. eigenvalues --   -0.40940  -0.40891  -0.40560  -0.40312  -0.40311
 Alpha  occ. eigenvalues --   -0.40170  -0.40038  -0.39420  -0.39224  -0.39167
 Alpha  occ. eigenvalues --   -0.39055  -0.38507  -0.38232  -0.38200  -0.37968
 Alpha  occ. eigenvalues --   -0.37518  -0.36653  -0.36634  -0.36495  -0.36275
 Alpha  occ. eigenvalues --   -0.35881  -0.35513  -0.34599  -0.34533  -0.34461
 Alpha  occ. eigenvalues --   -0.34125  -0.33246  -0.33157  -0.32614  -0.32055
 Alpha  occ. eigenvalues --   -0.31296  -0.31027  -0.30909  -0.30485  -0.30473
 Alpha  occ. eigenvalues --   -0.30010  -0.29819  -0.29261  -0.24237  -0.23965
 Alpha  occ. eigenvalues --   -0.21649  -0.20408
 Alpha virt. eigenvalues --   -0.08622  -0.07865  -0.02119  -0.01957  -0.00191
 Alpha virt. eigenvalues --   -0.00056   0.01649   0.01832   0.02192   0.03281
 Alpha virt. eigenvalues --    0.04494   0.04932   0.04982   0.05651   0.05892

 Mulliken charges:
               1
     1  Mg   0.828895
     2  C   -0.030084
     3  C   -0.118601
     4  C   -0.095775
     5  C   -0.030337
     6  N   -0.261029
     7  C   -0.046268
     8  C   -0.037645
     9  C   -0.022522
    10  C    0.032040
    11  C    0.082904
    12  C    0.069860
    13  C   -0.052891
    14  H    0.007585
    15  N   -0.381582
    16  C    0.167546
    17  C   -0.137220
    18  C   -0.024639
    19  C    0.115248
    20  C    0.117192
    21  C    0.007344
    22  O   -0.226688
    23  C    0.070391
    24  N   -0.264362
    25  C    0.101445
    26  C   -0.027445
    27  C   -0.054047
    28  C    0.007666
    29  C    0.064990
    30  C    0.060274
    31  C    0.025560
    32  N   -0.347638
    33  C    0.034481
    34  C   -0.140185
    35  C    0.052447
    36  C    0.114814
    37  C    0.104342
    38  C   -0.012117
    39  O   -0.156916
    40  C   -0.046372
    41  C    0.232146
    42  O   -0.212210
    43  O   -0.335293
    44  C    0.185570
    45  H   -0.026364
    46  H   -0.042605
    47  H   -0.040808
    48  H   -0.000426
    49  H    0.005191
    50  H    0.005009
    51  H    0.021331
    52  H    0.032204
    53  H   -0.005014
    54  H    0.028689
    55  H    0.025918
    56  H    0.027744
    57  H   -0.003430
    58  H    0.041392
    59  H    0.035163
    60  H    0.041073
    61  H    0.068618
    62  H    0.028426
    63  H    0.010259
    64  H    0.006904
    65  H    0.011336
    66  H    0.019625
    67  H    0.007100
    68  H    0.016639
    69  H    0.001508
    70  H    0.007994
    71  H    0.022303
    72  H    0.031282
    73  H    0.034435
    74  H    0.016258
    75  H    0.019687
    76  H    0.025087
    77  H    0.038411
    78  H    0.042005
    79  H    0.026185
    80  Mg   0.842132
    81  C   -0.020527
    82  C   -0.089994
    83  C   -0.079620
    84  C   -0.078341
    85  N   -0.250665
    86  C   -0.044790
    87  C   -0.012985
    88  C   -0.082224
    89  C   -0.014497
    90  C    0.091520
    91  C    0.015927
    92  C   -0.044327
    93  H    0.031382
    94  N   -0.411470
    95  C    0.200955
    96  C   -0.143899
    97  C   -0.033943
    98  C    0.153167
    99  C    0.122104
   100  C   -0.007191
   101  O   -0.241929
   102  C    0.080592
   103  N   -0.275391
   104  C    0.019592
   105  C   -0.035746
   106  C    0.002855
   107  C    0.012019
   108  C    0.060806
   109  C    0.002619
   110  C    0.023789
   111  N   -0.368207
   112  C    0.111808
   113  C   -0.177395
   114  C    0.032676
   115  C    0.112068
   116  C    0.110970
   117  C    0.072020
   118  O   -0.179542
   119  C   -0.071681
   120  C    0.225326
   121  O   -0.190621
   122  O   -0.375647
   123  C    0.183915
   124  H   -0.034728
   125  H   -0.005855
   126  H   -0.023978
   127  H    0.008413
   128  H    0.003654
   129  H    0.006394
   130  H    0.036631
   131  H    0.014870
   132  H    0.016886
   133  H    0.014997
   134  H    0.036908
   135  H    0.035751
   136  H    0.032332
   137  H    0.035860
   138  H    0.012210
   139  H    0.044658
   140  H    0.020024
   141  H    0.028149
   142  H    0.024701
   143  H    0.018543
   144  H    0.031771
   145  H    0.016268
   146  H    0.027687
   147  H    0.011343
   148  H   -0.004939
   149  H    0.019967
   150  H    0.018644
   151  H    0.014641
   152  H    0.037832
   153  H    0.005624
   154  H    0.037428
   155  H    0.062947
   156  H    0.049945
   157  H    0.033158
   158  H    0.033656
 Sum of Mulliken charges =  -0.00000

 Dipole moment (field-independent basis, Debye):
    X=             -4.8391    Y=              4.3743    Z=              4.2855  Tot=              7.8049
 Quadrupole moment (field-independent basis, Debye-Ang):
   XX=           -497.5822   YY=           -527.5902   ZZ=           -538.5921
   XY=            -11.9553   XZ=            -51.0525   YZ=             -1.3406

 Normal termination of Gaussian 16 at Wed Sep  1 17:46:20 2021.
