 Gaussian 16, Revision A.03,
 Gaussian 16:  ES64L-G16RevA.03 25-Dec-2016

 -----------------------------------
 #p cam-b3lyp/Def2SVP td=(nstates=5)
 -----------------------------------

 --------------------------------
 TDDFT excited states in gaussian
 --------------------------------
 Symbolic Z-matrix:
 Charge =  0 Multiplicity = 1

                         Standard orientation:
 ---------------------------------------------------------------------
 Center     Atomic      Atomic             Coordinates (Angstroms)
 Number     Number       Type             X           Y           Z
 ---------------------------------------------------------------------
      1         12           0      -26.911413    0.591355   -0.064645
      2          6           0      -25.440897   -2.053190    1.634866
      3          6           0      -27.909650   -1.511419   -2.505134
      4          6           0      -28.134187    3.247021   -1.694720
      5          6           0      -25.693026    2.717162    2.437046
      6          7           0      -26.683517   -1.569691   -0.316488
      7          6           0      -26.156238   -2.450201    0.500170
      8          6           0      -26.361774   -3.894607   -0.151685
      9          6           0      -26.386522   -3.470776   -1.605030
     10          6           0      -27.087735   -2.078939   -1.502973
     11          6           0      -24.956901   -3.473474   -2.188030
     12          6           0      -27.593530   -4.642143    0.518558
     13          6           0      -27.595630   -6.162418    0.331128
     14          1           0      -26.605767   -6.781566   -0.640476
     15          7           0      -28.026719    0.810683   -1.738425
     16          6           0      -28.406472   -0.225398   -2.588401
     17          6           0      -29.393877    0.330707   -3.561508
     18          6           0      -29.425199    1.778076   -3.375321
     19          6           0      -28.435584    1.961788   -2.280633
     20          6           0      -30.123125   -0.527460   -4.567975
     21          6           0      -30.299884    2.914977   -4.080055
     22          8           0      -30.265394    4.106752   -3.755451
     23          6           0      -31.224399    2.463015   -5.191185
     24          7           0      -26.820935    2.635562    0.243391
     25          6           0      -27.380973    3.533650   -0.562548
     26          6           0      -27.074806    5.002682   -0.136501
     27          6           0      -26.526702    4.762707    1.277547
     28          6           0      -26.377298    3.277354    1.380944
     29          6           0      -26.105192    5.764525   -1.082617
     30          6           0      -27.244954    5.485791    2.502330
     31          6           0      -28.138859    4.655669    3.363765
     32          7           0      -25.624647    0.457798    1.577153
     33          6           0      -25.276426    1.362410    2.522845
     34          6           0      -24.438569    0.821163    3.532788
     35          6           0      -24.469369   -0.576287    3.229000
     36          6           0      -25.197751   -0.681627    2.066121
     37          6           0      -23.665562    1.412828    4.682835
     38          6           0      -24.059512   -1.895549    3.608431
     39          8           0      -23.390276   -2.302365    4.533585
     40          6           0      -24.784246   -2.940634    2.701555
     41          6           0      -23.804025   -3.891079    2.167756
     42          8           0      -22.879306   -3.543942    1.448889
     43          8           0      -23.921085   -5.198542    2.704988
     44          6           0      -22.888008   -6.161211    2.291666
     45          1           0      -28.156322   -2.211754   -3.304452
     46          1           0      -28.507235    4.094559   -2.272163
     47          1           0      -25.288284    3.416762    3.170877
     48          1           0      -25.512833   -4.532160    0.091444
     49          1           0      -27.044802   -4.067230   -2.236207
     50          1           0      -25.007383   -4.288379   -2.910954
     51          1           0      -24.191127   -3.674797   -1.437768
     52          1           0      -24.861264   -2.542181   -2.745847
     53          1           0      -28.529650   -4.267955    0.103152
     54          1           0      -27.477842   -4.465862    1.588225
     55          1           0      -28.607005   -6.436034    0.032115
     56          1           0      -27.439701   -6.599736    1.316998
     57          1           0      -30.326840   -1.522272   -4.170162
     58          1           0      -29.655817   -0.654653   -5.543933
     59          1           0      -31.108049   -0.092955   -4.738291
     60          1           0      -30.568035    1.895117   -5.850138
     61          1           0      -31.641592    3.270725   -5.791865
     62          1           0      -32.057866    1.899319   -4.771721
     63          1           0      -27.983403    5.603568   -0.101115
     64          1           0      -25.478961    5.057676    1.232853
     65          1           0      -25.426379    6.299938   -0.418359
     66          1           0      -26.552436    6.449557   -1.801230
     67          1           0      -25.601576    5.025500   -1.705823
     68          1           0      -27.743227    6.380152    2.128063
     69          1           0      -26.485889    5.806121    3.215626
     70          1           0      -27.659420    4.567658    4.338984
     71          1           0      -28.210907    3.598536    3.105116
     72          1           0      -29.123978    5.086755    3.542446
     73          1           0      -23.706615    2.502561    4.694705
     74          1           0      -22.656883    0.998695    4.680842
     75          1           0      -24.059267    1.224132    5.681812
     76          1           0      -25.540469   -3.499268    3.252422
     77          1           0      -23.085421   -7.196544    2.568448
     78          1           0      -21.994557   -5.793256    2.796834
     79          1           0      -22.762094   -6.005075    1.220926
     80         12           0       27.017048    0.472896   -0.040759
     81          6           0       25.020551   -1.834788   -1.543987
     82          6           0       28.634955   -1.989510    1.735705
     83          6           0       28.805364    2.894762    1.507549
     84          6           0       25.021706    2.991618   -1.512630
     85          7           0       26.688467   -1.664020    0.241741
     86          6           0       26.050103   -2.390754   -0.713977
     87          6           0       26.379375   -3.844516   -0.673088
     88          6           0       27.375186   -3.857177    0.599400
     89          6           0       27.599373   -2.411550    0.900137
     90          6           0       26.765010   -4.634466    1.852212
     91          6           0       27.128858   -4.242429   -2.029105
     92          6           0       27.091365   -5.714460   -2.445436
     93          1           0       26.661315   -6.875994   -1.515170
     94          7           0       28.583781    0.502408    1.344475
     95          6           0       29.092136   -0.642678    1.979174
     96          6           0       30.119522   -0.198051    2.892128
     97          6           0       30.200022    1.207213    2.813934
     98          6           0       29.198366    1.564022    1.818650
     99          6           0       30.958468   -1.210555    3.706265
    100          6           0       31.120800    2.194729    3.704777
    101          8           0       31.227234    3.404494    3.466856
    102          6           0       31.966814    1.742821    4.883663
    103          7           0       26.943931    2.684905   -0.081442
    104          6           0       27.785049    3.410239    0.693798
    105          6           0       27.374925    4.881295    0.737662
    106          6           0       26.335196    4.968618   -0.522426
    107          6           0       26.126858    3.478677   -0.835932
    108          6           0       26.862842    5.427448    2.148372
    109          6           0       26.906158    5.622778   -1.880971
    110          6           0       26.109556    6.701036   -2.592262
    111          7           0       25.379260    0.642821   -1.325912
    112          6           0       24.679003    1.678477   -1.820757
    113          6           0       23.640547    1.178129   -2.775155
    114          6           0       23.815941   -0.224360   -2.706384
    115          6           0       24.798818   -0.464543   -1.715315
    116          6           0       22.677236    1.908824   -3.642144
    117          6           0       23.283467   -1.412654   -3.259806
    118          8           0       22.376763   -1.574841   -4.102158
    119          6           0       24.037658   -2.519870   -2.527834
    120          6           0       23.086124   -3.334491   -1.807309
    121          8           0       22.262280   -3.038869   -0.999219
    122          8           0       23.371835   -4.653801   -2.145892
    123          6           0       22.624420   -5.822399   -1.541636
    124          1           0       29.334388   -2.714925    2.155508
    125          1           0       29.319655    3.668509    2.081975
    126          1           0       24.252809    3.692665   -1.842145
    127          1           0       25.607231   -4.601727   -0.538421
    128          1           0       28.326552   -4.328768    0.353295
    129          1           0       27.476520   -5.198604    2.454763
    130          1           0       25.910402   -5.225234    1.522812
    131          1           0       26.364782   -3.870033    2.519012
    132          1           0       28.178519   -3.948856   -2.006588
    133          1           0       26.645085   -3.647091   -2.803884
    134          1           0       28.091040   -5.935817   -2.821411
    135          1           0       26.462362   -5.806979   -3.329997
    136          1           0       30.739308   -2.255114    3.485376
    137          1           0       30.782200   -0.984378    4.757349
    138          1           0       32.006887   -0.991426    3.502713
    139          1           0       32.760481    1.146990    4.434429
    140          1           0       31.479202    0.967787    5.475320
    141          1           0       32.181460    2.583544    5.543054
    142          1           0       28.248556    5.474565    0.465035
    143          1           0       25.431255    5.511275   -0.245119
    144          1           0       25.850574    5.825716    2.075197
    145          1           0       27.544154    6.190115    2.523812
    146          1           0       26.787580    4.614205    2.870619
    147          1           0       27.179379    4.862924   -2.612995
    148          1           0       27.873919    6.051523   -1.622500
    149          1           0       25.943972    6.342125   -3.607473
    150          1           0       26.603710    7.672143   -2.582637
    151          1           0       25.118134    6.780054   -2.144042
    152          1           0       22.780328    2.993748   -3.630222
    153          1           0       21.649627    1.699417   -3.343912
    154          1           0       22.813909    1.567447   -4.668050
    155          1           0       24.599809   -3.156950   -3.211256
    156          1           0       21.908305   -5.471420   -0.798291
    157          1           0       23.324746   -6.468630   -1.010770
    158          1           0       22.130041   -6.313108   -2.379982
 ---------------------------------------------------------------------

 SCF Done:  E(RCAM-B3LYP) =  -4069.81952965     A.U. after   18 cycles

 Excitation energies and oscillator strengths:

 Excited State   1:      Singlet-A      1.7355 eV  714.39 nm  f=0.4039  <S**2>=0.000
     309 -> 316        0.17780
     311 -> 313        0.68640
     309 <- 316        0.10691
 This state for optimization and/or second-order correction.
 Total Energy, E(TD-HF/TD-DFT) =  -4069.75574984
 Copying the excited state density for this state as the 1-particle RhoCI density.

 Excited State   2:      Singlet-A      1.7389 eV  713.01 nm  f=0.3859  <S**2>=0.000
     310 -> 315       -0.19174
     312 -> 314        0.68287
     310 <- 315       -0.10975

 Excited State   3:      Singlet-A      2.2152 eV  559.70 nm  f=0.1491  <S**2>=0.000
     309 -> 313        0.65494
     311 -> 316       -0.25751

 Excited State   4:      Singlet-A      2.2287 eV  556.30 nm  f=0.1037  <S**2>=0.000
     310 -> 314        0.63902
     312 -> 315        0.29488

 Excited State   5:      Singlet-A      3.1722 eV  390.85 nm  f=0.0000  <S**2>=0.000
     312 -> 313        0.70711

 The electronic state is 1-A.
 Alpha  occ. eigenvalues --  -46.89387 -46.87754 -19.23903 -19.23670 -19.20469
 Alpha  occ. eigenvalues --  -19.19578 -19.19477 -19.19181 -19.18767 -19.17892
 Alpha  occ. eigenvalues --  -14.42465 -14.42003 -14.41657 -14.41450 -14.40100
 Alpha  occ. eigenvalues --  -14.39538 -14.39378 -14.38623 -10.38863 -10.38639
 Alpha  occ. eigenvalues --  -10.37226 -10.36217 -10.34461 -10.34096 -10.31888
 Alpha  occ. eigenvalues --  -10.31733 -10.31320 -10.31128 -10.31054 -10.30988
 Alpha  occ. eigenvalues --  -10.30662 -10.30632 -10.30582 -10.30446 -10.30298
 Alpha  occ. eigenvalues --  -10.30201 -10.29981 -10.29856 -10.29841 -10.29733
 Alpha  occ. eigenvalues --  -10.29005 -10.29001 -10.28841 -10.28811 -10.28760
 Alpha  occ. eigenvalues --  -10.28662 -10.28285 -10.28237 -10.28175 -10.28174
 Alpha  occ. eigenvalues --  -10.28110 -10.28086 -10.27950 -10.27948 -10.27946
 Alpha  occ. eigenvalues --  -10.27940 -10.27810 -10.27618 -10.27582 -10.27539
 Alpha  occ. eigenvalues --  -10.27503 -10.27448 -10.27385 -10.27351 -10.27283
 Alpha  occ. eigenvalues --  -10.27232 -10.27154 -10.27053 -10.26753 -10.26649
 Alpha  occ. eigenvalues --  -10.26423 -10.26322 -10.26197 -10.26155 -10.26102
 Alpha  occ. eigenvalues --  -10.26053 -10.25884 -10.25880 -10.25753 -10.25733
 Alpha  occ. eigenvalues --  -10.25660 -10.25570 -10.25350 -10.24735 -10.24513
 Alpha  occ. eigenvalues --  -10.24173  -3.17794  -3.16520  -1.92714  -1.92231
 Alpha  occ. eigenvalues --   -1.92105  -1.91431  -1.90939  -1.90867  -1.15619
 Alpha  occ. eigenvalues --   -1.14487  -1.10475  -1.09565  -1.09502  -1.08313
 Alpha  occ. eigenvalues --   -1.07189  -1.06733  -1.05575  -1.05550  -1.04718
 Alpha  occ. eigenvalues --   -1.04447  -1.04138  -1.03563  -1.03152  -1.02617
 Alpha  occ. eigenvalues --   -0.93480  -0.92121  -0.89199  -0.88595  -0.88571
 Alpha  occ. eigenvalues --   -0.88276  -0.88249  -0.87504  -0.87286  -0.87110
 Alpha  occ. eigenvalues --   -0.87052  -0.86893  -0.86252  -0.86209  -0.84324
 Alpha  occ. eigenvalues --   -0.84312  -0.83656  -0.83461  -0.82752  -0.82557
 Alpha  occ. eigenvalues --   -0.82351  -0.81595  -0.81175  -0.80944  -0.80287
 Alpha  occ. eigenvalues --   -0.80060  -0.78578  -0.78399  -0.77458  -0.77233
 Alpha  occ. eigenvalues --   -0.77110  -0.76653  -0.76189  -0.75849  -0.75174
 Alpha  occ. eigenvalues --   -0.75061  -0.72808  -0.72577  -0.71972  -0.71167
 Alpha  occ. eigenvalues --   -0.69244  -0.69242  -0.68742  -0.68626  -0.68212
 Alpha  occ. eigenvalues --   -0.67922  -0.66607  -0.65971  -0.65325  -0.65191
 Alpha  occ. eigenvalues --   -0.65044  -0.64655  -0.64502  -0.64238  -0.64181
 Alpha  occ. eigenvalues --   -0.63994  -0.61803  -0.61240  -0.60626  -0.60436
 Alpha  occ. eigenvalues --   -0.59913  -0.59578  -0.59170  -0.59119  -0.58782
 Alpha  occ. eigenvalues --   -0.58459  -0.58007  -0.57970  -0.57742  -0.57610
 Alpha  occ. eigenvalues --   -0.56013  -0.55791  -0.55662  -0.55489  -0.55430
 Alpha  occ. eigenvalues --   -0.55280  -0.54778  -0.54222  -0.53981  -0.53757
 Alpha  occ. eigenvalues --   -0.53678  -0.53350  -0.53031  -0.52986  -0.52963
 Alpha  occ. eigenvalues --   -0.52747  -0.52651  -0.52327  -0.52188  -0.52126
 Alpha  occ. eigenvalues --   -0.52124  -0.51788  -0.51683  -0.51618  -0.51394
 Alpha  occ. eigenvalues --   -0.51200  -0.50794  -0.50715  -0.50685  -0.50529
 Alpha  occ. eigenvalues --   -0.50336  -0.49880  -0.49792  -0.49689  -0.49494
 Alpha  occ. eigenvalues --   -0.49382  -0.49224  -0.49113  -0.48997  -0.48903
 Alpha  occ. eigenvalues --   -0.48798  -0.48535  -0.48488  -0.48293  -0.48132
 Alpha  occ. eigenvalues --   -0.47938  -0.47746  -0.47601  -0.47368  -0.47255
 Alpha  occ. eigenvalues --   -0.46915  -0.46867  -0.46579  -0.46445  -0.46444
 Alpha  occ. eigenvalues --   -0.46280  -0.46234  -0.46155  -0.46012  -0.45777
 Alpha  occ. eigenvalues --   -0.45571  -0.45562  -0.45175  -0.44934  -0.44675
 Alpha  occ. eigenvalues --   -0.44634  -0.44337  -0.44315  -0.44249  -0.44000
 Alpha  occ. eigenvalues --   -0.43967  -0.43936  -0.43885  -0.43678  -0.43435
 Alpha  occ. eigenvalues --   -0.43311  -0.43213  -0.43128  -0.42967  -0.42659
 Alpha  occ. eigenvalues --   -0.42468  -0.42310  -0.42057  -0.41784  -0.41734
 Alpha  occ. eigenvalues --   -0.41617  -0.41398  -0.41283  -0.41121  -0.41039
 Alpha  occ. eigenvalues --   -0.41016  -0.40961  -0.40798  -0.40515  -0.40208
 Alpha  occ. eigenvalues --   -0.40194  -0.39964  -0.39709  -0.39395  -0.39175
 Alpha  occ. eigenvalues --   -0.38407  -0.38183  -0.38046  -0.37772  -0.37556
 Alpha  occ. eigenvalues --   -0.37523  -0.36745  -0.36612  -0.36566  -0.36139
 Alpha  occ. eigenvalues --   -0.36061  -0.35613  -0.34477  -0.34429  -0.34219
 Alpha  occ. eigenvalues --   -0.33926  -0.33241  -0.33141  -0.32184  -0.31236
 Alpha  occ. eigenvalues --   -0.31142  -0.31087  -0.31008  -0.30495  -0.30171
 Alpha  occ. eigenvalues --   -0.30161  -0.30035  -0.29549  -0.23885  -0.23819
 Alpha  occ. eigenvalues --   -0.21381  -0.21118
 Alpha virt. eigenvalues --   -0.08825  -0.08501  -0.01688  -0.01244  -0.00006
 Alpha virt. eigenvalues --    0.00011   0.02321   0.02485   0.02806   0.03515
 Alpha virt. eigenvalues --    0.04682   0.04806   0.05337   0.05347   0.06146

 Mulliken charges:
               1
     1  Mg   0.842563
     2  C   -0.021648
     3  C   -0.078599
     4  C   -0.075122
     5  C   -0.111277
     6  N   -0.243015
     7  C   -0.062038
     8  C   -0.047434
     9  C   -0.052403
    10  C    0.015683
    11  C    0.105873
    12  C    0.057335
    13  C   -0.053902
    14  H    0.023578
    15  N   -0.393558
    16  C    0.179573
    17  C   -0.141567
    18  C   -0.075165
    19  C    0.104623
    20  C    0.096178
    21  C    0.057903
    22  O   -0.196829
    23  C    0.033355
    24  N   -0.301823
    25  C    0.062659
    26  C   -0.047762
    27  C    0.014883
    28  C    0.029749
    29  C    0.068823
    30  C    0.044637
    31  C    0.006263
    32  N   -0.283325
    33  C    0.112479
    34  C   -0.165610
    35  C    0.022720
    36  C    0.067172
    37  C    0.123696
    38  C    0.018827
    39  O   -0.167211
    40  C    0.053363
    41  C    0.179844
    42  O   -0.224381
    43  O   -0.371087
    44  C    0.187047
    45  H   -0.022519
    46  H   -0.009366
    47  H   -0.032025
    48  H   -0.002121
    49  H   -0.022986
    50  H    0.012577
    51  H    0.048816
    52  H    0.014424
    53  H    0.011114
    54  H    0.016539
    55  H    0.022733
    56  H    0.030172
    57  H    0.017725
    58  H    0.042061
    59  H    0.008694
    60  H    0.038380
    61  H    0.029181
    62  H    0.060230
    63  H    0.009229
    64  H    0.004414
    65  H    0.017347
    66  H    0.022860
    67  H    0.019465
    68  H    0.008873
    69  H    0.003217
    70  H   -0.003662
    71  H    0.027796
    72  H    0.017068
    73  H   -0.005937
    74  H    0.043991
    75  H    0.023707
    76  H    0.037091
    77  H    0.044989
    78  H    0.038825
    79  H    0.032028
    80  Mg   0.812068
    81  C   -0.074072
    82  C   -0.059182
    83  C   -0.048944
    84  C   -0.095307
    85  N   -0.287481
    86  C   -0.007255
    87  C   -0.035678
    88  C   -0.060085
    89  C    0.073587
    90  C    0.067932
    91  C    0.021894
    92  C   -0.043633
    93  H    0.021789
    94  N   -0.352751
    95  C    0.090823
    96  C   -0.157982
    97  C   -0.044727
    98  C    0.100237
    99  C    0.108424
   100  C    0.033417
   101  O   -0.220435
   102  C    0.070303
   103  N   -0.263503
   104  C    0.011763
   105  C   -0.016201
   106  C   -0.070736
   107  C    0.089959
   108  C    0.065462
   109  C    0.016607
   110  C    0.018718
   111  N   -0.299343
   112  C    0.080625
   113  C   -0.145582
   114  C   -0.016607
   115  C    0.164965
   116  C    0.124106
   117  C    0.057608
   118  O   -0.193362
   119  C    0.017344
   120  C    0.186304
   121  O   -0.169723
   122  O   -0.386234
   123  C    0.166632
   124  H   -0.032739
   125  H   -0.011506
   126  H   -0.026895
   127  H    0.021756
   128  H    0.005719
   129  H    0.022408
   130  H    0.011917
   131  H    0.016958
   132  H    0.008709
   133  H    0.010160
   134  H    0.020040
   135  H    0.030515
   136  H    0.019243
   137  H    0.030227
   138  H    0.026448
   139  H    0.033412
   140  H    0.005450
   141  H    0.050258
   142  H    0.010944
   143  H    0.010660
   144  H    0.012016
   145  H    0.028778
   146  H    0.024170
   147  H    0.014752
   148  H   -0.003670
   149  H    0.015261
   150  H    0.026190
   151  H    0.004564
   152  H    0.001615
   153  H    0.042121
   154  H    0.040906
   155  H    0.039671
   156  H    0.049402
   157  H    0.037315
   158  H    0.051486
 Sum of Mulliken charges =  -0.00000

 Dipole moment (field-independent basis, Debye):
    X=             -0.7582    Y=             -2.2563    Z=             -2.2622  Tot=              3.2838
 Quadrupole moment (field-independent basis, Debye-Ang):
   XX=           -139.2548   YY=           -465.7847   ZZ=           -512.8463
   XY=            -30.6848   XZ=            124.8136   YZ=              7.9431

 Normal termination of Gaussian 16 at Thu Sep 16 14:31:45 2021.
