 Gaussian 16, Revision A.03,
 Gaussian 16:  ES64L-G16RevA.03 25-Dec-2016

 -----------------------------------
 #p cam-b3lyp/Def2SVP td=(nstates=5)
 -----------------------------------

 --------------------------------
 TDDFT excited states in gaussian
 --------------------------------
 Symbolic Z-matrix:
 Charge =  0 Multiplicity = 1

                         Standard orientation:
 ---------------------------------------------------------------------
 Center     Atomic      Atomic             Coordinates (Angstroms)
 Number     Number       Type             X           Y           Z
 ---------------------------------------------------------------------
      1         12           0       11.758317   -0.022739    0.610490
      2          6           0        8.371443    0.162801   -0.389315
      3          6           0       12.491164    2.318519   -1.779180
      4          6           0       14.969432   -0.672667    1.094393
      5          6           0       10.905324   -2.736280    2.650234
      6          7           0       10.580275    0.991885   -1.023800
      7          6           0        9.187802    0.977411   -1.140204
      8          6           0        8.725588    2.116591   -2.081942
      9          6           0       10.077029    2.783060   -2.531236
     10          6           0       11.163109    2.032436   -1.711797
     11          6           0       10.296787    2.967363   -4.022626
     12          6           0        7.723704    3.125092   -1.498501
     13          6           0        6.426460    3.282411   -2.338438
     14          1           0        6.107557    4.692051   -2.784745
     15          7           0       13.485211    0.804339   -0.188257
     16          6           0       13.613584    1.729416   -1.182327
     17          6           0       15.008582    2.090694   -1.267415
     18          6           0       15.779482    1.100370   -0.520677
     19          6           0       14.712721    0.361603    0.137258
     20          6           0       15.554006    3.211041   -2.295939
     21          6           0       17.186342    0.689219   -0.603892
     22          8           0       17.744661   -0.138124    0.058706
     23          6           0       18.023525    1.391585   -1.668705
     24          7           0       12.784833   -1.661218    1.576507
     25          6           0       14.127954   -1.647529    1.681566
     26          6           0       14.600934   -2.676697    2.710849
     27          6           0       13.299792   -3.052858    3.437666
     28          6           0       12.246865   -2.430209    2.548273
     29          6           0       15.286736   -3.934972    2.005122
     30          6           0       13.299241   -2.341946    4.885468
     31          6           0       13.075029   -0.805085    4.881529
     32          7           0       10.010250   -1.063277    1.194930
     33          6           0        9.836257   -2.107821    2.020677
     34          6           0        8.432648   -2.418942    2.060862
     35          6           0        7.831410   -1.535037    1.184590
     36          6           0        8.831729   -0.747155    0.608578
     37          6           0        7.712786   -3.495421    2.850655
     38          6           0        6.513924   -1.225805    0.622535
     39          8           0        5.398656   -1.664128    0.654397
     40          6           0        6.792273   -0.060091   -0.362873
     41          6           0        6.319233   -0.536619   -1.686324
     42          8           0        6.717118   -1.570490   -2.161456
     43          8           0        5.338686    0.267117   -2.245307
     44          6           0        4.603567   -0.301002   -3.424538
     45          1           0       12.679364    3.204714   -2.389048
     46          1           0       16.008497   -0.850326    1.380776
     47          1           0       10.520530   -3.420024    3.409800
     48          1           0        8.308575    1.672736   -2.986168
     49          1           0       10.055865    3.826190   -2.215145
     50          1           0        9.610313    2.350858   -4.601062
     51          1           0       11.320006    2.770593   -4.343625
     52          1           0       10.011386    3.996622   -4.238586
     53          1           0        8.044046    4.161448   -1.391381
     54          1           0        7.436903    2.841571   -0.486103
     55          1           0        5.577603    2.796836   -1.857134
     56          1           0        6.574674    2.741135   -3.271998
     57          1           0       16.218271    3.874642   -1.742438
     58          1           0       14.805030    3.871107   -2.731853
     59          1           0       16.057749    2.885707   -3.206129
     60          1           0       17.996428    2.436309   -1.358114
     61          1           0       17.485671    1.219580   -2.600493
     62          1           0       19.072241    1.093906   -1.694081
     63          1           0       15.268132   -2.262016    3.467234
     64          1           0       13.011178   -4.098673    3.545220
     65          1           0       16.016599   -4.332523    2.710847
     66          1           0       15.830912   -3.778636    1.073094
     67          1           0       14.469198   -4.645385    1.883441
     68          1           0       14.201361   -2.552621    5.459500
     69          1           0       12.414540   -2.651952    5.441787
     70          1           0       13.244933   -0.304610    5.834229
     71          1           0       12.034812   -0.627737    4.607937
     72          1           0       13.717641   -0.382448    4.108488
     73          1           0        7.784305   -3.383175    3.932261
     74          1           0        8.229247   -4.410611    2.562360
     75          1           0        6.677227   -3.626535    2.536814
     76          1           0        6.132814    0.729997   -0.004188
     77          1           0        4.603367    0.584888   -4.059594
     78          1           0        3.577759   -0.586040   -3.191667
     79          1           0        5.002683   -1.163225   -3.958162
     80         12           0      -11.478004   -0.442903   -0.492538
     81          6           0      -10.667814    2.598699    1.084069
     82          6           0       -8.500581   -0.102670   -2.256908
     83          6           0      -11.900384   -3.508210   -1.724226
     84          6           0      -13.836099   -0.976933    1.996959
     85          7           0       -9.716765    1.043766   -0.407672
     86          6           0       -9.628578    2.280651    0.200792
     87          6           0       -8.560581    3.201377   -0.351188
     88          6           0       -7.879733    2.340166   -1.441598
     89          6           0       -8.701277    1.010539   -1.387871
     90          6           0       -7.870749    2.997307   -2.881265
     91          6           0       -7.487610    3.751945    0.690805
     92          6           0       -7.112630    2.854570    1.881482
     93          1           0       -5.743067    2.113889    1.845910
     94          7           0      -10.380698   -1.604704   -1.786306
     95          6           0       -9.231475   -1.274205   -2.446447
     96          6           0       -8.868126   -2.344256   -3.386101
     97          6           0       -9.862870   -3.360094   -3.247286
     98          6           0      -10.780275   -2.832044   -2.191307
     99          6           0       -7.656770   -2.282082   -4.308879
    100          6           0       -9.705434   -4.702526   -4.054263
    101          8           0       -8.708334   -4.839287   -4.749345
    102          6           0      -10.769774   -5.866793   -3.884833
    103          7           0      -12.587837   -2.025287    0.135723
    104          6           0      -12.733428   -3.173776   -0.639015
    105          6           0      -13.900488   -4.136329   -0.027547
    106          6           0      -14.343460   -3.269055    1.271621
    107          6           0      -13.540316   -2.018848    1.108904
    108          6           0      -15.054468   -4.397670   -1.039766
    109          6           0      -14.070710   -3.961732    2.675205
    110          6           0      -15.218813   -4.061749    3.691503
    111          7           0      -12.246895    0.630033    1.155709
    112          6           0      -13.189965    0.313451    2.099661
    113          6           0      -13.282950    1.430632    3.063097
    114          6           0      -12.360032    2.403796    2.594481
    115          6           0      -11.734757    1.819450    1.457726
    116          6           0      -14.148593    1.518229    4.289400
    117          6           0      -11.779738    3.715762    2.937759
    118          8           0      -12.070241    4.568596    3.789313
    119          6           0      -10.780595    3.959479    1.816546
    120          6           0      -11.127257    5.070865    0.996271
    121          8           0      -12.004692    4.989064    0.098094
    122          8           0      -10.349177    6.204108    1.305628
    123          6           0      -10.467145    7.378575    0.447443
    124          1           0       -7.675340    0.028512   -2.959457
    125          1           0      -12.162098   -4.447400   -2.215185
    126          1           0      -14.635838   -1.195816    2.706939
    127          1           0       -9.146893    4.027179   -0.752382
    128          1           0       -6.907290    2.068830   -1.032299
    129          1           0       -6.850005    3.270682   -3.148419
    130          1           0       -8.509329    3.878283   -2.811143
    131          1           0       -8.239414    2.303972   -3.637954
    132          1           0       -8.012127    4.620670    1.090693
    133          1           0       -6.604637    4.089436    0.147589
    134          1           0       -7.880808    2.098998    2.049471
    135          1           0       -7.156050    3.459463    2.786234
    136          1           0       -6.807047   -2.885118   -3.988774
    137          1           0       -7.427035   -1.252998   -4.585401
    138          1           0       -7.910858   -2.647108   -5.303861
    139          1           0      -11.754604   -5.407764   -3.974715
    140          1           0      -10.617798   -6.304174   -2.898428
    141          1           0      -10.571719   -6.742076   -4.503503
    142          1           0      -13.434983   -5.110665    0.118013
    143          1           0      -15.395647   -3.016437    1.138584
    144          1           0      -15.836541   -3.666176   -0.837420
    145          1           0      -15.402946   -5.430452   -1.027125
    146          1           0      -14.759678   -4.305447   -2.084956
    147          1           0      -13.209550   -3.452706    3.109287
    148          1           0      -13.803109   -4.971804    2.364996
    149          1           0      -14.854619   -4.222496    4.706579
    150          1           0      -15.770901   -4.928705    3.329317
    151          1           0      -15.741684   -3.109984    3.595113
    152          1           0      -14.308792    0.478345    4.572861
    153          1           0      -15.080384    1.913964    3.885387
    154          1           0      -13.788585    2.192222    5.067278
    155          1           0       -9.867985    4.146885    2.381910
    156          1           0      -11.427635    7.893724    0.431568
    157          1           0      -10.217323    7.114361   -0.580537
    158          1           0       -9.628825    8.027673    0.700937
 ---------------------------------------------------------------------

 SCF Done:  E(RCAM-B3LYP) =  -4069.81138949     A.U. after   19 cycles

 Excitation energies and oscillator strengths:

 Excited State   1:      Singlet-A      1.7034 eV  727.86 nm  f=0.4421  <S**2>=0.000
     309 -> 316        0.17409
     311 -> 313        0.68174
     309 <- 316        0.10675
 This state for optimization and/or second-order correction.
 Total Energy, E(TD-HF/TD-DFT) =  -4069.74879000
 Copying the excited state density for this state as the 1-particle RhoCI density.

 Excited State   2:      Singlet-A      1.7183 eV  721.57 nm  f=0.3414  <S**2>=0.000
     310 -> 315       -0.18006
     312 -> 314        0.67947
     310 <- 315       -0.10703

 Excited State   3:      Singlet-A      2.1918 eV  565.66 nm  f=0.1395  <S**2>=0.000
     309 -> 313        0.65681
     311 -> 316       -0.24840

 Excited State   4:      Singlet-A      2.3104 eV  536.63 nm  f=0.0715  <S**2>=0.000
     310 -> 314        0.61633
     312 -> 315        0.33579

 Excited State   5:      Singlet-A      2.7404 eV  452.44 nm  f=0.0000  <S**2>=0.000
     312 -> 313        0.70701

 The electronic state is 1-A.
 Alpha  occ. eigenvalues --  -46.89560 -46.88879 -19.25761 -19.25169 -19.20202
 Alpha  occ. eigenvalues --  -19.19621 -19.19561 -19.19299 -19.19150 -19.18415
 Alpha  occ. eigenvalues --  -14.42589 -14.42129 -14.42035 -14.41938 -14.39909
 Alpha  occ. eigenvalues --  -14.39789 -14.39268 -14.39247 -10.39989 -10.38815
 Alpha  occ. eigenvalues --  -10.36440 -10.35309 -10.35171 -10.34391 -10.32092
 Alpha  occ. eigenvalues --  -10.31836 -10.31833 -10.31548 -10.31302 -10.30888
 Alpha  occ. eigenvalues --  -10.30790 -10.30778 -10.30770 -10.30590 -10.30536
 Alpha  occ. eigenvalues --  -10.30256 -10.30040 -10.29979 -10.29792 -10.29644
 Alpha  occ. eigenvalues --  -10.29369 -10.29254 -10.29178 -10.28928 -10.28695
 Alpha  occ. eigenvalues --  -10.28416 -10.28321 -10.28261 -10.28259 -10.28256
 Alpha  occ. eigenvalues --  -10.28207 -10.28072 -10.28056 -10.28011 -10.27984
 Alpha  occ. eigenvalues --  -10.27905 -10.27781 -10.27718 -10.27695 -10.27533
 Alpha  occ. eigenvalues --  -10.27419 -10.27412 -10.27335 -10.27105 -10.27086
 Alpha  occ. eigenvalues --  -10.27043 -10.27005 -10.26758 -10.26683 -10.26663
 Alpha  occ. eigenvalues --  -10.26612 -10.26571 -10.26544 -10.26543 -10.26524
 Alpha  occ. eigenvalues --  -10.26290 -10.26182 -10.26013 -10.25982 -10.25976
 Alpha  occ. eigenvalues --  -10.25819 -10.25622 -10.25404 -10.25127 -10.25079
 Alpha  occ. eigenvalues --  -10.25058  -3.17963  -3.17505  -1.92846  -1.92432
 Alpha  occ. eigenvalues --   -1.92363  -1.92256  -1.91976  -1.91809  -1.15712
 Alpha  occ. eigenvalues --   -1.14940  -1.11685  -1.11084  -1.10361  -1.09015
 Alpha  occ. eigenvalues --   -1.07645  -1.06989  -1.05203  -1.04307  -1.04099
 Alpha  occ. eigenvalues --   -1.03851  -1.03499  -1.02565  -1.02018  -1.01831
 Alpha  occ. eigenvalues --   -0.93089  -0.92379  -0.89118  -0.88894  -0.88840
 Alpha  occ. eigenvalues --   -0.88797  -0.88236  -0.88002  -0.87759  -0.86760
 Alpha  occ. eigenvalues --   -0.86559  -0.86348  -0.86034  -0.85512  -0.84479
 Alpha  occ. eigenvalues --   -0.84434  -0.83871  -0.83515  -0.82754  -0.82528
 Alpha  occ. eigenvalues --   -0.81612  -0.81230  -0.80961  -0.80884  -0.80184
 Alpha  occ. eigenvalues --   -0.80034  -0.78396  -0.78128  -0.77440  -0.77171
 Alpha  occ. eigenvalues --   -0.76784  -0.76722  -0.76481  -0.76188  -0.75242
 Alpha  occ. eigenvalues --   -0.74857  -0.73120  -0.72286  -0.71783  -0.71704
 Alpha  occ. eigenvalues --   -0.69382  -0.69242  -0.69216  -0.68865  -0.68387
 Alpha  occ. eigenvalues --   -0.68101  -0.67330  -0.66760  -0.65735  -0.65506
 Alpha  occ. eigenvalues --   -0.65338  -0.65176  -0.65138  -0.64533  -0.64460
 Alpha  occ. eigenvalues --   -0.64152  -0.62402  -0.62302  -0.60429  -0.60187
 Alpha  occ. eigenvalues --   -0.59738  -0.59581  -0.59303  -0.59020  -0.58772
 Alpha  occ. eigenvalues --   -0.58607  -0.58145  -0.57692  -0.57553  -0.57135
 Alpha  occ. eigenvalues --   -0.56095  -0.56005  -0.55562  -0.55389  -0.55238
 Alpha  occ. eigenvalues --   -0.54898  -0.54596  -0.54393  -0.54219  -0.54147
 Alpha  occ. eigenvalues --   -0.53725  -0.53451  -0.53040  -0.52962  -0.52689
 Alpha  occ. eigenvalues --   -0.52572  -0.52453  -0.52294  -0.52147  -0.52079
 Alpha  occ. eigenvalues --   -0.51906  -0.51512  -0.51511  -0.51278  -0.51141
 Alpha  occ. eigenvalues --   -0.50902  -0.50795  -0.50660  -0.50253  -0.50050
 Alpha  occ. eigenvalues --   -0.49931  -0.49819  -0.49526  -0.49403  -0.49337
 Alpha  occ. eigenvalues --   -0.49314  -0.49310  -0.49206  -0.49051  -0.48917
 Alpha  occ. eigenvalues --   -0.48531  -0.48428  -0.48304  -0.48301  -0.48088
 Alpha  occ. eigenvalues --   -0.47960  -0.47593  -0.47486  -0.47321  -0.47149
 Alpha  occ. eigenvalues --   -0.47023  -0.46565  -0.46453  -0.46399  -0.46192
 Alpha  occ. eigenvalues --   -0.46147  -0.46116  -0.46110  -0.45925  -0.45720
 Alpha  occ. eigenvalues --   -0.45610  -0.45328  -0.45323  -0.45126  -0.44919
 Alpha  occ. eigenvalues --   -0.44743  -0.44563  -0.44538  -0.44510  -0.44129
 Alpha  occ. eigenvalues --   -0.44075  -0.43876  -0.43702  -0.43404  -0.43349
 Alpha  occ. eigenvalues --   -0.43177  -0.43075  -0.42991  -0.42922  -0.42879
 Alpha  occ. eigenvalues --   -0.42624  -0.42454  -0.42346  -0.42327  -0.42214
 Alpha  occ. eigenvalues --   -0.42095  -0.42050  -0.42002  -0.41513  -0.41488
 Alpha  occ. eigenvalues --   -0.41383  -0.41013  -0.40944  -0.40557  -0.40332
 Alpha  occ. eigenvalues --   -0.40224  -0.39808  -0.39757  -0.39647  -0.39096
 Alpha  occ. eigenvalues --   -0.38843  -0.38358  -0.38088  -0.37866  -0.37586
 Alpha  occ. eigenvalues --   -0.37458  -0.37043  -0.37032  -0.36957  -0.36579
 Alpha  occ. eigenvalues --   -0.36385  -0.36261  -0.34704  -0.34422  -0.34371
 Alpha  occ. eigenvalues --   -0.34103  -0.33414  -0.33144  -0.31634  -0.31357
 Alpha  occ. eigenvalues --   -0.31236  -0.31150  -0.30927  -0.30406  -0.30317
 Alpha  occ. eigenvalues --   -0.30207  -0.30167  -0.29551  -0.24195  -0.24088
 Alpha  occ. eigenvalues --   -0.21598  -0.20776
 Alpha virt. eigenvalues --   -0.09189  -0.08130  -0.01752  -0.01446   0.00330
 Alpha virt. eigenvalues --    0.00541   0.01668   0.01700   0.02108   0.02494
 Alpha virt. eigenvalues --    0.03481   0.05105   0.05285   0.05290   0.05652

 Mulliken charges:
               1
     1  Mg   0.813045
     2  C   -0.023658
     3  C   -0.077271
     4  C   -0.061973
     5  C   -0.064275
     6  N   -0.302472
     7  C   -0.035080
     8  C    0.006831
     9  C   -0.058625
    10  C    0.050785
    11  C    0.068911
    12  C    0.056773
    13  C   -0.088591
    14  H    0.007977
    15  N   -0.363070
    16  C    0.161208
    17  C   -0.117015
    18  C   -0.041637
    19  C    0.130620
    20  C    0.062513
    21  C   -0.022252
    22  O   -0.176327
    23  C    0.054554
    24  N   -0.263220
    25  C    0.030068
    26  C   -0.035232
    27  C   -0.014460
    28  C    0.032512
    29  C    0.066523
    30  C    0.004388
    31  C   -0.014677
    32  N   -0.320765
    33  C    0.065143
    34  C   -0.162546
    35  C   -0.035078
    36  C    0.140068
    37  C    0.116953
    38  C    0.069155
    39  O   -0.136587
    40  C    0.003778
    41  C    0.181192
    42  O   -0.201380
    43  O   -0.351318
    44  C    0.165226
    45  H   -0.034144
    46  H   -0.000954
    47  H   -0.031112
    48  H    0.018634
    49  H    0.008072
    50  H    0.008548
    51  H    0.022495
    52  H    0.009251
    53  H    0.019109
    54  H    0.009187
    55  H    0.046008
    56  H    0.015680
    57  H    0.027179
    58  H    0.003839
    59  H    0.033286
    60  H    0.021855
    61  H    0.036828
    62  H    0.022634
    63  H    0.016593
    64  H    0.012878
    65  H    0.017366
    66  H    0.035555
    67  H    0.016251
    68  H    0.020221
    69  H    0.002113
    70  H    0.023697
    71  H    0.021704
    72  H    0.021046
    73  H    0.029191
    74  H    0.019800
    75  H    0.036465
    76  H    0.033709
    77  H    0.035644
    78  H    0.044019
    79  H    0.056638
    80  Mg   0.851602
    81  C   -0.100124
    82  C   -0.078165
    83  C   -0.099241
    84  C   -0.089001
    85  N   -0.279367
    86  C   -0.081089
    87  C   -0.019362
    88  C   -0.002854
    89  C   -0.000007
    90  C    0.073886
    91  C    0.027158
    92  C   -0.065217
    93  H    0.021779
    94  N   -0.362131
    95  C    0.140265
    96  C   -0.140592
    97  C   -0.078364
    98  C    0.187319
    99  C    0.142705
   100  C    0.026587
   101  O   -0.197028
   102  C    0.035307
   103  N   -0.347379
   104  C    0.055883
   105  C   -0.054221
   106  C   -0.028383
   107  C    0.061113
   108  C    0.055244
   109  C    0.021407
   110  C    0.018560
   111  N   -0.317880
   112  C    0.107206
   113  C   -0.195322
   114  C   -0.057929
   115  C    0.233623
   116  C    0.136013
   117  C    0.071821
   118  O   -0.182249
   119  C    0.008088
   120  C    0.252094
   121  O   -0.250044
   122  O   -0.351311
   123  C    0.193117
   124  H   -0.033147
   125  H   -0.057974
   126  H   -0.041330
   127  H    0.023464
   128  H    0.019167
   129  H    0.021187
   130  H    0.018614
   131  H    0.026063
   132  H    0.015506
   133  H    0.022930
   134  H    0.041896
   135  H    0.033000
   136  H    0.040804
   137  H    0.001580
   138  H    0.020701
   139  H    0.054524
   140  H    0.038834
   141  H    0.026096
   142  H    0.018435
   143  H    0.011607
   144  H    0.016564
   145  H    0.015973
   146  H    0.011068
   147  H    0.024341
   148  H    0.000247
   149  H    0.028359
   150  H    0.019591
   151  H    0.018905
   152  H    0.013670
   153  H    0.031323
   154  H    0.042794
   155  H    0.030631
   156  H    0.050815
   157  H    0.016578
   158  H    0.033670
 Sum of Mulliken charges =  -0.00000

 Dipole moment (field-independent basis, Debye):
    X=              0.2449    Y=              1.3146    Z=             -1.1933  Tot=              1.7922
 Quadrupole moment (field-independent basis, Debye-Ang):
   XX=           -497.9846   YY=           -491.6616   ZZ=           -506.8552
   XY=             87.5589   XZ=             30.2618   YZ=            -44.0760

 Normal termination of Gaussian 16 at Wed Sep  1 22:34:39 2021.
