 Gaussian 16, Revision A.03,
 Gaussian 16:  ES64L-G16RevA.03 25-Dec-2016

 ---------------------------------------------------
 #p cam-b3lyp/Def2SVP td=(nstates=5) density=(CIS=1)
 ---------------------------------------------------

 --------------------------------
 TDDFT excited states in gaussian
 --------------------------------
 Symbolic Z-matrix:
 Charge =  0 Multiplicity = 1

                         Standard orientation:
 ---------------------------------------------------------------------
 Center     Atomic      Atomic             Coordinates (Angstroms)
 Number     Number       Type             X           Y           Z
 ---------------------------------------------------------------------
      1         12           0       -0.827820    0.127544    0.151705
      2          6           0        2.707985    0.030713    0.332579
      3          6           0       -0.670713   -3.356199   -0.087978
      4          6           0       -4.108718    0.024778    0.083290
      5          6           0       -0.678853    3.555167   -0.413220
      6          7           0        0.844101   -1.429879    0.163509
      7          6           0        2.175338   -1.255952    0.393046
      8          6           0        3.030417   -2.534697    0.400389
      9          6           0        1.845050   -3.593205    0.129773
     10          6           0        0.627649   -2.720099    0.053550
     11          6           0        1.999300   -4.414463   -1.211087
     12          6           0        3.761720   -2.773890    1.761495
     13          6           0        5.271184   -2.700396    1.956180
     14          1           0        5.989221   -3.628836    2.926706
     15          7           0       -2.235293   -1.439187    0.093238
     16          6           0       -1.977665   -2.807296   -0.075504
     17          6           0       -3.253160   -3.470397   -0.230339
     18          6           0       -4.270667   -2.542110   -0.023972
     19          6           0       -3.554206   -1.259635    0.118442
     20          6           0       -3.272810   -4.957463   -0.331405
     21          6           0       -5.792046   -2.684392   -0.053094
     22          8           0       -6.587592   -1.755432    0.116627
     23          6           0       -6.336015   -4.055079   -0.151977
     24          7           0       -2.227810    1.547136   -0.226576
     25          6           0       -3.558999    1.336368    0.004214
     26          6           0       -4.326067    2.693254    0.158728
     27          6           0       -3.241256    3.730572   -0.100528
     28          6           0       -1.950228    2.898718   -0.337577
     29          6           0       -5.601652    2.796547   -0.739830
     30          6           0       -3.145061    4.687781    1.097237
     31          6           0       -3.021898    6.143840    0.830127
     32          7           0        0.666019    1.540091   -0.117805
     33          6           0        0.589286    2.896460   -0.309325
     34          6           0        1.891122    3.491844   -0.358637
     35          6           0        2.843617    2.415299   -0.004445
     36          6           0        2.000020    1.243657    0.134767
     37          6           0        2.194667    4.970003   -0.657382
     38          6           0        4.256370    2.030096    0.240439
     39          8           0        5.272693    2.736606    0.351339
     40          6           0        4.196544    0.464160    0.472387
     41          6           0        5.102995    0.005880   -0.627017
     42          8           0        4.824343   -0.232819   -1.795840
     43          8           0        6.296198   -0.252709   -0.166296
     44          6           0        7.397629   -0.563921   -1.109479
     45          1           0       -0.481314   -4.427611    0.001490
     46          1           0       -5.192720    0.136397    0.017852
     47          1           0       -0.656579    4.641337   -0.520287
     48          1           0        3.700915   -2.487780   -0.458623
     49          1           0        1.616121   -4.322511    0.907439
     50          1           0        2.707126   -4.034984   -1.947519
     51          1           0        1.041021   -4.462502   -1.727099
     52          1           0        2.294905   -5.432367   -0.956287
     53          1           0        3.497750   -3.783842    2.075632
     54          1           0        3.401758   -2.070203    2.510985
     55          1           0        5.358027   -1.723017    2.431051
     56          1           0        5.627737   -2.776134    0.928885
     57          1           0       -3.809001   -5.414599    0.499093
     58          1           0       -2.261328   -5.364445   -0.334523
     59          1           0       -3.764395   -5.321567   -1.233045
     60          1           0       -5.853141   -4.691817    0.589414
     61          1           0       -6.044444   -4.553476   -1.076581
     62          1           0       -7.405536   -4.130266    0.041812
     63          1           0       -4.639028    2.646908    1.201676
     64          1           0       -3.502725    4.371663   -0.942230
     65          1           0       -5.881946    1.863630   -1.228692
     66          1           0       -5.515129    3.526000   -1.544281
     67          1           0       -6.419927    3.232979   -0.167259
     68          1           0       -2.248176    4.335005    1.604801
     69          1           0       -3.997010    4.655055    1.775915
     70          1           0       -2.120022    6.443173    1.363576
     71          1           0       -3.941882    6.657642    1.108770
     72          1           0       -2.795842    6.403818   -0.204221
     73          1           0        2.337631    5.091981   -1.730427
     74          1           0        3.080496    5.256787   -0.090873
     75          1           0        1.363066    5.623107   -0.391910
     76          1           0        4.643060    0.276846    1.448761
     77          1           0        7.224062   -1.451629   -1.716728
     78          1           0        8.374327   -0.665026   -0.636664
     79          1           0        7.647216    0.201804   -1.843329
 ---------------------------------------------------------------------

 SCF Done:  E(RCAM-B3LYP) =  -2034.89990460     A.U. after   17 cycles

 Excitation energies and oscillator strengths:

 Excited State   1:      Singlet-A      1.7572 eV  705.58 nm  f=0.0000  <S**2>=0.000
     155 ->158         0.18353
     156 ->157         0.68374
     155 <-158         0.10476
 This state for optimization and/or second-order correction.
 Total Energy, E(TD-HF/TD-DFT) =  -2034.83532872
 Copying the excited state density for this state as the 1-particle RhoCI density.

 Excited State   2:      Singlet-A      2.2202 eV  558.43 nm  f=0.0000  <S**2>=0.000
     155 ->157         0.63628
     156 ->158        -0.29378

 Excited State   3:      Singlet-A      3.3977 eV  364.91 nm  f=0.0000  <S**2>=0.000
     153 ->157        -0.21008
     154 ->157         0.65855

 Excited State   4:      Singlet-A      3.4740 eV  356.90 nm  f=0.0000  <S**2>=0.000
     150 ->157        -0.11681
     153 ->157         0.19557
     154 ->157         0.12649
     155 ->157         0.25003
     156 ->158         0.59518
     155 <-157        -0.10242

 Excited State   5:      Singlet-A      3.6315 eV  341.41 nm  f=0.0000  <S**2>=0.000
     152 ->157         0.50740
     152 ->158         0.11355
     152 ->159        -0.33814
     152 ->160         0.23842
     153 ->157         0.15149

 The electronic state is 1-A.
 Alpha  occ. eigenvalues --  -46.88530 -19.25307 -19.19585 -19.18875 -19.18191
 Alpha  occ. eigenvalues --  -14.42586 -14.41906 -14.39826 -14.38989 -10.38649
 Alpha  occ. eigenvalues --  -10.35978 -10.35444 -10.31948 -10.31638 -10.31407
 Alpha  occ. eigenvalues --  -10.31114 -10.30916 -10.30746 -10.30527 -10.29430
 Alpha  occ. eigenvalues --  -10.29039 -10.28862 -10.28770 -10.28738 -10.28625
 Alpha  occ. eigenvalues --  -10.28401 -10.28040 -10.28033 -10.27955 -10.27881
 Alpha  occ. eigenvalues --  -10.27714 -10.27523 -10.27061 -10.26985 -10.26525
 Alpha  occ. eigenvalues --  -10.26502 -10.26409 -10.25858 -10.25827 -10.25692
 Alpha  occ. eigenvalues --  -10.25644 -10.25227 -10.24864  -3.17126  -1.92027
 Alpha  occ. eigenvalues --   -1.91583  -1.91430  -1.17799  -1.10087  -1.08391
 Alpha  occ. eigenvalues --   -1.06490  -1.05477  -1.04012  -1.02781  -1.01364
 Alpha  occ. eigenvalues --   -0.91848  -0.89580  -0.89046  -0.88796  -0.87722
 Alpha  occ. eigenvalues --   -0.86762  -0.85113  -0.84342  -0.83483  -0.82879
 Alpha  occ. eigenvalues --   -0.82700  -0.80832  -0.80520  -0.78779  -0.77500
 Alpha  occ. eigenvalues --   -0.76877  -0.76194  -0.75162  -0.72231  -0.71819
 Alpha  occ. eigenvalues --   -0.69229  -0.68205  -0.67615  -0.66932  -0.65876
 Alpha  occ. eigenvalues --   -0.65286  -0.64868  -0.64206  -0.62406  -0.60951
 Alpha  occ. eigenvalues --   -0.59515  -0.58986  -0.58500  -0.57852  -0.57644
 Alpha  occ. eigenvalues --   -0.56702  -0.55643  -0.54977  -0.54311  -0.54183
 Alpha  occ. eigenvalues --   -0.53844  -0.53559  -0.52924  -0.52644  -0.52569
 Alpha  occ. eigenvalues --   -0.52142  -0.51426  -0.50582  -0.50452  -0.50029
 Alpha  occ. eigenvalues --   -0.49886  -0.49744  -0.49416  -0.49066  -0.48714
 Alpha  occ. eigenvalues --   -0.48501  -0.48193  -0.48037  -0.47811  -0.47435
 Alpha  occ. eigenvalues --   -0.46636  -0.46322  -0.46091  -0.45840  -0.45584
 Alpha  occ. eigenvalues --   -0.45454  -0.45174  -0.45030  -0.44659  -0.44361
 Alpha  occ. eigenvalues --   -0.44262  -0.44022  -0.43198  -0.43063  -0.42815
 Alpha  occ. eigenvalues --   -0.42423  -0.41906  -0.41649  -0.41411  -0.41238
 Alpha  occ. eigenvalues --   -0.40831  -0.40424  -0.40074  -0.39847  -0.39516
 Alpha  occ. eigenvalues --   -0.38446  -0.37926  -0.37242  -0.36631  -0.36385
 Alpha  occ. eigenvalues --   -0.35850  -0.34455  -0.33446  -0.33095  -0.31924
 Alpha  occ. eigenvalues --   -0.31785  -0.30606  -0.30318  -0.28719  -0.23919
 Alpha  occ. eigenvalues --   -0.21184
 Alpha virt. eigenvalues --   -0.08525  -0.01867  -0.00197   0.02071   0.02688
 Alpha virt. eigenvalues --    0.05237   0.05762   0.06179   0.06816   0.07865
 Alpha virt. eigenvalues --    0.08465   0.09086   0.09170   0.09828   0.10461

 Mulliken charges:
               1
     1  Mg   0.823796
     2  C    0.008386
     3  C   -0.141504
     4  C   -0.115645
     5  C   -0.097244
     6  N   -0.269502
     7  C    0.007470
     8  C    0.012349
     9  C   -0.070968
    10  C    0.007523
    11  C    0.048522
    12  C    0.030717
    13  C   -0.067985
    14  H    0.028246
    15  N   -0.363537
    16  C    0.164166
    17  C   -0.165717
    18  C   -0.069908
    19  C    0.158140
    20  C    0.098037
    21  C    0.024700
    22  O   -0.212698
    23  C    0.053709
    24  N   -0.395504
    25  C    0.018733
    26  C   -0.009799
    27  C   -0.013778
    28  C    0.173730
    29  C    0.060066
    30  C    0.003099
    31  C    0.009946
    32  N   -0.374719
    33  C    0.193411
    34  C   -0.154296
    35  C   -0.005169
    36  C    0.169535
    37  C    0.120706
    38  C    0.034352
    39  O   -0.197149
    40  C   -0.047230
    41  C    0.167327
    42  O   -0.240542
    43  O   -0.278974
    44  C    0.189676
    45  H   -0.021098
    46  H   -0.009006
    47  H   -0.032376
    48  H    0.040122
    49  H    0.021888
    50  H    0.030053
    51  H    0.016361
    52  H    0.014702
    53  H    0.015470
    54  H    0.008900
    55  H    0.040699
    56  H    0.030128
    57  H    0.030134
    58  H    0.010784
    59  H    0.022918
    60  H    0.019165
    61  H    0.027888
    62  H    0.034388
    63  H    0.029517
    64  H    0.010131
    65  H    0.036547
    66  H    0.003586
    67  H    0.012741
    68  H    0.013085
    69  H    0.008142
    70  H    0.015070
    71  H    0.020928
    72  H    0.005716
    73  H    0.035219
    74  H    0.038889
    75  H    0.005472
    76  H    0.046901
    77  H    0.033294
    78  H    0.033827
    79  H    0.035338
 Sum of Mulliken charges =  -0.00000

 Dipole moment (field-independent basis, Debye):
    X=              1.4592    Y=              0.2361    Z=              1.1484  Tot=              1.8719
 Quadrupole moment (field-independent basis, Debye-Ang):
   XX=           -279.1030   YY=           -223.9298   ZZ=           -259.9467
   XY=            -27.7804   XZ=             -0.1365   YZ=             -1.1138

 Normal termination of Gaussian 16 at Fri Oct  8 19:48:37 2021.
