 Gaussian 16, Revision A.03,
 Gaussian 16:  ES64L-G16RevA.03 25-Dec-2016

 -----------------------------------
 #p cam-b3lyp/Def2SVP td=(nstates=5)
 -----------------------------------

 --------------------------------
 TDDFT excited states in gaussian
 --------------------------------
 Symbolic Z-matrix:
 Charge =  0 Multiplicity = 1

                         Standard orientation:
 ---------------------------------------------------------------------
 Center     Atomic      Atomic             Coordinates (Angstroms)
 Number     Number       Type             X           Y           Z
 ---------------------------------------------------------------------
      1         12           0      -10.836602    0.597153    0.176903
      2          6           0       -9.105881   -2.218418   -0.975678
      3          6           0      -10.574765   -0.814223    3.323351
      4          6           0      -12.166278    3.394511    1.421393
      5          6           0      -10.239704    2.187753   -2.878271
      6          7           0       -9.690803   -1.337679    1.088766
      7          6           0       -9.180396   -2.363700    0.381208
      8          6           0       -8.679248   -3.499737    1.240217
      9          6           0       -9.459300   -3.094021    2.548439
     10          6           0       -9.913697   -1.647598    2.381941
     11          6           0      -10.717515   -3.987595    2.713410
     12          6           0       -7.146674   -3.564472    1.242460
     13          6           0       -6.323397   -2.260526    1.291653
     14          1           0       -5.206272   -2.216192    2.327486
     15          7           0      -11.311983    1.200827    2.072778
     16          6           0      -11.231821    0.419446    3.194890
     17          6           0      -12.104632    0.985721    4.231547
     18          6           0      -12.475504    2.314491    3.778024
     19          6           0      -11.989696    2.326359    2.364419
     20          6           0      -12.219722    0.372360    5.679389
     21          6           0      -13.192025    3.396462    4.589815
     22          8           0      -13.632334    3.152058    5.678462
     23          6           0      -13.390900    4.765476    4.006099
     24          7           0      -10.946973    2.618432   -0.615435
     25          6           0      -11.662361    3.627534    0.055591
     26          6           0      -11.805985    4.957509   -0.798709
     27          6           0      -11.216685    4.485122   -2.212275
     28          6           0      -10.802449    2.972860   -1.908298
     29          6           0      -13.227647    5.705009   -0.907943
     30          6           0      -10.036430    5.353968   -2.845589
     31          6           0      -10.138487    5.361800   -4.450435
     32          7           0       -9.918711    0.121000   -1.639194
     33          6           0       -9.838608    0.840160   -2.814348
     34          6           0       -9.237994    0.003875   -3.846416
     35          6           0       -8.969902   -1.251758   -3.242705
     36          6           0       -9.335761   -1.102532   -1.856336
     37          6           0       -9.108805    0.337707   -5.309545
     38          6           0       -8.374468   -2.622499   -3.362484
     39          8           0       -7.778687   -3.138957   -4.281406
     40          6           0       -8.513798   -3.262400   -1.916104
     41          6           0       -9.391900   -4.474208   -2.066168
     42          8           0       -9.001820   -5.569913   -2.541634
     43          8           0      -10.621660   -4.234313   -1.470426
     44          6           0      -11.469763   -5.371169   -1.335182
     45          1           0      -10.574989   -1.298831    4.302014
     46          1           0      -12.763864    4.278855    1.653201
     47          1           0      -10.242077    2.626551   -3.878352
     48          1           0       -9.106709   -4.454940    0.935897
     49          1           0       -8.926535   -3.146259    3.496964
     50          1           0      -11.471204   -3.354845    3.182739
     51          1           0      -10.469093   -4.903668    3.247454
     52          1           0      -11.270823   -4.295807    1.825748
     53          1           0       -6.872069   -4.003220    0.283688
     54          1           0       -6.837863   -4.221076    2.055943
     55          1           0       -6.986943   -1.434771    1.547244
     56          1           0       -5.837626   -2.131723    0.324849
     57          1           0      -11.378443    0.584936    6.339616
     58          1           0      -12.351431   -0.707321    5.607588
     59          1           0      -13.115161    0.635879    6.241104
     60          1           0      -13.772831    5.472080    4.743666
     61          1           0      -14.065641    4.773237    3.149849
     62          1           0      -12.363017    5.075419    3.815842
     63          1           0      -11.094380    5.586501   -0.265158
     64          1           0      -12.003104    4.430902   -2.964522
     65          1           0      -13.274381    6.422698   -0.089724
     66          1           0      -14.055935    4.999273   -0.851283
     67          1           0      -13.284206    6.195408   -1.879966
     68          1           0       -9.068312    4.883786   -2.673397
     69          1           0      -10.015931    6.357963   -2.420987
     70          1           0       -9.250878    4.916910   -4.900422
     71          1           0      -10.225678    6.389422   -4.802053
     72          1           0      -10.910930    4.765108   -4.934382
     73          1           0       -8.513857    1.245617   -5.402781
     74          1           0      -10.097029    0.524881   -5.730188
     75          1           0       -8.588303   -0.439804   -5.868460
     76          1           0       -7.515271   -3.643797   -1.703768
     77          1           0      -12.359211   -5.089654   -0.771972
     78          1           0      -10.922940   -6.227453   -0.940006
     79          1           0      -11.906858   -5.671184   -2.287531
     80         12           0       10.892770    0.468235    0.350351
     81          6           0        8.100557   -1.593195   -0.547993
     82          6           0       10.848435    1.719293   -2.862813
     83          6           0       13.783406    1.842216    1.007316
     84          6           0       10.851190   -1.105033    3.437993
     85          7           0        9.750101   -0.119057   -1.633253
     86          6           0        8.617583   -0.887460   -1.642002
     87          6           0        7.857534   -0.673843   -2.978449
     88          6           0        8.772663    0.354572   -3.765985
     89          6           0        9.905223    0.696171   -2.730329
     90          6           0        9.411084   -0.120628   -5.138500
     91          6           0        6.404144   -0.148581   -2.835034
     92          6           0        5.349957   -0.788499   -3.666450
     93          1           0        5.656560   -1.635842   -4.959970
     94          7           0       12.208798    1.651083   -0.782981
     95          6           0       11.974511    2.188822   -2.048266
     96          6           0       13.151188    2.981466   -2.453535
     97          6           0       13.961349    3.107179   -1.260283
     98          6           0       13.342895    2.181361   -0.283118
     99          6           0       13.383027    3.589415   -3.803670
    100          6           0       15.228091    3.948499   -0.976760
    101          8           0       15.668143    4.219170    0.160511
    102          6           0       15.868481    4.620862   -2.123888
    103          7           0       12.109940    0.318899    1.926218
    104          6           0       13.325039    0.967800    1.911520
    105          6           0       13.997457    0.931462    3.311866
    106          6           0       12.834587    0.279165    4.183151
    107          6           0       11.848217   -0.193835    3.129455
    108          6           0       15.388328    0.189003    3.455049
    109          6           0       12.152693    1.173163    5.206690
    110          6           0       12.361329    0.776989    6.683371
    111          7           0        9.628850   -0.893508    1.358823
    112          6           0        9.763653   -1.459834    2.604311
    113          6           0        8.706027   -2.455940    2.819889
    114          6           0        8.015850   -2.475919    1.620877
    115          6           0        8.605354   -1.519734    0.764086
    116          6           0        8.456462   -3.323304    4.009304
    117          6           0        6.901569   -3.094326    0.997456
    118          8           0        6.017468   -3.885826    1.432677
    119          6           0        6.903540   -2.581557   -0.380163
    120          6           0        6.875877   -3.724053   -1.359112
    121          8           0        7.771804   -4.468006   -1.570021
    122          8           0        5.713021   -3.735652   -2.010341
    123          6           0        5.338550   -4.891028   -2.752891
    124          1           0       10.914007    2.158456   -3.860617
    125          1           0       14.716856    2.269054    1.382412
    126          1           0       10.894534   -1.649606    4.382656
    127          1           0        7.836099   -1.649047   -3.466291
    128          1           0        8.214970    1.268919   -3.966350
    129          1           0        9.047043   -1.075465   -5.516758
    130          1           0       10.473028   -0.283591   -4.948914
    131          1           0        9.310454    0.658054   -5.895170
    132          1           0        6.309273    0.908730   -3.085151
    133          1           0        6.015030   -0.256470   -1.822995
    134          1           0        4.698273   -0.021912   -4.086772
    135          1           0        4.758538   -1.421196   -3.005200
    136          1           0       14.349447    3.261951   -4.186329
    137          1           0       13.413710    4.668204   -3.650752
    138          1           0       12.520870    3.455182   -4.457763
    139          1           0       16.220797    3.844537   -2.803146
    140          1           0       16.751581    5.109982   -1.713510
    141          1           0       15.240156    5.406972   -2.541740
    142          1           0       14.102938    1.975701    3.607769
    143          1           0       13.278746   -0.559876    4.718627
    144          1           0       15.702500   -0.207398    2.490175
    145          1           0       15.397694   -0.553163    4.254220
    146          1           0       16.110369    0.927833    3.803107
    147          1           0       11.100498    1.399771    5.033963
    148          1           0       12.618380    2.154373    5.120922
    149          1           0       11.485947    0.807423    7.331816
    150          1           0       12.940597    1.579873    7.140153
    151          1           0       12.808363   -0.202540    6.847572
    152          1           0        8.958859   -2.959907    4.906223
    153          1           0        8.934600   -4.292874    3.870714
    154          1           0        7.378717   -3.479068    4.055687
    155          1           0        5.993681   -1.989817   -0.477179
    156          1           0        5.055381   -5.645330   -2.017408
    157          1           0        6.198545   -5.319560   -3.267762
    158          1           0        4.464784   -4.693973   -3.374588
 ---------------------------------------------------------------------

 SCF Done:  E(RCAM-B3LYP) =  -4069.80069592     A.U. after   18 cycles

 Excitation energies and oscillator strengths:

 Excited State   1:      Singlet-A      1.7204 eV  720.68 nm  f=0.4244  <S**2>=0.000
     310 -> 316        0.17630
     312 -> 313        0.68697
     310 <- 316        0.10594
 This state for optimization and/or second-order correction.
 Total Energy, E(TD-HF/TD-DFT) =  -4069.73747311
 Copying the excited state density for this state as the 1-particle RhoCI density.

 Excited State   2:      Singlet-A      1.7469 eV  709.73 nm  f=0.3486  <S**2>=0.000
     309 -> 315       -0.19401
     311 -> 314        0.68063
     309 <- 315       -0.10941

 Excited State   3:      Singlet-A      2.2104 eV  560.92 nm  f=0.1311  <S**2>=0.000
     310 -> 313        0.65009
     312 -> 316       -0.26622

 Excited State   4:      Singlet-A      2.2374 eV  554.14 nm  f=0.1034  <S**2>=0.000
     309 -> 314        0.63518
     311 -> 315        0.29892

 Excited State   5:      Singlet-A      2.9694 eV  417.54 nm  f=0.0000  <S**2>=0.000
     311 -> 313        0.70705

 The electronic state is 1-A.
 Alpha  occ. eigenvalues --  -46.90404 -46.88834 -19.26038 -19.24856 -19.20011
 Alpha  occ. eigenvalues --  -19.19555 -19.19526 -19.19048 -19.18932 -19.18485
 Alpha  occ. eigenvalues --  -14.42270 -14.41974 -14.41816 -14.41544 -14.40531
 Alpha  occ. eigenvalues --  -14.39617 -14.39484 -14.39484 -10.39974 -10.38920
 Alpha  occ. eigenvalues --  -10.35796 -10.35314 -10.34897 -10.34613 -10.32844
 Alpha  occ. eigenvalues --  -10.31976 -10.31841 -10.31616 -10.31332 -10.31132
 Alpha  occ. eigenvalues --  -10.30958 -10.30871 -10.30858 -10.30599 -10.30475
 Alpha  occ. eigenvalues --  -10.30212 -10.30078 -10.29904 -10.29626 -10.29591
 Alpha  occ. eigenvalues --  -10.29558 -10.29473 -10.29272 -10.29215 -10.28977
 Alpha  occ. eigenvalues --  -10.28679 -10.28675 -10.28527 -10.28506 -10.28429
 Alpha  occ. eigenvalues --  -10.28382 -10.28284 -10.28232 -10.28170 -10.28090
 Alpha  occ. eigenvalues --  -10.28076 -10.28002 -10.27993 -10.27913 -10.27816
 Alpha  occ. eigenvalues --  -10.27799 -10.27765 -10.27731 -10.27485 -10.27453
 Alpha  occ. eigenvalues --  -10.27126 -10.26981 -10.26931 -10.26848 -10.26657
 Alpha  occ. eigenvalues --  -10.26645 -10.26419 -10.26396 -10.26297 -10.26294
 Alpha  occ. eigenvalues --  -10.26231 -10.26188 -10.26152 -10.25969 -10.25896
 Alpha  occ. eigenvalues --  -10.25837 -10.25819 -10.25525 -10.25400 -10.25111
 Alpha  occ. eigenvalues --  -10.25109  -3.18767  -3.17412  -1.93630  -1.93242
 Alpha  occ. eigenvalues --   -1.93057  -1.92294  -1.91881  -1.91711  -1.18481
 Alpha  occ. eigenvalues --   -1.16455  -1.11514  -1.10667  -1.09575  -1.08246
 Alpha  occ. eigenvalues --   -1.07987  -1.07048  -1.04789  -1.04754  -1.03895
 Alpha  occ. eigenvalues --   -1.03696  -1.02973  -1.02450  -1.01907  -1.01706
 Alpha  occ. eigenvalues --   -0.93480  -0.92517  -0.89060  -0.89007  -0.88433
 Alpha  occ. eigenvalues --   -0.88344  -0.88306  -0.87761  -0.87659  -0.87354
 Alpha  occ. eigenvalues --   -0.86810  -0.86208  -0.86061  -0.85674  -0.84852
 Alpha  occ. eigenvalues --   -0.84457  -0.83441  -0.83363  -0.82713  -0.82537
 Alpha  occ. eigenvalues --   -0.81986  -0.81894  -0.81623  -0.80813  -0.80428
 Alpha  occ. eigenvalues --   -0.80373  -0.78226  -0.77620  -0.77547  -0.77299
 Alpha  occ. eigenvalues --   -0.77073  -0.76704  -0.76430  -0.76272  -0.75328
 Alpha  occ. eigenvalues --   -0.75121  -0.73095  -0.72825  -0.72067  -0.71412
 Alpha  occ. eigenvalues --   -0.69943  -0.69409  -0.69330  -0.68900  -0.68224
 Alpha  occ. eigenvalues --   -0.67387  -0.67166  -0.66172  -0.65915  -0.65852
 Alpha  occ. eigenvalues --   -0.64888  -0.64846  -0.64811  -0.64767  -0.64632
 Alpha  occ. eigenvalues --   -0.64378  -0.63723  -0.62915  -0.60241  -0.60040
 Alpha  occ. eigenvalues --   -0.59784  -0.59279  -0.59258  -0.59040  -0.58960
 Alpha  occ. eigenvalues --   -0.58187  -0.58134  -0.57799  -0.57673  -0.57356
 Alpha  occ. eigenvalues --   -0.56377  -0.56300  -0.56099  -0.56033  -0.55495
 Alpha  occ. eigenvalues --   -0.55062  -0.55048  -0.54837  -0.54307  -0.53680
 Alpha  occ. eigenvalues --   -0.53666  -0.53315  -0.53227  -0.53152  -0.53072
 Alpha  occ. eigenvalues --   -0.52942  -0.52794  -0.52724  -0.52311  -0.51922
 Alpha  occ. eigenvalues --   -0.51644  -0.51556  -0.51519  -0.51462  -0.51398
 Alpha  occ. eigenvalues --   -0.51099  -0.51039  -0.50706  -0.50569  -0.50047
 Alpha  occ. eigenvalues --   -0.50012  -0.49951  -0.49950  -0.49809  -0.49728
 Alpha  occ. eigenvalues --   -0.49564  -0.49165  -0.48997  -0.48943  -0.48710
 Alpha  occ. eigenvalues --   -0.48665  -0.48500  -0.48384  -0.48261  -0.48153
 Alpha  occ. eigenvalues --   -0.47636  -0.47570  -0.47348  -0.47317  -0.47252
 Alpha  occ. eigenvalues --   -0.46960  -0.46823  -0.46707  -0.46682  -0.46330
 Alpha  occ. eigenvalues --   -0.46113  -0.46082  -0.46035  -0.45967  -0.45710
 Alpha  occ. eigenvalues --   -0.45702  -0.45550  -0.45339  -0.45215  -0.45208
 Alpha  occ. eigenvalues --   -0.44887  -0.44698  -0.44455  -0.44362  -0.44257
 Alpha  occ. eigenvalues --   -0.43970  -0.43861  -0.43640  -0.43551  -0.43395
 Alpha  occ. eigenvalues --   -0.43381  -0.43279  -0.42996  -0.42954  -0.42785
 Alpha  occ. eigenvalues --   -0.42618  -0.42513  -0.42235  -0.42219  -0.42048
 Alpha  occ. eigenvalues --   -0.42008  -0.41755  -0.41733  -0.41569  -0.41343
 Alpha  occ. eigenvalues --   -0.41250  -0.41095  -0.40887  -0.40365  -0.40201
 Alpha  occ. eigenvalues --   -0.40002  -0.39933  -0.39613  -0.39122  -0.39007
 Alpha  occ. eigenvalues --   -0.38935  -0.38133  -0.38116  -0.37835  -0.37258
 Alpha  occ. eigenvalues --   -0.37199  -0.36859  -0.36782  -0.36394  -0.36319
 Alpha  occ. eigenvalues --   -0.36128  -0.35776  -0.34693  -0.34558  -0.34399
 Alpha  occ. eigenvalues --   -0.34043  -0.33167  -0.32826  -0.31504  -0.31382
 Alpha  occ. eigenvalues --   -0.31358  -0.31216  -0.30913  -0.30697  -0.30618
 Alpha  occ. eigenvalues --   -0.30521  -0.29743  -0.29410  -0.24043  -0.24036
 Alpha  occ. eigenvalues --   -0.21404  -0.21230
 Alpha virt. eigenvalues --   -0.08858  -0.08645  -0.02088  -0.01394  -0.00107
 Alpha virt. eigenvalues --    0.00085   0.00758   0.01999   0.02004   0.02435
 Alpha virt. eigenvalues --    0.04433   0.05419   0.05480   0.05942   0.06199

 Mulliken charges:
               1
     1  Mg   0.821348
     2  C    0.141391
     3  C   -0.072350
     4  C   -0.088237
     5  C   -0.079575
     6  N   -0.220281
     7  C   -0.142929
     8  C    0.066319
     9  C   -0.054763
    10  C   -0.010602
    11  C    0.063569
    12  C    0.064042
    13  C   -0.078813
    14  H    0.016337
    15  N   -0.372571
    16  C    0.163226
    17  C   -0.137112
    18  C   -0.058561
    19  C    0.190625
    20  C    0.093519
    21  C   -0.010325
    22  O   -0.168251
    23  C    0.051851
    24  N   -0.300594
    25  C   -0.021040
    26  C   -0.011947
    27  C   -0.040249
    28  C    0.045022
    29  C    0.055034
    30  C    0.036500
    31  C   -0.036834
    32  N   -0.352621
    33  C    0.125120
    34  C   -0.196711
    35  C    0.022462
    36  C    0.045439
    37  C    0.117981
    38  C    0.063950
    39  O   -0.137591
    40  C   -0.138954
    41  C    0.228311
    42  O   -0.237428
    43  O   -0.322938
    44  C    0.183458
    45  H   -0.017969
    46  H   -0.048490
    47  H   -0.045860
    48  H    0.002386
    49  H   -0.000228
    50  H    0.003752
    51  H    0.026900
    52  H    0.004827
    53  H    0.013133
    54  H    0.020751
    55  H    0.050413
    56  H    0.037267
    57  H    0.040270
    58  H    0.005573
    59  H    0.031872
    60  H    0.019329
    61  H    0.059864
    62  H    0.032422
    63  H    0.025962
    64  H    0.015630
    65  H    0.028239
    66  H    0.026004
    67  H    0.028273
    68  H    0.025429
    69  H    0.018913
    70  H    0.017060
    71  H    0.020587
    72  H    0.021803
    73  H    0.015458
    74  H    0.029779
    75  H    0.034059
    76  H    0.055933
    77  H    0.031227
    78  H    0.037837
    79  H    0.027365
    80  Mg   0.830922
    81  C   -0.003395
    82  C   -0.022645
    83  C   -0.061488
    84  C   -0.094355
    85  N   -0.252760
    86  C   -0.054124
    87  C    0.021132
    88  C   -0.060981
    89  C    0.018189
    90  C    0.057408
    91  C    0.048917
    92  C   -0.081841
    93  H    0.001075
    94  N   -0.364130
    95  C    0.090840
    96  C   -0.170575
    97  C   -0.041573
    98  C    0.129205
    99  C    0.140642
   100  C    0.009546
   101  O   -0.229920
   102  C    0.054971
   103  N   -0.351656
   104  C    0.076907
   105  C   -0.074913
   106  C   -0.035842
   107  C    0.084681
   108  C    0.075309
   109  C    0.058444
   110  C   -0.010483
   111  N   -0.321575
   112  C    0.100557
   113  C   -0.161391
   114  C   -0.007491
   115  C    0.104501
   116  C    0.130307
   117  C    0.045033
   118  O   -0.215899
   119  C    0.039346
   120  C    0.154832
   121  O   -0.173780
   122  O   -0.299961
   123  C    0.179464
   124  H   -0.038495
   125  H   -0.005767
   126  H   -0.029328
   127  H    0.021795
   128  H    0.016288
   129  H    0.019561
   130  H    0.019208
   131  H    0.018252
   132  H    0.008750
   133  H    0.007739
   134  H    0.022451
   135  H    0.037629
   136  H    0.036286
   137  H    0.019756
   138  H    0.011631
   139  H    0.032287
   140  H    0.020295
   141  H    0.044930
   142  H    0.021259
   143  H    0.000723
   144  H    0.029711
   145  H    0.013996
   146  H    0.016313
   147  H    0.016401
   148  H   -0.002483
   149  H    0.007194
   150  H    0.010441
   151  H    0.017234
   152  H    0.008640
   153  H    0.034153
   154  H    0.049533
   155  H    0.040578
   156  H    0.029196
   157  H    0.038571
   158  H    0.043818
 Sum of Mulliken charges =  -0.00000

 Dipole moment (field-independent basis, Debye):
    X=             -4.1551    Y=              6.0397    Z=             -0.3800  Tot=              7.3408
 Quadrupole moment (field-independent basis, Debye-Ang):
   XX=           -468.5021   YY=           -514.8528   ZZ=           -509.0200
   XY=            -14.7263   XZ=             11.9920   YZ=            -48.4760

 Normal termination of Gaussian 16 at Thu Sep  2 03:03:27 2021.
