 Gaussian 16, Revision A.03,
 Gaussian 16:  ES64L-G16RevA.03 25-Dec-2016

 ----------------------------------------------------------
 #p cam-b3lyp/Def2SVP td=(nstates=5) density=(transition=1)
 ----------------------------------------------------------

 --------------------------------
 TDDFT excited states in gaussian
 --------------------------------
 Symbolic Z-matrix:
 Charge =  0 Multiplicity = 1

                         Standard orientation:
 ---------------------------------------------------------------------
 Center     Atomic      Atomic             Coordinates (Angstroms)
 Number     Number       Type             X           Y           Z
 ---------------------------------------------------------------------
      1         12           0        4.939090   -0.055468    1.150666
      2          6           0        4.453724   -3.246103   -0.057764
      3          6           0        2.388986   -0.647884    3.353631
      4          6           0        5.209832    3.160743    2.144194
      5          6           0        7.091313    0.622492   -1.494602
      6          7           0        3.498202   -1.786420    1.448264
      7          6           0        3.614993   -2.982240    1.014816
      8          6           0        2.600475   -4.076612    1.632459
      9          6           0        1.741706   -3.097702    2.526808
     10          6           0        2.520216   -1.703149    2.402654
     11          6           0        0.222884   -2.861995    2.022117
     12          6           0        3.283908   -5.260077    2.445255
     13          6           0        2.575353   -6.660922    2.431146
     14          1           0        1.186239   -6.705558    1.869901
     15          7           0        4.025762    1.054004    2.563322
     16          6           0        3.000265    0.611859    3.488545
     17          6           0        2.712721    1.725892    4.386061
     18          6           0        3.439863    2.871783    3.977834
     19          6           0        4.305338    2.382322    2.881020
     20          6           0        1.778926    1.461776    5.511901
     21          6           0        3.497236    4.302963    4.561529
     22          8           0        4.073570    5.231383    4.077697
     23          6           0        2.578291    4.546047    5.775828
     24          7           0        5.906380    1.735496    0.403547
     25          6           0        5.883116    2.910518    0.948575
     26          6           0        6.539664    3.982963    0.033675
     27          6           0        7.236940    3.151274   -1.069468
     28          6           0        6.747114    1.727075   -0.716639
     29          6           0        5.486178    4.976486   -0.500717
     30          6           0        8.784736    3.342272   -1.073806
     31          6           0        9.268617    4.711048   -1.579266
     32          7           0        5.666359   -1.080955   -0.485226
     33          6           0        6.617396   -0.691915   -1.411735
     34          6           0        6.869345   -1.837415   -2.245865
     35          6           0        6.023433   -2.902945   -1.815059
     36          6           0        5.350166   -2.336143   -0.698708
     37          6           0        7.758819   -1.860182   -3.348484
     38          6           0        5.637654   -4.270880   -1.955603
     39          8           0        5.978970   -5.097221   -2.853514
     40          6           0        4.508169   -4.492443   -0.876249
     41          6           0        3.304350   -4.873419   -1.583682
     42          8           0        2.534860   -4.079762   -2.124739
     43          8           0        3.294772   -6.243182   -1.655657
     44          6           0        2.261216   -6.768236   -2.572826
     45          1           0        1.562308   -0.798609    4.050354
     46          1           0        5.261229    4.179305    2.536241
     47          1           0        7.827207    0.865895   -2.264401
     48          1           0        2.020456   -4.398901    0.767324
     49          1           0        1.675512   -3.481763    3.544561
     50          1           0        0.171085   -3.145464    0.970514
     51          1           0       -0.042206   -1.810911    2.135302
     52          1           0       -0.554310   -3.412861    2.552855
     53          1           0        3.279473   -4.897345    3.472776
     54          1           0        4.365160   -5.357278    2.341659
     55          1           0        2.517097   -7.133862    3.411395
     56          1           0        3.124572   -7.328059    1.766711
     57          1           0        0.744235    1.579738    5.188757
     58          1           0        2.049885    1.993387    6.424190
     59          1           0        1.919381    0.419451    5.797153
     60          1           0        2.929736    4.102774    6.708067
     61          1           0        1.644397    4.106887    5.426456
     62          1           0        2.339492    5.587350    5.990013
     63          1           0        7.270092    4.441268    0.699980
     64          1           0        6.809706    3.402394   -2.040270
     65          1           0        4.462181    4.604518   -0.541358
     66          1           0        5.584640    5.323561   -1.529818
     67          1           0        5.533750    5.832765    0.171994
     68          1           0        9.225518    2.608023   -1.746691
     69          1           0        9.180636    3.162848   -0.073648
     70          1           0        8.386804    5.328869   -1.749047
     71          1           0        9.633242    4.598694   -2.600418
     72          1           0       10.050574    5.231851   -1.027153
     73          1           0        8.651292   -1.348719   -2.987724
     74          1           0        7.435421   -1.326039   -4.241759
     75          1           0        7.877778   -2.893849   -3.674893
     76          1           0        4.876705   -5.350789   -0.313919
     77          1           0        2.556696   -6.449788   -3.572914
     78          1           0        1.256215   -6.493517   -2.254225
     79          1           0        2.319092   -7.856119   -2.534033
     80         12           0       -4.064823    1.008021   -1.181231
     81          6           0       -6.774364   -0.995709   -0.104476
     82          6           0       -2.064966   -1.804845   -1.175717
     83          6           0       -1.423081    2.994598   -1.927110
     84          6           0       -6.080304    3.868206   -0.965404
     85          7           0       -4.453266   -1.087316   -0.580657
     86          6           0       -5.671206   -1.734553   -0.386365
     87          6           0       -5.480156   -3.301664   -0.263576
     88          6           0       -3.936273   -3.440202   -0.339382
     89          6           0       -3.413603   -2.023998   -0.668901
     90          6           0       -3.182178   -4.034296    0.908627
     91          6           0       -6.353757   -4.202326   -1.229666
     92          6           0       -7.275433   -5.165568   -0.544800
     93          1           0       -7.457090   -6.569956   -1.245647
     94          7           0       -2.085553    0.605632   -1.480512
     95          6           0       -1.434550   -0.610937   -1.510552
     96          6           0       -0.019965   -0.396179   -1.772329
     97          6           0        0.221410    0.987985   -2.001730
     98          6           0       -1.141746    1.612114   -1.828578
     99          6           0        1.007273   -1.532577   -1.948539
    100          6           0        1.509567    1.712353   -2.379146
    101          8           0        1.568636    2.897444   -2.634965
    102          6           0        2.905851    0.995312   -2.589444
    103          7           0       -3.775511    3.169142   -1.320465
    104          6           0       -2.610309    3.717707   -1.638684
    105          6           0       -2.704569    5.281708   -1.744176
    106          6           0       -4.259195    5.536167   -1.623259
    107          6           0       -4.768506    4.098094   -1.304147
    108          6           0       -1.769983    5.992484   -0.723002
    109          6           0       -4.831162    6.185611   -2.867851
    110          6           0       -5.848332    7.289384   -2.583639
    111          7           0       -5.985207    1.484026   -0.529419
    112          6           0       -6.708486    2.659933   -0.586562
    113          6           0       -7.992195    2.398379   -0.011941
    114          6           0       -8.106579    0.996226    0.157197
    115          6           0       -6.836353    0.443410   -0.167293
    116          6           0       -9.046216    3.403563    0.260138
    117          6           0       -9.035506   -0.096206    0.495404
    118          8           0      -10.176550   -0.110320    0.947861
    119          6           0       -8.106947   -1.520129    0.272066
    120          6           0       -8.087704   -2.276989    1.484784
    121          8           0       -7.142638   -2.345245    2.240404
    122          8           0       -9.236332   -3.024831    1.612679
    123          6           0       -9.285716   -3.784623    2.886640
    124          1           0       -1.428658   -2.682686   -1.307407
    125          1           0       -0.600064    3.685960   -2.117044
    126          1           0       -6.658511    4.794151   -1.010792
    127          1           0       -5.680843   -3.510288    0.786729
    128          1           0       -3.648058   -4.074942   -1.177371
    129          1           0       -2.405166   -4.691665    0.517228
    130          1           0       -3.904264   -4.570381    1.524015
    131          1           0       -2.702654   -3.287541    1.541800
    132          1           0       -5.644181   -4.709700   -1.883400
    133          1           0       -6.984133   -3.523614   -1.804442
    134          1           0       -8.274726   -4.733348   -0.478253
    135          1           0       -6.843371   -5.263354    0.450723
    136          1           0        1.298148   -1.487465   -2.997442
    137          1           0        0.495245   -2.490358   -1.852900
    138          1           0        1.910448   -1.456238   -1.341833
    139          1           0        2.775596    0.226750   -3.352078
    140          1           0        3.396651    0.741021   -1.649535
    141          1           0        3.582722    1.801636   -2.870321
    142          1           0       -2.426471    5.668655   -2.724294
    143          1           0       -4.391776    6.133640   -0.721074
    144          1           0       -2.357856    6.732053   -0.178620
    145          1           0       -0.873098    6.414073   -1.177534
    146          1           0       -1.400724    5.267001    0.000004
    147          1           0       -5.287624    5.458326   -3.538468
    148          1           0       -4.081256    6.616833   -3.532833
    149          1           0       -6.128926    7.311577   -1.530558
    150          1           0       -6.737186    7.039584   -3.163663
    151          1           0       -5.528896    8.259221   -2.965383
    152          1           0       -8.822199    4.442830    0.019836
    153          1           0       -9.433788    3.172253    1.253032
    154          1           0       -9.757959    3.225742   -0.546383
    155          1           0       -8.556441   -2.113713   -0.524505
    156          1           0       -9.238325   -3.095505    3.730121
    157          1           0       -8.475859   -4.512185    2.833555
    158          1           0      -10.219904   -4.328637    3.020514
 ---------------------------------------------------------------------

 SCF Done:  E(RCAM-B3LYP) =  -4069.83154070     A.U. after   19 cycles

 Excitation energies and oscillator strengths:

 Excited State   1:      Singlet-A      1.7696 eV  700.64 nm  f=0.2528  <S**2>=0.000
     309 -> 315        0.18994
     311 -> 313        0.66521
     312 -> 314        0.14649
     309 <- 315        0.10611
 This state for optimization and/or second-order correction.
 Total Energy, E(TD-HF/TD-DFT) =  -4069.76651000
 Copying the excited state density for this state as the 1-particle RhoCI density.

 Excited State   2:      Singlet-A      1.8096 eV  685.13 nm  f=0.4921  <S**2>=0.000
     310 -> 316       -0.17031
     311 -> 313       -0.14318
     312 -> 314        0.66989

 Excited State   3:      Singlet-A      2.2155 eV  559.63 nm  f=0.0664  <S**2>=0.000
     309 -> 313        0.63631
     310 -> 314        0.10185
     311 -> 315       -0.27452

 Excited State   4:      Singlet-A      2.2759 eV  544.77 nm  f=0.1195  <S**2>=0.000
     310 -> 314        0.62852
     312 -> 316        0.28740

 Excited State   5:      Singlet-A      2.3574 eV  525.93 nm  f=0.0000  <S**2>=0.000
     312 -> 313        0.70610

 The electronic state is 1-A.
 Alpha  occ. eigenvalues --  -46.88947 -46.87874 -19.25807 -19.24217 -19.20579
 Alpha  occ. eigenvalues --  -19.20458 -19.19258 -19.19093 -19.19086 -19.18806
 Alpha  occ. eigenvalues --  -14.42765 -14.42029 -14.41959 -14.41385 -14.40157
 Alpha  occ. eigenvalues --  -14.39900 -14.39540 -14.38384 -10.39685 -10.38177
 Alpha  occ. eigenvalues --  -10.36557 -10.35714 -10.35711 -10.35366 -10.32408
 Alpha  occ. eigenvalues --  -10.32259 -10.32152 -10.31570 -10.31212 -10.31209
 Alpha  occ. eigenvalues --  -10.31138 -10.30979 -10.30898 -10.30894 -10.30874
 Alpha  occ. eigenvalues --  -10.30676 -10.29854 -10.29830 -10.29687 -10.29497
 Alpha  occ. eigenvalues --  -10.29452 -10.29436 -10.29385 -10.29356 -10.28748
 Alpha  occ. eigenvalues --  -10.28605 -10.28518 -10.28276 -10.28263 -10.28194
 Alpha  occ. eigenvalues --  -10.28142 -10.28086 -10.27886 -10.27855 -10.27843
 Alpha  occ. eigenvalues --  -10.27821 -10.27602 -10.27578 -10.27465 -10.27420
 Alpha  occ. eigenvalues --  -10.27403 -10.27392 -10.27347 -10.27154 -10.27091
 Alpha  occ. eigenvalues --  -10.26801 -10.26791 -10.26617 -10.26558 -10.26489
 Alpha  occ. eigenvalues --  -10.26460 -10.26276 -10.26076 -10.25956 -10.25922
 Alpha  occ. eigenvalues --  -10.25817 -10.25782 -10.25739 -10.25644 -10.25607
 Alpha  occ. eigenvalues --  -10.25558 -10.25088 -10.25078 -10.24973 -10.24863
 Alpha  occ. eigenvalues --  -10.24517  -3.17568  -3.16406  -1.92467  -1.92026
 Alpha  occ. eigenvalues --   -1.91869  -1.91315  -1.90856  -1.90711  -1.16598
 Alpha  occ. eigenvalues --   -1.15750  -1.12799  -1.10884  -1.08987  -1.08391
 Alpha  occ. eigenvalues --   -1.07365  -1.07307  -1.05953  -1.04780  -1.03989
 Alpha  occ. eigenvalues --   -1.03741  -1.02080  -1.01574  -1.01338  -1.00604
 Alpha  occ. eigenvalues --   -0.93158  -0.91556  -0.89663  -0.88848  -0.88728
 Alpha  occ. eigenvalues --   -0.88316  -0.88270  -0.87950  -0.87591  -0.87410
 Alpha  occ. eigenvalues --   -0.87286  -0.86581  -0.86317  -0.85256  -0.84473
 Alpha  occ. eigenvalues --   -0.84160  -0.83794  -0.83385  -0.82762  -0.82273
 Alpha  occ. eigenvalues --   -0.82095  -0.81569  -0.80763  -0.80534  -0.80329
 Alpha  occ. eigenvalues --   -0.79417  -0.78921  -0.77754  -0.77352  -0.76918
 Alpha  occ. eigenvalues --   -0.76665  -0.76377  -0.76186  -0.75565  -0.75176
 Alpha  occ. eigenvalues --   -0.74298  -0.72669  -0.71924  -0.71803  -0.71000
 Alpha  occ. eigenvalues --   -0.69657  -0.69243  -0.68706  -0.68621  -0.68547
 Alpha  occ. eigenvalues --   -0.67416  -0.67082  -0.66982  -0.66372  -0.65723
 Alpha  occ. eigenvalues --   -0.65344  -0.65223  -0.64606  -0.64573  -0.64231
 Alpha  occ. eigenvalues --   -0.64035  -0.62331  -0.60914  -0.60398  -0.59892
 Alpha  occ. eigenvalues --   -0.59684  -0.59441  -0.58946  -0.58776  -0.58501
 Alpha  occ. eigenvalues --   -0.58466  -0.58139  -0.57810  -0.57485  -0.56666
 Alpha  occ. eigenvalues --   -0.56551  -0.56335  -0.55735  -0.55605  -0.55338
 Alpha  occ. eigenvalues --   -0.55069  -0.54414  -0.54277  -0.54042  -0.53854
 Alpha  occ. eigenvalues --   -0.53673  -0.53485  -0.53420  -0.53129  -0.52898
 Alpha  occ. eigenvalues --   -0.52629  -0.52578  -0.52339  -0.52286  -0.52149
 Alpha  occ. eigenvalues --   -0.51900  -0.51830  -0.51532  -0.51478  -0.51400
 Alpha  occ. eigenvalues --   -0.51225  -0.51095  -0.50675  -0.50658  -0.50324
 Alpha  occ. eigenvalues --   -0.50036  -0.49908  -0.49748  -0.49602  -0.49373
 Alpha  occ. eigenvalues --   -0.49330  -0.49203  -0.49027  -0.48906  -0.48735
 Alpha  occ. eigenvalues --   -0.48615  -0.48360  -0.48325  -0.48109  -0.47911
 Alpha  occ. eigenvalues --   -0.47756  -0.47606  -0.47461  -0.47364  -0.47034
 Alpha  occ. eigenvalues --   -0.46869  -0.46686  -0.46596  -0.46416  -0.46315
 Alpha  occ. eigenvalues --   -0.46223  -0.46009  -0.45939  -0.45598  -0.45514
 Alpha  occ. eigenvalues --   -0.45337  -0.45094  -0.44959  -0.44799  -0.44727
 Alpha  occ. eigenvalues --   -0.44627  -0.44570  -0.44141  -0.44102  -0.44053
 Alpha  occ. eigenvalues --   -0.43865  -0.43710  -0.43568  -0.43427  -0.43383
 Alpha  occ. eigenvalues --   -0.43252  -0.43190  -0.43035  -0.42966  -0.42842
 Alpha  occ. eigenvalues --   -0.42562  -0.42370  -0.42281  -0.42139  -0.42066
 Alpha  occ. eigenvalues --   -0.41995  -0.41892  -0.41584  -0.41556  -0.41384
 Alpha  occ. eigenvalues --   -0.40975  -0.40878  -0.40695  -0.40376  -0.40230
 Alpha  occ. eigenvalues --   -0.40019  -0.39813  -0.39685  -0.39408  -0.39245
 Alpha  occ. eigenvalues --   -0.38631  -0.38395  -0.38310  -0.38086  -0.37633
 Alpha  occ. eigenvalues --   -0.37365  -0.37331  -0.36880  -0.36757  -0.36603
 Alpha  occ. eigenvalues --   -0.36072  -0.35693  -0.35105  -0.34793  -0.34129
 Alpha  occ. eigenvalues --   -0.33944  -0.33539  -0.32706  -0.32082  -0.31592
 Alpha  occ. eigenvalues --   -0.31052  -0.30976  -0.30818  -0.30630  -0.30203
 Alpha  occ. eigenvalues --   -0.29959  -0.29711  -0.28324  -0.24198  -0.23723
 Alpha  occ. eigenvalues --   -0.21725  -0.20971
 Alpha virt. eigenvalues --   -0.08899  -0.08025  -0.02178  -0.01423  -0.00514
 Alpha virt. eigenvalues --    0.00512   0.01614   0.02186   0.02473   0.03294
 Alpha virt. eigenvalues --    0.04503   0.04656   0.05137   0.05549   0.05688

 Mulliken charges:
               1
     1  Mg  11.996697
     2  C    6.012086
     3  C    5.973833
     4  C    5.988626
     5  C    6.019202
     6  N    7.001179
     7  C    5.972055
     8  C    6.009778
     9  C    5.990916
    10  C    6.043384
    11  C    5.994306
    12  C    6.005850
    13  C    5.999211
    14  H    0.996529
    15  N    6.989680
    16  C    6.050626
    17  C    6.012644
    18  C    6.025575
    19  C    6.025156
    20  C    5.994784
    21  C    6.011664
    22  O    8.026327
    23  C    5.995707
    24  N    6.998564
    25  C    6.028476
    26  C    5.996166
    27  C    6.012557
    28  C    5.962609
    29  C    5.996620
    30  C    6.004733
    31  C    5.998280
    32  N    7.006453
    33  C    5.951222
    34  C    5.977436
    35  C    5.991042
    36  C    5.974740
    37  C    6.004765
    38  C    5.983217
    39  O    7.967486
    40  C    5.998608
    41  C    5.996315
    42  O    7.990766
    43  O    8.000160
    44  C    6.001849
    45  H    1.007517
    46  H    1.006529
    47  H    0.992471
    48  H    1.001539
    49  H    1.005222
    50  H    1.011827
    51  H    0.995992
    52  H    1.008432
    53  H    0.990264
    54  H    1.005214
    55  H    0.997411
    56  H    1.004565
    57  H    1.019944
    58  H    1.016053
    59  H    1.015224
    60  H    1.009560
    61  H    1.004063
    62  H    1.015147
    63  H    0.997767
    64  H    0.996199
    65  H    0.997619
    66  H    1.010901
    67  H    0.997677
    68  H    1.005274
    69  H    0.992305
    70  H    0.994260
    71  H    1.001064
    72  H    0.996118
    73  H    0.983460
    74  H    0.974487
    75  H    0.986175
    76  H    0.993167
    77  H    1.000995
    78  H    0.992907
    79  H    0.996366
    80  Mg  11.996750
    81  C    6.004139
    82  C    5.994167
    83  C    5.993024
    84  C    6.001563
    85  N    7.002206
    86  C    5.994439
    87  C    6.002444
    88  C    5.998622
    89  C    6.006610
    90  C    5.997863
    91  C    6.000093
    92  C    5.999997
    93  H    1.000351
    94  N    6.997236
    95  C    6.008882
    96  C    5.999221
    97  C    6.001870
    98  C    6.006940
    99  C    5.998894
   100  C    5.993607
   101  O    8.002921
   102  C    6.005677
   103  N    6.999123
   104  C    6.006709
   105  C    5.998590
   106  C    6.002213
   107  C    5.994216
   108  C    6.000578
   109  C    6.000705
   110  C    5.999952
   111  N    7.000550
   112  C    5.992090
   113  C    5.993824
   114  C    5.999316
   115  C    5.992422
   116  C    6.000704
   117  C    5.997114
   118  O    7.994587
   119  C    5.998013
   120  C    6.000029
   121  O    7.996750
   122  O    8.000367
   123  C    6.000533
   124  H    1.005278
   125  H    0.999678
   126  H    0.997586
   127  H    0.998540
   128  H    1.003004
   129  H    1.002972
   130  H    1.003683
   131  H    0.995781
   132  H    0.999416
   133  H    1.001505
   134  H    1.000961
   135  H    0.999057
   136  H    1.008721
   137  H    1.003837
   138  H    1.008609
   139  H    1.006927
   140  H    1.003515
   141  H    1.004508
   142  H    1.001602
   143  H    0.998389
   144  H    1.001524
   145  H    0.999797
   146  H    0.994421
   147  H    1.000836
   148  H    0.998263
   149  H    1.000012
   150  H    1.001052
   151  H    0.999003
   152  H    0.995550
   153  H    0.995672
   154  H    0.996092
   155  H    0.999190
   156  H    0.999136
   157  H    0.998764
   158  H    0.999621
 Sum of Mulliken charges = 624.00000

 Dipole moment (field-independent basis, Debye):
    X=             -2.0302    Y=              4.7021    Z=              7.0075  Tot=              8.6796
 Quadrupole moment (field-independent basis, Debye-Ang):
   XX=            -57.9487   YY=             -2.5732   ZZ=             17.0324
   XY=             29.7214   XZ=             32.1496   YZ=              5.5991

 Normal termination of Gaussian 16 at Thu Sep 23 07:33:30 2021.
