 Gaussian 16, Revision A.03,
 Gaussian 16:  ES64L-G16RevA.03 25-Dec-2016

 ----------------------------------------------------------
 #p cam-b3lyp/Def2SVP td=(nstates=5) density=(transition=1)
 ----------------------------------------------------------

 --------------------------------
 TDDFT excited states in gaussian
 --------------------------------
 Symbolic Z-matrix:
 Charge =  0 Multiplicity = 1

                         Standard orientation:
 ---------------------------------------------------------------------
 Center     Atomic      Atomic             Coordinates (Angstroms)
 Number     Number       Type             X           Y           Z
 ---------------------------------------------------------------------
      1         12           0        9.163292   -0.355147    0.073664
      2          6           0        7.231073    2.294749   -1.360489
      3          6           0       11.635389    1.935810    0.605938
      4          6           0       11.054309   -2.754575    0.924203
      5          6           0        7.052684   -2.586674   -1.572934
      6          7           0        9.296852    1.810857   -0.363639
      7          6           0        8.464091    2.719908   -0.860938
      8          6           0        8.994181    4.179308   -0.732374
      9          6           0       10.556264    3.872802   -0.643222
     10          6           0       10.495892    2.469470   -0.066214
     11          6           0       11.244498    3.815508   -2.003205
     12          6           0        8.474670    4.888571    0.563306
     13          6           0        8.674857    6.406384    0.602327
     14          1           0        7.659470    7.230480    1.240452
     15          7           0       10.847305   -0.355086    1.106597
     16          6           0       11.723562    0.671071    1.226848
     17          6           0       12.813286    0.176798    2.095683
     18          6           0       12.594639   -1.279876    2.315662
     19          6           0       11.490488   -1.530143    1.424822
     20          6           0       13.881578    1.062287    2.659962
     21          6           0       13.279882   -2.288739    3.182131
     22          8           0       13.082730   -3.544991    3.049713
     23          6           0       14.267754   -1.766259    4.143467
     24          7           0        9.212022   -2.376928   -0.443698
     25          6           0       10.097667   -3.210488    0.112893
     26          6           0        9.765217   -4.641610   -0.189278
     27          6           0        8.321186   -4.625625   -0.870655
     28          6           0        8.099271   -3.093687   -0.917447
     29          6           0       10.752860   -5.379414   -1.103727
     30          6           0        7.227301   -5.509857   -0.221064
     31          6           0        6.871720   -4.965957    1.144525
     32          7           0        7.338696   -0.214689   -1.093456
     33          6           0        6.643824   -1.269852   -1.702108
     34          6           0        5.535701   -0.671763   -2.469194
     35          6           0        5.673742    0.699857   -2.265605
     36          6           0        6.812446    0.944802   -1.446065
     37          6           0        4.603549   -1.380701   -3.277238
     38          6           0        5.138652    2.017020   -2.569934
     39          8           0        4.129699    2.432171   -3.141910
     40          6           0        6.196378    3.109196   -2.096442
     41          6           0        5.448602    4.160664   -1.322779
     42          8           0        4.921637    3.892587   -0.223775
     43          8           0        5.672014    5.362605   -1.875922
     44          6           0        4.982220    6.454567   -1.138387
     45          1           0       12.563898    2.510098    0.608018
     46          1           0       11.614721   -3.619788    1.284460
     47          1           0        6.303107   -3.226030   -2.042838
     48          1           0        8.788129    4.815217   -1.593528
     49          1           0       11.064109    4.545184    0.047950
     50          1           0       10.522151    3.867005   -2.817750
     51          1           0       11.772448    2.861884   -2.022291
     52          1           0       12.012946    4.585043   -2.081179
     53          1           0        9.099439    4.597268    1.407620
     54          1           0        7.422080    4.659271    0.733013
     55          1           0        8.923200    6.801123   -0.383277
     56          1           0        9.555043    6.619306    1.209070
     57          1           0       13.876757    2.045010    2.190091
     58          1           0       14.839235    0.628574    2.372742
     59          1           0       13.822301    1.135955    3.745960
     60          1           0       15.048804   -1.231850    3.602250
     61          1           0       14.589958   -2.620561    4.737775
     62          1           0       13.781347   -1.030959    4.785097
     63          1           0        9.722922   -5.234390    0.723546
     64          1           0        8.354265   -4.962121   -1.907164
     65          1           0       11.167700   -6.284855   -0.660118
     66          1           0       11.542979   -4.681462   -1.379166
     67          1           0       10.354716   -5.652533   -2.080612
     68          1           0        7.596604   -6.524507   -0.075986
     69          1           0        6.314726   -5.570702   -0.814154
     70          1           0        7.640504   -5.395946    1.785550
     71          1           0        5.879486   -5.306059    1.442875
     72          1           0        6.984011   -3.882261    1.183003
     73          1           0        3.625308   -0.950159   -3.063585
     74          1           0        4.622524   -2.448362   -3.059651
     75          1           0        4.983182   -1.150597   -4.272621
     76          1           0        6.654892    3.513240   -2.998460
     77          1           0        4.356744    6.982770   -1.858120
     78          1           0        5.760014    7.024441   -0.629777
     79          1           0        4.236210    6.144949   -0.405622
     80         12           0       -8.563060   -0.955827    0.245092
     81          6           0      -10.866386    1.514751    0.714754
     82          6           0       -6.014932    1.416111    0.873483
     83          6           0       -6.263540   -3.293093   -0.435076
     84          6           0      -11.123433   -3.184012   -0.282601
     85          7           0       -8.421972    1.255017    0.423531
     86          6           0       -9.546305    2.040030    0.709348
     87          6           0       -9.163265    3.516933    1.009338
     88          6           0       -7.618111    3.379323    0.967398
     89          6           0       -7.301502    1.924662    0.670667
     90          6           0       -6.722543    4.331721    0.065781
     91          6           0       -9.687772    4.128892    2.382271
     92          6           0       -9.211837    5.592425    2.584857
     93          1           0      -10.334383    6.619464    2.430178
     94          7           0       -6.382654   -0.940164    0.272812
     95          6           0       -5.588615    0.064088    0.783408
     96          6           0       -4.214725   -0.394346    0.614100
     97          6           0       -4.302110   -1.769303    0.223458
     98          6           0       -5.681353   -2.082759    0.019262
     99          6           0       -3.072271    0.493176    0.926706
    100          6           0       -3.043197   -2.656117   -0.075346
    101          8           0       -3.101256   -3.779162   -0.616021
    102          6           0       -1.664004   -2.129003    0.223761
    103          7           0       -8.667975   -2.835977   -0.281805
    104          6           0       -7.545495   -3.672295   -0.539474
    105          6           0       -7.972877   -4.962671   -1.201412
    106          6           0       -9.411031   -5.052990   -0.694713
    107          6           0       -9.780358   -3.619766   -0.339490
    108          6           0       -7.878667   -4.909470   -2.763316
    109          6           0       -9.541923   -5.909192    0.584768
    110          6           0       -9.697677   -7.399033    0.437801
    111          7           0      -10.622909   -0.946737    0.158731
    112          6           0      -11.542688   -1.922750    0.091627
    113          6           0      -12.853158   -1.345682    0.150809
    114          6           0      -12.660883   -0.006107    0.414237
    115          6           0      -11.271735    0.190270    0.454862
    116          6           0      -14.093926   -2.162181    0.047078
    117          6           0      -13.341215    1.194501    0.653479
    118          8           0      -14.526901    1.449192    0.741000
    119          6           0      -12.175928    2.270382    0.868253
    120          6           0      -12.374828    3.362503   -0.122171
    121          8           0      -12.257360    3.290265   -1.321239
    122          8           0      -12.569697    4.536812    0.485201
    123          6           0      -12.733092    5.740980   -0.417320
    124          1           0       -5.300031    2.160576    1.229648
    125          1           0       -5.525353   -4.067435   -0.653259
    126          1           0      -11.987054   -3.851152   -0.311380
    127          1           0       -9.503900    4.136395    0.179616
    128          1           0       -7.214615    3.521477    1.970383
    129          1           0       -5.760755    4.629205    0.484440
    130          1           0       -7.331601    5.144389   -0.330496
    131          1           0       -6.429301    3.699806   -0.772440
    132          1           0       -9.331456    3.416959    3.125766
    133          1           0      -10.776947    4.088697    2.378198
    134          1           0       -8.340627    5.789775    1.960236
    135          1           0       -8.888214    5.669623    3.622425
    136          1           0       -2.572795    0.737634   -0.010967
    137          1           0       -2.501978   -0.020388    1.700749
    138          1           0       -3.414428    1.409599    1.407755
    139          1           0       -0.919914   -2.896850    0.011979
    140          1           0       -1.656569   -2.022956    1.309434
    141          1           0       -1.381738   -1.185752   -0.243163
    142          1           0       -7.357697   -5.799056   -0.868420
    143          1           0      -10.111074   -5.425596   -1.442233
    144          1           0       -8.681139   -4.305179   -3.184575
    145          1           0       -7.901341   -5.917524   -3.178189
    146          1           0       -6.905356   -4.469152   -2.977027
    147          1           0      -10.337316   -5.566051    1.245142
    148          1           0       -8.682069   -5.729749    1.230328
    149          1           0       -8.855170   -7.851903    0.959698
    150          1           0       -9.493075   -7.562415   -0.620398
    151          1           0      -10.676395   -7.783648    0.725113
    152          1           0      -14.481429   -2.390029    1.039306
    153          1           0      -14.086407   -3.037580   -0.603050
    154          1           0      -14.830528   -1.497582   -0.404727
    155          1           0      -12.259969    2.666448    1.880527
    156          1           0      -11.895370    5.730490   -1.114956
    157          1           0      -12.679305    6.689654    0.117387
    158          1           0      -13.684210    5.636749   -0.939904
 ---------------------------------------------------------------------

 SCF Done:  E(RCAM-B3LYP) =  -4069.83744950     A.U. after   18 cycles

 Excitation energies and oscillator strengths:

 Excited State   1:      Singlet-A      1.6477 eV  752.45 nm  f=0.6536  <S**2>=0.000
     309 -> 316       -0.14834
     311 -> 314        0.24905
     312 -> 313        0.64400
 This state for optimization and/or second-order correction.
 Total Energy, E(TD-HF/TD-DFT) =  -4069.77689588
 Copying the excited state density for this state as the 1-particle RhoCI density.

 Excited State   2:      Singlet-A      1.6836 eV  736.41 nm  f=0.1648  <S**2>=0.000
     310 -> 315       -0.16461
     311 -> 314        0.63891
     312 -> 313       -0.24987

 Excited State   3:      Singlet-A      2.1927 eV  565.45 nm  f=0.0902  <S**2>=0.000
     310 -> 314        0.64061
     311 -> 315        0.27817

 Excited State   4:      Singlet-A      2.2519 eV  550.58 nm  f=0.1082  <S**2>=0.000
     309 -> 313        0.63783
     312 -> 316        0.28890

 Excited State   5:      Singlet-A      2.7414 eV  452.27 nm  f=0.0000  <S**2>=0.000
     312 -> 314        0.70682

 The electronic state is 1-A.
 Alpha  occ. eigenvalues --  -46.87861 -46.87293 -19.26432 -19.24753 -19.19182
 Alpha  occ. eigenvalues --  -19.19171 -19.18869 -19.18568 -19.18299 -19.18268
 Alpha  occ. eigenvalues --  -14.42517 -14.42515 -14.41529 -14.41507 -14.39466
 Alpha  occ. eigenvalues --  -14.38658 -14.38655 -14.38633 -10.39223 -10.38356
 Alpha  occ. eigenvalues --  -10.35501 -10.34952 -10.34749 -10.34489 -10.32141
 Alpha  occ. eigenvalues --  -10.31844 -10.31830 -10.31475 -10.31142 -10.30980
 Alpha  occ. eigenvalues --  -10.30638 -10.30570 -10.30362 -10.30253 -10.29976
 Alpha  occ. eigenvalues --  -10.29823 -10.29695 -10.29363 -10.29311 -10.29299
 Alpha  occ. eigenvalues --  -10.29056 -10.28831 -10.28769 -10.28758 -10.28642
 Alpha  occ. eigenvalues --  -10.28436 -10.28397 -10.28279 -10.28190 -10.27873
 Alpha  occ. eigenvalues --  -10.27870 -10.27858 -10.27790 -10.27648 -10.27558
 Alpha  occ. eigenvalues --  -10.27542 -10.27538 -10.27523 -10.27479 -10.27474
 Alpha  occ. eigenvalues --  -10.27259 -10.27246 -10.27197 -10.27183 -10.26943
 Alpha  occ. eigenvalues --  -10.26804 -10.26458 -10.26431 -10.26390 -10.26298
 Alpha  occ. eigenvalues --  -10.26292 -10.26186 -10.26137 -10.26069 -10.25987
 Alpha  occ. eigenvalues --  -10.25880 -10.25572 -10.25498 -10.25456 -10.25420
 Alpha  occ. eigenvalues --  -10.25323 -10.24969 -10.24903 -10.24847 -10.24804
 Alpha  occ. eigenvalues --  -10.24702  -3.16604  -3.16073  -1.91486  -1.91072
 Alpha  occ. eigenvalues --   -1.90975  -1.90914  -1.90544  -1.90372  -1.16781
 Alpha  occ. eigenvalues --   -1.16745  -1.10249  -1.08732  -1.08026  -1.07269
 Alpha  occ. eigenvalues --   -1.06973  -1.06792  -1.05226  -1.04648  -1.03820
 Alpha  occ. eigenvalues --   -1.03714  -1.03297  -1.02897  -1.02474  -1.01749
 Alpha  occ. eigenvalues --   -0.93132  -0.92049  -0.89564  -0.89264  -0.88904
 Alpha  occ. eigenvalues --   -0.88575  -0.88459  -0.88328  -0.87928  -0.87737
 Alpha  occ. eigenvalues --   -0.87700  -0.87333  -0.86950  -0.86310  -0.85056
 Alpha  occ. eigenvalues --   -0.84135  -0.83979  -0.83779  -0.83018  -0.82723
 Alpha  occ. eigenvalues --   -0.82340  -0.81683  -0.81333  -0.81020  -0.80674
 Alpha  occ. eigenvalues --   -0.80388  -0.78857  -0.78161  -0.77373  -0.77277
 Alpha  occ. eigenvalues --   -0.77013  -0.76985  -0.76025  -0.76004  -0.74986
 Alpha  occ. eigenvalues --   -0.74948  -0.73010  -0.72833  -0.71736  -0.71604
 Alpha  occ. eigenvalues --   -0.69937  -0.69242  -0.68945  -0.68761  -0.68154
 Alpha  occ. eigenvalues --   -0.67710  -0.67297  -0.65851  -0.65599  -0.65365
 Alpha  occ. eigenvalues --   -0.64929  -0.64764  -0.64693  -0.64425  -0.64317
 Alpha  occ. eigenvalues --   -0.63968  -0.62402  -0.61906  -0.60497  -0.60048
 Alpha  occ. eigenvalues --   -0.59876  -0.59778  -0.59052  -0.58908  -0.58676
 Alpha  occ. eigenvalues --   -0.58573  -0.58124  -0.57811  -0.57684  -0.57371
 Alpha  occ. eigenvalues --   -0.56376  -0.56328  -0.56091  -0.55900  -0.55584
 Alpha  occ. eigenvalues --   -0.55404  -0.54778  -0.54604  -0.54567  -0.54047
 Alpha  occ. eigenvalues --   -0.53973  -0.53359  -0.53296  -0.53295  -0.53159
 Alpha  occ. eigenvalues --   -0.53001  -0.52820  -0.52624  -0.52521  -0.52468
 Alpha  occ. eigenvalues --   -0.52098  -0.51971  -0.51694  -0.51560  -0.51452
 Alpha  occ. eigenvalues --   -0.51268  -0.51139  -0.50625  -0.50163  -0.50072
 Alpha  occ. eigenvalues --   -0.50051  -0.49977  -0.49719  -0.49689  -0.49585
 Alpha  occ. eigenvalues --   -0.49512  -0.49289  -0.49172  -0.49078  -0.48710
 Alpha  occ. eigenvalues --   -0.48676  -0.48546  -0.48523  -0.48508  -0.48036
 Alpha  occ. eigenvalues --   -0.47881  -0.47762  -0.47553  -0.47359  -0.47230
 Alpha  occ. eigenvalues --   -0.46899  -0.46855  -0.46739  -0.46635  -0.46423
 Alpha  occ. eigenvalues --   -0.46292  -0.46261  -0.46226  -0.45903  -0.45815
 Alpha  occ. eigenvalues --   -0.45658  -0.45291  -0.45247  -0.45084  -0.44658
 Alpha  occ. eigenvalues --   -0.44566  -0.44504  -0.44206  -0.44157  -0.44094
 Alpha  occ. eigenvalues --   -0.44033  -0.43587  -0.43578  -0.43500  -0.43449
 Alpha  occ. eigenvalues --   -0.43349  -0.43148  -0.43095  -0.42817  -0.42703
 Alpha  occ. eigenvalues --   -0.42643  -0.42068  -0.41777  -0.41760  -0.41606
 Alpha  occ. eigenvalues --   -0.41603  -0.41426  -0.41369  -0.41206  -0.40933
 Alpha  occ. eigenvalues --   -0.40882  -0.40882  -0.40652  -0.40616  -0.40449
 Alpha  occ. eigenvalues --   -0.40319  -0.40221  -0.39870  -0.39626  -0.39468
 Alpha  occ. eigenvalues --   -0.38513  -0.38264  -0.37887  -0.37832  -0.37368
 Alpha  occ. eigenvalues --   -0.37342  -0.37277  -0.36828  -0.36747  -0.36460
 Alpha  occ. eigenvalues --   -0.36384  -0.36272  -0.34351  -0.34010  -0.33907
 Alpha  occ. eigenvalues --   -0.33824  -0.33255  -0.33072  -0.31399  -0.31256
 Alpha  occ. eigenvalues --   -0.31101  -0.31055  -0.30425  -0.30240  -0.30129
 Alpha  occ. eigenvalues --   -0.29514  -0.29391  -0.28859  -0.24401  -0.24145
 Alpha  occ. eigenvalues --   -0.21190  -0.20900
 Alpha virt. eigenvalues --   -0.08856  -0.08839  -0.01809  -0.01339  -0.00123
 Alpha virt. eigenvalues --    0.00622   0.02124   0.02587   0.03042   0.03612
 Alpha virt. eigenvalues --    0.04648   0.04836   0.04962   0.05559   0.06087

 Mulliken charges:
               1
     1  Mg  12.000317
     2  C    5.993256
     3  C    6.006364
     4  C    6.005759
     5  C    5.992580
     6  N    6.997249
     7  C    6.012196
     8  C    5.997045
     9  C    6.003294
    10  C    5.989375
    11  C    6.000597
    12  C    5.998551
    13  C    5.999854
    14  H    0.999855
    15  N    7.002837
    16  C    5.983854
    17  C    5.989628
    18  C    5.993261
    19  C    5.990286
    20  C    6.002814
    21  C    5.994771
    22  O    7.988455
    23  C    6.002069
    24  N    7.000038
    25  C    5.989185
    26  C    6.004858
    27  C    5.994904
    28  C    6.012662
    29  C    6.000214
    30  C    5.998545
    31  C    5.999453
    32  N    6.997051
    33  C    6.019575
    34  C    6.009142
    35  C    6.003755
    36  C    6.012498
    37  C    5.997441
    38  C    6.006132
    39  O    8.013159
    40  C    6.000403
    41  C    6.001531
    42  O    8.002790
    43  O    8.000132
    44  C    5.999174
    45  H    0.996499
    46  H    0.997160
    47  H    1.003951
    48  H    0.999579
    49  H    0.999523
    50  H    0.993709
    51  H    1.001479
    52  H    0.997938
    53  H    1.005163
    54  H    0.998566
    55  H    0.999879
    56  H    1.001999
    57  H    0.991781
    58  H    0.991417
    59  H    0.991277
    60  H    0.997683
    61  H    0.993761
    62  H    0.997260
    63  H    0.999859
    64  H    1.001269
    65  H    0.999171
    66  H    1.001528
    67  H    0.995701
    68  H    1.002845
    69  H    0.999766
    70  H    1.003696
    71  H    1.001750
    72  H    0.999259
    73  H    1.009611
    74  H    1.007307
    75  H    1.006305
    76  H    1.002188
    77  H    1.000882
    78  H    1.001392
    79  H    1.001933
    80  Mg  11.998866
    81  C    5.969289
    82  C    5.999487
    83  C    6.034814
    84  C    6.008616
    85  N    6.987723
    86  C    6.043723
    87  C    5.983448
    88  C    6.006728
    89  C    5.976762
    90  C    6.004816
    91  C    5.997640
    92  C    6.001678
    93  H    0.996674
    94  N    7.008837
    95  C    5.960358
    96  C    5.976345
    97  C    5.992884
    98  C    5.950063
    99  C    6.006463
   100  C    5.987367
   101  O    7.975573
   102  C    6.006142
   103  N    7.018190
   104  C    5.959213
   105  C    6.008374
   106  C    5.995400
   107  C    6.019267
   108  C    6.001508
   109  C    5.991850
   110  C    5.998985
   111  N    6.993214
   112  C    6.027389
   113  C    6.033997
   114  C    5.998943
   115  C    6.037181
   116  C    5.994035
   117  C    6.012972
   118  O    8.025690
   119  C    6.003466
   120  C    6.001455
   121  O    8.003567
   122  O    8.001630
   123  C    5.998632
   124  H    0.982765
   125  H    0.996689
   126  H    1.014473
   127  H    1.003091
   128  H    0.999256
   129  H    0.999618
   130  H    0.985238
   131  H    1.001693
   132  H    1.005564
   133  H    0.993258
   134  H    1.007275
   135  H    1.002767
   136  H    0.979563
   137  H    0.981445
   138  H    0.983835
   139  H    0.984856
   140  H    0.994969
   141  H    0.993337
   142  H    1.001436
   143  H    1.001502
   144  H    0.987398
   145  H    0.994323
   146  H    1.006959
   147  H    0.995346
   148  H    1.015798
   149  H    1.007428
   150  H    1.004680
   151  H    0.999656
   152  H    1.023099
   153  H    1.018709
   154  H    1.017136
   155  H    1.007273
   156  H    1.004774
   157  H    1.005144
   158  H    1.000395
 Sum of Mulliken charges = 624.00000

 Dipole moment (field-independent basis, Debye):
    X=            -14.2844    Y=             -0.4717    Z=             -2.2214  Tot=             14.4637
 Quadrupole moment (field-independent basis, Debye-Ang):
   XX=            108.9273   YY=              5.3860   ZZ=             -0.8047
   XY=             17.8643   XZ=            -21.4819   YZ=              0.2467

 Normal termination of Gaussian 16 at Wed Sep 22 12:02:01 2021.
