 Gaussian 16, Revision A.03,
 Gaussian 16:  ES64L-G16RevA.03 25-Dec-2016

 -----------------------------------------------------
 #p cam-b3lyp/Def2SVP td=(nstates=5) density=(current)
 -----------------------------------------------------

 --------------------------------
 TDDFT excited states in gaussian
 --------------------------------
 Symbolic Z-matrix:
 Charge =  0 Multiplicity = 1

                         Standard orientation:
 ---------------------------------------------------------------------
 Center     Atomic      Atomic             Coordinates (Angstroms)
 Number     Number       Type             X           Y           Z
 ---------------------------------------------------------------------
      1         12           0       -0.765674   -0.071719    0.363932
      2          6           0        2.704964    0.330817   -0.190180
      3          6           0       -0.306657   -3.301450    0.001540
      4          6           0       -4.026710   -0.224523   -0.159824
      5          6           0       -0.981285    3.456700    0.000417
      6          7           0        1.123635   -1.296984    0.117533
      7          6           0        2.362764   -0.983492    0.005403
      8          6           0        3.260123   -2.231152    0.138002
      9          6           0        2.271893   -3.433699   -0.284861
     10          6           0        0.914004   -2.631535   -0.124082
     11          6           0        2.468481   -4.034391   -1.732863
     12          6           0        3.733873   -2.436315    1.670436
     13          6           0        5.130089   -3.061195    1.991743
     14          1           0        5.700571   -4.070912    0.928787
     15          7           0       -2.031709   -1.580607    0.181329
     16          6           0       -1.612281   -2.900515    0.110114
     17          6           0       -2.831141   -3.776789   -0.002916
     18          6           0       -3.944294   -2.836227   -0.012891
     19          6           0       -3.440650   -1.460094   -0.006150
     20          6           0       -2.708004   -5.283675   -0.127598
     21          6           0       -5.419183   -3.172662   -0.029073
     22          8           0       -6.331586   -2.336181   -0.080265
     23          6           0       -5.823240   -4.588501    0.058235
     24          7           0       -2.356522    1.468906    0.067578
     25          6           0       -3.597183    1.082686   -0.169029
     26          6           0       -4.590101    2.321147   -0.031988
     27          6           0       -3.517419    3.540054   -0.005396
     28          6           0       -2.197864    2.775958    0.062431
     29          6           0       -5.673034    2.393065   -1.158786
     30          6           0       -3.632209    4.594796    1.143687
     31          6           0       -4.060899    5.986398    0.754969
     32          7           0        0.577066    1.642960    0.195219
     33          6           0        0.291400    2.987113    0.060920
     34          6           0        1.471165    3.708243   -0.178450
     35          6           0        2.436967    2.694608   -0.325281
     36          6           0        1.883127    1.451347   -0.131193
     37          6           0        1.633548    5.136247   -0.332196
     38          6           0        3.826776    2.541287   -0.517887
     39          8           0        4.818173    3.314934   -0.611609
     40          6           0        4.013570    0.969356   -0.710672
     41          6           0        5.236436    0.505753   -0.007811
     42          8           0        5.470209    0.533036    1.198726
     43          8           0        6.080108   -0.102551   -0.990038
     44          6           0        7.368824   -0.634282   -0.528677
     45          1           0       -0.086942   -4.371442    0.013790
     46          1           0       -5.110231   -0.293724   -0.270990
     47          1           0       -1.049958    4.546688   -0.031137
     48          1           0        3.971205   -2.199998   -0.687115
     49          1           0        2.478129   -4.285732    0.362002
     50          1           0        3.109276   -3.406002   -2.351042
     51          1           0        1.526053   -4.085717   -2.277829
     52          1           0        2.925179   -5.013137   -1.586366
     53          1           0        2.984869   -2.989131    2.237651
     54          1           0        3.689968   -1.466538    2.166519
     55          1           0        5.161604   -3.601828    2.938239
     56          1           0        5.859618   -2.256526    1.892036
     57          1           0       -3.414642   -5.808539    0.516277
     58          1           0       -1.705879   -5.652048    0.091937
     59          1           0       -2.769691   -5.563291   -1.179027
     60          1           0       -5.397905   -5.170235   -0.760040
     61          1           0       -6.910397   -4.664288    0.035082
     62          1           0       -5.553260   -5.099882    0.982197
     63          1           0       -5.095243    2.349838    0.933401
     64          1           0       -3.422418    4.024524   -0.978297
     65          1           0       -5.491125    1.623892   -1.909590
     66          1           0       -5.587033    3.439327   -1.452808
     67          1           0       -6.641958    2.326201   -0.665693
     68          1           0       -2.645016    4.686536    1.597144
     69          1           0       -4.300693    4.216081    1.917126
     70          1           0       -4.358918    5.872659   -0.286469
     71          1           0       -3.177774    6.625605    0.785783
     72          1           0       -4.919653    6.349002    1.318554
     73          1           0        1.154734    5.599867    0.529885
     74          1           0        1.038921    5.603204   -1.117406
     75          1           0        2.694830    5.385307   -0.341956
     76          1           0        4.097237    0.767624   -1.779047
     77          1           0        7.962603   -0.991403   -1.370506
     78          1           0        7.182957   -1.552463    0.028856
     79          1           0        7.931448    0.162818   -0.043834
 ---------------------------------------------------------------------

 SCF Done:  E(RCAM-B3LYP) =  -2034.87331614     A.U. after   19 cycles

 Excitation energies and oscillator strengths:

 Excited State   1:      Singlet-A      1.7997 eV  688.92 nm  f=0.3656  <S**2>=0.000
     155 ->158         0.21219
     156 ->157         0.67497
     155 <-158         0.10955
 This state for optimization and/or second-order correction.
 Total Energy, E(TD-HF/TD-DFT) =  -2034.80717841
 Copying the excited state density for this state as the 1-particle RhoCI density.

 Excited State   2:      Singlet-A      2.2245 eV  557.37 nm  f=0.0807  <S**2>=0.000
     155 ->157         0.62920
     156 ->158        -0.30814

 Excited State   3:      Singlet-A      3.2970 eV  376.05 nm  f=0.0357  <S**2>=0.000
     152 ->157        -0.10024
     153 ->157        -0.14295
     154 ->157         0.59948
     156 ->158         0.27932

 Excited State   4:      Singlet-A      3.3677 eV  368.16 nm  f=0.0597  <S**2>=0.000
     150 ->157        -0.10322
     152 ->157         0.34330
     152 ->159         0.15759
     152 ->160         0.14902
     153 ->157         0.35726
     153 ->159         0.17852
     153 ->160         0.14811
     154 ->157         0.27470
     156 ->158        -0.16103

 Excited State   5:      Singlet-A      3.4930 eV  354.95 nm  f=0.4278  <S**2>=0.000
     152 ->159         0.10198
     153 ->157         0.37432
     154 ->157        -0.16141
     155 ->157         0.24005
     156 ->158         0.49453

 The electronic state is 1-A.
 Alpha  occ. eigenvalues --  -46.89410 -19.23961 -19.20237 -19.19015 -19.18471
 Alpha  occ. eigenvalues --  -14.42170 -14.41741 -14.39990 -14.38585 -10.39311
 Alpha  occ. eigenvalues --  -10.35142 -10.34506 -10.31541 -10.31107 -10.30983
 Alpha  occ. eigenvalues --  -10.30769 -10.30726 -10.30638 -10.30327 -10.30266
 Alpha  occ. eigenvalues --  -10.29349 -10.28680 -10.28663 -10.28589 -10.28410
 Alpha  occ. eigenvalues --  -10.28403 -10.28325 -10.28029 -10.27856 -10.27613
 Alpha  occ. eigenvalues --  -10.27558 -10.27508 -10.27486 -10.26992 -10.26400
 Alpha  occ. eigenvalues --  -10.26393 -10.26247 -10.26045 -10.25927 -10.25843
 Alpha  occ. eigenvalues --  -10.25829 -10.25423 -10.24659  -3.17863  -1.92767
 Alpha  occ. eigenvalues --   -1.92330  -1.92149  -1.13985  -1.09438  -1.07306
 Alpha  occ. eigenvalues --   -1.06745  -1.05800  -1.05229  -1.03507  -1.01487
 Alpha  occ. eigenvalues --   -0.92975  -0.89516  -0.88628  -0.87916  -0.87570
 Alpha  occ. eigenvalues --   -0.87394  -0.86927  -0.84292  -0.83991  -0.82742
 Alpha  occ. eigenvalues --   -0.82077  -0.81528  -0.80687  -0.78986  -0.77731
 Alpha  occ. eigenvalues --   -0.76987  -0.75907  -0.75255  -0.73241  -0.72274
 Alpha  occ. eigenvalues --   -0.68949  -0.68613  -0.67944  -0.67244  -0.65942
 Alpha  occ. eigenvalues --   -0.65679  -0.65613  -0.64618  -0.61275  -0.60554
 Alpha  occ. eigenvalues --   -0.60164  -0.59306  -0.58365  -0.57759  -0.57356
 Alpha  occ. eigenvalues --   -0.57014  -0.55785  -0.55498  -0.54466  -0.53812
 Alpha  occ. eigenvalues --   -0.53549  -0.53238  -0.52984  -0.52624  -0.52490
 Alpha  occ. eigenvalues --   -0.52259  -0.51572  -0.51128  -0.50936  -0.50566
 Alpha  occ. eigenvalues --   -0.50365  -0.49884  -0.49578  -0.49219  -0.48805
 Alpha  occ. eigenvalues --   -0.48684  -0.48399  -0.48062  -0.47828  -0.47633
 Alpha  occ. eigenvalues --   -0.47331  -0.47049  -0.46810  -0.46319  -0.46122
 Alpha  occ. eigenvalues --   -0.45604  -0.45359  -0.44931  -0.44245  -0.43947
 Alpha  occ. eigenvalues --   -0.43930  -0.43576  -0.43354  -0.43006  -0.42624
 Alpha  occ. eigenvalues --   -0.41954  -0.41706  -0.41597  -0.41191  -0.41076
 Alpha  occ. eigenvalues --   -0.40773  -0.40665  -0.40307  -0.40072  -0.39047
 Alpha  occ. eigenvalues --   -0.38506  -0.37848  -0.37417  -0.36465  -0.36125
 Alpha  occ. eigenvalues --   -0.35656  -0.34495  -0.33920  -0.33567  -0.31812
 Alpha  occ. eigenvalues --   -0.31311  -0.30521  -0.30264  -0.29312  -0.24178
 Alpha  occ. eigenvalues --   -0.21689
 Alpha virt. eigenvalues --   -0.08630  -0.02666  -0.00253   0.02241   0.02308
 Alpha virt. eigenvalues --    0.04562   0.05491   0.05590   0.06011   0.07851
 Alpha virt. eigenvalues --    0.08393   0.08687   0.09045   0.10223   0.10571

 Mulliken charges:
               1
     1  Mg   0.806390
     2  C    0.005268
     3  C   -0.083055
     4  C   -0.050119
     5  C   -0.102025
     6  N   -0.235639
     7  C   -0.110326
     8  C    0.023481
     9  C   -0.110515
    10  C    0.037261
    11  C    0.066571
    12  C    0.061015
    13  C   -0.072851
    14  H   -0.016003
    15  N   -0.493147
    16  C    0.216287
    17  C   -0.140565
    18  C   -0.021147
    19  C    0.161417
    20  C    0.116327
    21  C    0.002845
    22  O   -0.216431
    23  C    0.034342
    24  N   -0.221287
    25  C    0.032572
    26  C   -0.075234
    27  C   -0.035103
    28  C    0.007233
    29  C    0.089953
    30  C    0.025898
    31  C    0.020658
    32  N   -0.337777
    33  C    0.148422
    34  C   -0.144364
    35  C    0.023635
    36  C    0.114787
    37  C    0.142512
    38  C    0.054419
    39  O   -0.220434
    40  C   -0.026865
    41  C    0.224534
    42  O   -0.219447
    43  O   -0.379799
    44  C    0.185113
    45  H   -0.031798
    46  H   -0.008089
    47  H   -0.040562
    48  H    0.002522
    49  H    0.021725
    50  H    0.016216
    51  H    0.019910
    52  H    0.023280
    53  H    0.005106
    54  H    0.034726
    55  H    0.042755
    56  H    0.061317
    57  H    0.033484
    58  H    0.006244
    59  H    0.035071
    60  H    0.031077
    61  H    0.022371
    62  H    0.036958
    63  H    0.027021
    64  H    0.014365
    65  H    0.042528
    66  H    0.008295
    67  H    0.018365
    68  H    0.012661
    69  H    0.002005
    70  H    0.003255
    71  H    0.020530
    72  H    0.024825
    73  H    0.006060
    74  H    0.020311
    75  H    0.047646
    76  H    0.051065
    77  H    0.024686
    78  H    0.026432
    79  H    0.048828
 Sum of Mulliken charges =  -0.00000

 Dipole moment (field-independent basis, Debye):
    X=             -2.5284    Y=             -3.4420    Z=             -0.0222  Tot=              4.2709
 Quadrupole moment (field-independent basis, Debye-Ang):
   XX=           -284.8440   YY=           -228.1566   ZZ=           -257.0002
   XY=            -32.7318   XZ=             -6.8054   YZ=              1.1306

 Normal termination of Gaussian 16 at Fri Oct  8 12:49:58 2021.
