 Gaussian 16, Revision A.03,
 Gaussian 16:  ES64L-G16RevA.03 25-Dec-2016

 ----------------------------------------------------------
 #p cam-b3lyp/Def2SVP td=(nstates=5) density=(transition=1)
 ----------------------------------------------------------

 --------------------------------
 TDDFT excited states in gaussian
 --------------------------------
 Symbolic Z-matrix:
 Charge =  0 Multiplicity = 1

                         Standard orientation:
 ---------------------------------------------------------------------
 Center     Atomic      Atomic             Coordinates (Angstroms)
 Number     Number       Type             X           Y           Z
 ---------------------------------------------------------------------
      1         12           0      -26.489639   -0.453888   -0.315038
      2          6           0      -24.949211    2.692715   -0.373469
      3          6           0      -27.362464    0.153118    3.062197
      4          6           0      -27.683250   -3.626584   -0.118127
      5          6           0      -24.950573   -1.187338   -3.317429
      6          7           0      -26.316604    1.281422    1.052688
      7          6           0      -25.787495    2.526521    0.700880
      8          6           0      -26.264766    3.601401    1.742760
      9          6           0      -26.926046    2.743063    2.827333
     10          6           0      -26.826707    1.266330    2.307868
     11          6           0      -26.194930    2.927638    4.184402
     12          6           0      -27.165908    4.602647    1.030407
     13          6           0      -27.231616    6.019564    1.576500
     14          1           0      -26.648341    6.289541    2.981951
     15          7           0      -27.412589   -1.615068    1.218999
     16          6           0      -27.652026   -1.192560    2.540448
     17          6           0      -28.254035   -2.261796    3.317443
     18          6           0      -28.444178   -3.389792    2.425759
     19          6           0      -27.819712   -2.907701    1.119754
     20          6           0      -28.767434   -2.103372    4.754302
     21          6           0      -29.087311   -4.743309    2.659444
     22          8           0      -29.161590   -5.557330    1.748645
     23          6           0      -29.806422   -4.976659    3.932309
     24          7           0      -26.374420   -2.142077   -1.612299
     25          6           0      -27.031034   -3.303725   -1.338725
     26          6           0      -26.957936   -4.247903   -2.567225
     27          6           0      -26.128171   -3.444908   -3.642697
     28          6           0      -25.868759   -2.115277   -2.888220
     29          6           0      -26.326475   -5.594490   -2.170895
     30          6           0      -26.880871   -3.159005   -4.969277
     31          6           0      -26.402679   -4.137393   -6.037642
     32          7           0      -25.110361    0.445358   -1.606003
     33          6           0      -24.503360    0.039381   -2.747369
     34          6           0      -23.464544    1.045105   -3.077740
     35          6           0      -23.664030    2.124981   -2.268404
     36          6           0      -24.655416    1.682181   -1.355890
     37          6           0      -22.545785    0.872963   -4.275648
     38          6           0      -23.280017    3.507222   -1.952352
     39          8           0      -22.423927    4.211250   -2.474172
     40          6           0      -24.164162    3.913247   -0.789078
     41          6           0      -23.251267    4.465289    0.224329
     42          8           0      -22.502954    3.889924    1.026027
     43          8           0      -23.287955    5.839755    0.107923
     44          6           0      -22.403509    6.589778    0.972996
     45          1           0      -27.684907    0.408689    4.073493
     46          1           0      -28.185577   -4.589679   -0.005707
     47          1           0      -24.433895   -1.529536   -4.216623
     48          1           0      -25.303278    4.013155    2.051896
     49          1           0      -27.906844    3.186451    2.998936
     50          1           0      -25.639941    2.055241    4.529798
     51          1           0      -26.974764    2.946284    4.945198
     52          1           0      -25.496423    3.763980    4.165886
     53          1           0      -28.138163    4.109892    0.999774
     54          1           0      -26.885103    4.640686   -0.021456
     55          1           0      -28.265848    6.358782    1.536863
     56          1           0      -26.680696    6.564750    0.809300
     57          1           0      -28.501782   -1.152564    5.216745
     58          1           0      -28.360077   -2.896441    5.382783
     59          1           0      -29.841302   -2.286345    4.760327
     60          1           0      -30.667185   -4.308616    3.971385
     61          1           0      -29.117449   -4.983205    4.776891
     62          1           0      -30.267380   -5.964007    3.961625
     63          1           0      -27.980745   -4.464969   -2.874344
     64          1           0      -25.191344   -3.994353   -3.744075
     65          1           0      -25.437826   -5.898378   -2.723358
     66          1           0      -27.142395   -6.256447   -2.460260
     67          1           0      -25.985060   -5.649385   -1.137582
     68          1           0      -26.532477   -2.222793   -5.405794
     69          1           0      -27.966041   -3.211770   -4.879375
     70          1           0      -27.328150   -4.499077   -6.485475
     71          1           0      -25.961838   -5.052218   -5.642335
     72          1           0      -25.746341   -3.715832   -6.799472
     73          1           0      -22.543607   -0.121503   -4.722645
     74          1           0      -21.511518    1.130870   -4.051200
     75          1           0      -22.949992    1.461572   -5.099966
     76          1           0      -24.869749    4.658298   -1.155263
     77          1           0      -21.403589    6.168669    0.865368
     78          1           0      -22.685643    6.549282    2.025298
     79          1           0      -22.247813    7.533656    0.451650
     80         12           0       25.482824   -0.782744    0.125635
     81          6           0       26.479520    2.420434   -0.981672
     82          6           0       24.805793    0.432676    3.115423
     83          6           0       25.432525   -3.999525    1.275688
     84          6           0       27.253381   -2.091605   -2.845426
     85          7           0       25.698297    1.221145    0.949277
     86          6           0       25.878959    2.376928    0.277851
     87          6           0       25.487919    3.556758    1.189256
     88          6           0       24.948984    2.940401    2.440254
     89          6           0       25.187269    1.418152    2.204382
     90          6           0       25.529659    3.604169    3.755362
     91          6           0       24.571191    4.681697    0.602328
     92          6           0       23.479472    5.434794    1.476972
     93          1           0       23.373019    6.962241    1.358685
     94          7           0       24.917123   -1.641897    1.898455
     95          6           0       24.662921   -0.935415    3.052286
     96          6           0       24.255863   -1.875509    4.057583
     97          6           0       24.457800   -3.229718    3.582374
     98          6           0       25.002984   -2.997694    2.226624
     99          6           0       23.881851   -1.353021    5.385313
    100          6           0       24.134768   -4.592916    4.242508
    101          8           0       24.422209   -5.605291    3.693897
    102          6           0       23.244529   -4.660015    5.440476
    103          7           0       26.305055   -2.753850   -0.683920
    104          6           0       25.987665   -3.883724   -0.012754
    105          6           0       26.456272   -5.167386   -0.769789
    106          6           0       27.005368   -4.584310   -2.107706
    107          6           0       26.879796   -3.054375   -1.901947
    108          6           0       27.477831   -6.010061   -0.053443
    109          6           0       26.316478   -5.026809   -3.445846
    110          6           0       25.010020   -4.417826   -3.828449
    111          7           0       26.631610   -0.109595   -1.610513
    112          6           0       27.193848   -0.739564   -2.683596
    113          6           0       27.664110    0.247916   -3.624233
    114          6           0       27.425571    1.516541   -3.033142
    115          6           0       26.835811    1.235832   -1.783900
    116          6           0       28.433294    0.019826   -4.877431
    117          6           0       27.580694    2.936661   -3.169525
    118          8           0       28.018823    3.653974   -4.061586
    119          6           0       26.930861    3.593545   -1.870071
    120          6           0       27.836183    4.617629   -1.206624
    121          8           0       28.891739    4.348389   -0.693934
    122          8           0       27.228651    5.862228   -1.255063
    123          6           0       28.044413    6.926544   -0.669298
    124          1           0       24.368659    0.767439    4.058861
    125          1           0       25.337118   -5.002020    1.697373
    126          1           0       27.682597   -2.471640   -3.774733
    127          1           0       26.476877    4.002230    1.297137
    128          1           0       23.885254    3.175188    2.487271
    129          1           0       26.113446    4.484882    3.488208
    130          1           0       26.033532    2.822085    4.323236
    131          1           0       24.736001    4.043441    4.360004
    132          1           0       24.027319    4.234291   -0.229979
    133          1           0       25.152996    5.478559    0.138322
    134          1           0       23.720971    5.157613    2.503300
    135          1           0       22.498365    5.013801    1.256885
    136          1           0       24.248713   -2.088159    6.101258
    137          1           0       22.793587   -1.357804    5.433873
    138          1           0       24.197904   -0.367815    5.728615
    139          1           0       23.959758   -4.615129    6.260737
    140          1           0       22.609780   -5.543232    5.362662
    141          1           0       22.609345   -3.787413    5.594406
    142          1           0       25.613894   -5.786151   -1.079683
    143          1           0       28.068801   -4.660311   -2.332321
    144          1           0       27.595162   -5.697802    0.985073
    145          1           0       28.470183   -5.920664   -0.496215
    146          1           0       27.100436   -7.031047   -0.104884
    147          1           0       26.163922   -6.106114   -3.439111
    148          1           0       27.057551   -4.940262   -4.240787
    149          1           0       24.506689   -4.038213   -2.939053
    150          1           0       24.219738   -5.017111   -4.281118
    151          1           0       25.261574   -3.664826   -4.575993
    152          1           0       29.383539   -0.496468   -4.744225
    153          1           0       28.827774    0.998234   -5.152801
    154          1           0       27.820615   -0.444841   -5.650461
    155          1           0       26.009590    4.066828   -2.210320
    156          1           0       27.332185    7.026383    0.149180
    157          1           0       27.981393    7.724151   -1.409158
    158          1           0       29.050798    6.601150   -0.404961
 ---------------------------------------------------------------------

 SCF Done:  E(RCAM-B3LYP) =  -4069.79053675     A.U. after   19 cycles

 Excitation energies and oscillator strengths:

 Excited State   1:      Singlet-A      1.6782 eV  738.79 nm  f=0.3919  <S**2>=0.000
     309 -> 316       -0.17298
     312 -> 313        0.68711
     309 <- 316       -0.10455
 This state for optimization and/or second-order correction.
 Total Energy, E(TD-HF/TD-DFT) =  -4069.72886400
 Copying the excited state density for this state as the 1-particle RhoCI density.

 Excited State   2:      Singlet-A      1.7017 eV  728.58 nm  f=0.3886  <S**2>=0.000
     310 -> 315        0.18702
     311 -> 314        0.68384
     310 <- 315        0.11026

 Excited State   3:      Singlet-A      2.1898 eV  566.19 nm  f=0.1074  <S**2>=0.000
     310 -> 314        0.64225
     311 -> 315       -0.28260

 Excited State   4:      Singlet-A      2.1968 eV  564.39 nm  f=0.1225  <S**2>=0.000
     309 -> 313        0.64515
     312 -> 316        0.27389

 Excited State   5:      Singlet-A      3.1738 eV  390.65 nm  f=0.0000  <S**2>=0.000
     312 -> 314        0.70711

 The electronic state is 1-A.
 Alpha  occ. eigenvalues --  -46.89976 -46.89129 -19.24719 -19.24468 -19.20009
 Alpha  occ. eigenvalues --  -19.19806 -19.19561 -19.19309 -19.19217 -19.18614
 Alpha  occ. eigenvalues --  -14.42201 -14.42198 -14.41764 -14.41752 -14.40131
 Alpha  occ. eigenvalues --  -14.39478 -14.39214 -14.38791 -10.39374 -10.39101
 Alpha  occ. eigenvalues --  -10.35710 -10.35491 -10.35415 -10.34781 -10.32005
 Alpha  occ. eigenvalues --  -10.31609 -10.31241 -10.31217 -10.31168 -10.31108
 Alpha  occ. eigenvalues --  -10.31003 -10.30982 -10.30868 -10.30694 -10.30661
 Alpha  occ. eigenvalues --  -10.30346 -10.30096 -10.29568 -10.29550 -10.29429
 Alpha  occ. eigenvalues --  -10.29358 -10.29067 -10.28997 -10.28656 -10.28605
 Alpha  occ. eigenvalues --  -10.28572 -10.28416 -10.28182 -10.28165 -10.28058
 Alpha  occ. eigenvalues --  -10.28022 -10.27909 -10.27814 -10.27788 -10.27782
 Alpha  occ. eigenvalues --  -10.27681 -10.27638 -10.27625 -10.27608 -10.27574
 Alpha  occ. eigenvalues --  -10.27541 -10.27410 -10.27348 -10.27279 -10.27008
 Alpha  occ. eigenvalues --  -10.26806 -10.26762 -10.26704 -10.26545 -10.26539
 Alpha  occ. eigenvalues --  -10.26519 -10.26506 -10.26333 -10.26302 -10.26241
 Alpha  occ. eigenvalues --  -10.26239 -10.26112 -10.25540 -10.25519 -10.25376
 Alpha  occ. eigenvalues --  -10.25273 -10.25089 -10.25018 -10.24952 -10.24862
 Alpha  occ. eigenvalues --  -10.24786  -3.18285  -3.17527  -1.93159  -1.92749
 Alpha  occ. eigenvalues --   -1.92576  -1.92440  -1.91941  -1.91859  -1.16273
 Alpha  occ. eigenvalues --   -1.15806  -1.12881  -1.10470  -1.10022  -1.09193
 Alpha  occ. eigenvalues --   -1.08521  -1.06878  -1.04333  -1.04203  -1.03123
 Alpha  occ. eigenvalues --   -1.02800  -1.02650  -1.02465  -1.01818  -1.01639
 Alpha  occ. eigenvalues --   -0.93382  -0.91596  -0.89287  -0.89280  -0.88862
 Alpha  occ. eigenvalues --   -0.88793  -0.88240  -0.87977  -0.87353  -0.87156
 Alpha  occ. eigenvalues --   -0.87120  -0.86866  -0.86077  -0.85610  -0.84322
 Alpha  occ. eigenvalues --   -0.83986  -0.83894  -0.83641  -0.82739  -0.82511
 Alpha  occ. eigenvalues --   -0.82395  -0.81980  -0.80907  -0.80821  -0.80384
 Alpha  occ. eigenvalues --   -0.80033  -0.78268  -0.78109  -0.77273  -0.77140
 Alpha  occ. eigenvalues --   -0.77082  -0.76826  -0.75969  -0.75836  -0.74634
 Alpha  occ. eigenvalues --   -0.74548  -0.72547  -0.72310  -0.71451  -0.71019
 Alpha  occ. eigenvalues --   -0.69797  -0.69257  -0.69073  -0.68501  -0.68185
 Alpha  occ. eigenvalues --   -0.67936  -0.67083  -0.66888  -0.65436  -0.64929
 Alpha  occ. eigenvalues --   -0.64901  -0.64645  -0.64287  -0.64120  -0.63994
 Alpha  occ. eigenvalues --   -0.63908  -0.62140  -0.61688  -0.60135  -0.60009
 Alpha  occ. eigenvalues --   -0.59658  -0.59534  -0.59105  -0.58806  -0.58786
 Alpha  occ. eigenvalues --   -0.58363  -0.58331  -0.57980  -0.57650  -0.57368
 Alpha  occ. eigenvalues --   -0.56130  -0.55899  -0.55862  -0.55778  -0.55371
 Alpha  occ. eigenvalues --   -0.55100  -0.55036  -0.54786  -0.54567  -0.54042
 Alpha  occ. eigenvalues --   -0.53705  -0.53643  -0.53610  -0.53426  -0.53329
 Alpha  occ. eigenvalues --   -0.53327  -0.52922  -0.52829  -0.52750  -0.52358
 Alpha  occ. eigenvalues --   -0.51901  -0.51733  -0.51711  -0.51387  -0.51178
 Alpha  occ. eigenvalues --   -0.50914  -0.50810  -0.50783  -0.50598  -0.50344
 Alpha  occ. eigenvalues --   -0.50280  -0.50015  -0.49839  -0.49631  -0.49503
 Alpha  occ. eigenvalues --   -0.49317  -0.49262  -0.49184  -0.49036  -0.48964
 Alpha  occ. eigenvalues --   -0.48752  -0.48658  -0.48578  -0.48322  -0.48176
 Alpha  occ. eigenvalues --   -0.47872  -0.47678  -0.47410  -0.47189  -0.47143
 Alpha  occ. eigenvalues --   -0.47120  -0.46747  -0.46744  -0.46409  -0.46044
 Alpha  occ. eigenvalues --   -0.46011  -0.45898  -0.45763  -0.45536  -0.45411
 Alpha  occ. eigenvalues --   -0.45245  -0.45002  -0.44746  -0.44612  -0.44544
 Alpha  occ. eigenvalues --   -0.44462  -0.44402  -0.44313  -0.44231  -0.44070
 Alpha  occ. eigenvalues --   -0.43699  -0.43625  -0.43605  -0.43410  -0.43230
 Alpha  occ. eigenvalues --   -0.43188  -0.43049  -0.42982  -0.42912  -0.42815
 Alpha  occ. eigenvalues --   -0.42631  -0.42592  -0.42374  -0.42324  -0.42017
 Alpha  occ. eigenvalues --   -0.41890  -0.41809  -0.41540  -0.41444  -0.41255
 Alpha  occ. eigenvalues --   -0.41083  -0.40857  -0.40578  -0.40447  -0.40110
 Alpha  occ. eigenvalues --   -0.39987  -0.39174  -0.38946  -0.38940  -0.38476
 Alpha  occ. eigenvalues --   -0.38100  -0.38034  -0.37972  -0.37888  -0.37769
 Alpha  occ. eigenvalues --   -0.37368  -0.36884  -0.36460  -0.36322  -0.35892
 Alpha  occ. eigenvalues --   -0.35858  -0.35699  -0.34607  -0.34377  -0.34099
 Alpha  occ. eigenvalues --   -0.33539  -0.33135  -0.32630  -0.31775  -0.31587
 Alpha  occ. eigenvalues --   -0.31470  -0.31287  -0.30821  -0.30592  -0.30288
 Alpha  occ. eigenvalues --   -0.29996  -0.29813  -0.29326  -0.23816  -0.23806
 Alpha  occ. eigenvalues --   -0.21037  -0.20949
 Alpha virt. eigenvalues --   -0.08681  -0.08625  -0.01607  -0.01476   0.00172
 Alpha virt. eigenvalues --    0.00332   0.01175   0.01811   0.02497   0.02531
 Alpha virt. eigenvalues --    0.04528   0.05124   0.05191   0.05706   0.05858

 Mulliken charges:
               1
     1  Mg  11.999573
     2  C    6.029254
     3  C    5.987340
     4  C    5.970284
     5  C    6.011578
     6  N    7.014885
     7  C    5.961794
     8  C    6.005826
     9  C    5.987234
    10  C    6.032710
    11  C    5.997760
    12  C    6.004703
    13  C    6.000020
    14  H    0.992772
    15  N    6.990627
    16  C    6.045784
    17  C    6.017422
    18  C    6.019874
    19  C    6.036332
    20  C    5.996010
    21  C    6.014137
    22  O    8.030912
    23  C    5.991500
    24  N    6.992713
    25  C    6.037844
    26  C    5.991309
    27  C    6.012547
    28  C    5.970355
    29  C    5.997304
    30  C    6.004863
    31  C    6.001995
    32  N    7.004341
    33  C    5.958601
    34  C    5.970376
    35  C    5.997624
    36  C    5.959400
    37  C    6.004810
    38  C    5.981966
    39  O    7.972005
    40  C    5.998910
    41  C    5.996554
    42  O    7.992248
    43  O    7.999447
    44  C    6.001711
    45  H    1.013450
    46  H    1.001371
    47  H    0.988131
    48  H    1.002754
    49  H    1.007336
    50  H    0.998833
    51  H    0.999307
    52  H    1.014133
    53  H    0.989692
    54  H    1.008150
    55  H    0.996518
    56  H    1.004516
    57  H    1.018019
    58  H    1.018835
    59  H    1.018412
    60  H    1.007688
    61  H    1.007929
    62  H    1.016029
    63  H    0.998834
    64  H    0.995898
    65  H    1.009625
    66  H    1.000365
    67  H    0.994870
    68  H    1.005137
    69  H    0.989670
    70  H    0.994069
    71  H    0.994057
    72  H    1.001425
    73  H    0.980276
    74  H    0.979980
    75  H    0.977563
    76  H    0.992492
    77  H    0.999361
    78  H    0.992861
    79  H    0.997157
    80  Mg  12.000022
    81  C    5.999893
    82  C    5.999970
    83  C    6.000125
    84  C    6.000071
    85  N    6.999969
    86  C    6.000130
    87  C    5.999992
    88  C    6.000034
    89  C    5.999907
    90  C    6.000003
    91  C    5.999980
    92  C    6.000007
    93  H    1.000015
    94  N    6.999997
    95  C    5.999866
    96  C    5.999905
    97  C    5.999942
    98  C    5.999835
    99  C    6.000063
   100  C    5.999909
   101  O    7.999888
   102  C    6.000033
   103  N    6.999985
   104  C    5.999899
   105  C    6.000061
   106  C    5.999990
   107  C    6.000059
   108  C    6.000008
   109  C    5.999981
   110  C    5.999955
   111  N    7.000018
   112  C    6.000089
   113  C    6.000181
   114  C    5.999953
   115  C    6.000161
   116  C    5.999967
   117  C    6.000104
   118  O    8.000125
   119  C    6.000001
   120  C    6.000012
   121  O    7.999997
   122  O    8.000017
   123  C    5.999995
   124  H    0.999983
   125  H    0.999955
   126  H    1.000031
   127  H    0.999976
   128  H    1.000003
   129  H    0.999946
   130  H    0.999989
   131  H    0.999993
   132  H    1.000012
   133  H    0.999987
   134  H    1.000015
   135  H    1.000039
   136  H    0.999894
   137  H    0.999922
   138  H    0.999901
   139  H    0.999933
   140  H    0.999933
   141  H    0.999998
   142  H    0.999996
   143  H    0.999973
   144  H    1.000016
   145  H    0.999941
   146  H    0.999980
   147  H    1.000038
   148  H    0.999986
   149  H    1.000051
   150  H    1.000057
   151  H    0.999986
   152  H    1.000082
   153  H    1.000061
   154  H    1.000111
   155  H    1.000057
   156  H    1.000031
   157  H    1.000021
   158  H    0.999987
 Sum of Mulliken charges = 624.00000

 Dipole moment (field-independent basis, Debye):
    X=             -6.0307    Y=             -5.2156    Z=              7.7193  Tot=             11.0977
 Quadrupole moment (field-independent basis, Debye-Ang):
   XX=            314.3715   YY=              5.2114   ZZ=              0.4191
   XY=            140.2466   XZ=           -204.0582   YZ=             -6.8609

 Normal termination of Gaussian 16 at Wed Sep 22 21:02:58 2021.
