 Gaussian 16, Revision A.03,
 Gaussian 16:  ES64L-G16RevA.03 25-Dec-2016

 ----------------------------------------------------------
 #p cam-b3lyp/Def2SVP td=(nstates=5) density=(transition=1)
 ----------------------------------------------------------

 --------------------------------
 TDDFT excited states in gaussian
 --------------------------------
 Symbolic Z-matrix:
 Charge =  0 Multiplicity = 1

                         Standard orientation:
 ---------------------------------------------------------------------
 Center     Atomic      Atomic             Coordinates (Angstroms)
 Number     Number       Type             X           Y           Z
 ---------------------------------------------------------------------
      1         12           0      -24.070942   -0.715215   -0.086085
      2          6           0      -25.476014    2.312333    0.550491
      3          6           0      -22.354220    0.420432   -2.854883
      4          6           0      -22.937963   -3.897989   -0.642565
      5          6           0      -26.152676   -2.122110    2.517358
      6          7           0      -24.111399    1.094017   -1.138839
      7          6           0      -24.567809    2.320812   -0.550152
      8          6           0      -24.023551    3.487672   -1.272621
      9          6           0      -23.391418    2.791724   -2.560359
     10          6           0      -23.258585    1.326818   -2.208230
     11          6           0      -24.284826    2.981826   -3.886208
     12          6           0      -23.122791    4.426788   -0.412813
     13          6           0      -23.387291    5.888978   -0.575635
     14          1           0      -23.693401    6.380242   -2.045274
     15          7           0      -22.757889   -1.600702   -1.508889
     16          6           0      -22.200841   -0.920158   -2.550485
     17          6           0      -21.380952   -1.834351   -3.269005
     18          6           0      -21.440110   -3.121902   -2.605732
     19          6           0      -22.371787   -2.924800   -1.445133
     20          6           0      -20.672297   -1.444530   -4.584628
     21          6           0      -20.760178   -4.432388   -2.852033
     22          8           0      -20.954069   -5.516378   -2.290398
     23          6           0      -19.617624   -4.399599   -3.936432
     24          7           0      -24.566100   -2.803255    0.754906
     25          6           0      -23.891770   -3.874018    0.416890
     26          6           0      -24.138330   -5.042632    1.368828
     27          6           0      -25.169880   -4.453384    2.372864
     28          6           0      -25.332795   -3.028176    1.848224
     29          6           0      -24.678866   -6.372738    0.634311
     30          6           0      -24.543524   -4.498822    3.836024
     31          6           0      -23.323593   -3.621189    4.210248
     32          7           0      -25.644804   -0.091347    1.164895
     33          6           0      -26.319742   -0.755424    2.171709
     34          6           0      -27.122427    0.264533    2.876815
     35          6           0      -26.859962    1.488159    2.337932
     36          6           0      -25.931987    1.202741    1.271607
     37          6           0      -28.164703   -0.050052    3.893909
     38          6           0      -27.133431    2.924529    2.377432
     39          8           0      -27.870295    3.582792    3.092382
     40          6           0      -26.233155    3.492128    1.193924
     41          6           0      -27.148578    4.079784    0.194763
     42          8           0      -28.097744    3.530036   -0.390754
     43          8           0      -26.714127    5.383697    0.068607
     44          6           0      -27.357102    6.135664   -1.016922
     45          1           0      -21.754004    0.751959   -3.704582
     46          1           0      -22.447339   -4.860659   -0.804801
     47          1           0      -26.729717   -2.513560    3.356997
     48          1           0      -24.904885    4.069360   -1.545745
     49          1           0      -22.399152    3.214498   -2.714788
     50          1           0      -25.048940    3.753334   -3.791308
     51          1           0      -24.871144    2.068469   -3.985773
     52          1           0      -23.542384    3.097145   -4.674789
     53          1           0      -22.075166    4.261509   -0.664499
     54          1           0      -23.364759    4.120803    0.604893
     55          1           0      -22.531148    6.509000   -0.312678
     56          1           0      -24.151529    6.399833    0.010247
     57          1           0      -19.777229   -0.831712   -4.478461
     58          1           0      -21.474228   -0.963523   -5.144417
     59          1           0      -20.245611   -2.300142   -5.107608
     60          1           0      -20.071036   -4.318015   -4.924321
     61          1           0      -18.932992   -5.221316   -3.727084
     62          1           0      -18.919587   -3.571724   -3.810389
     63          1           0      -23.209565   -5.259971    1.895794
     64          1           0      -26.113099   -4.999035    2.400921
     65          1           0      -23.838806   -7.068132    0.623625
     66          1           0      -24.961227   -6.145425   -0.394159
     67          1           0      -25.495707   -6.940700    1.077778
     68          1           0      -24.293324   -5.495272    4.199786
     69          1           0      -25.367870   -4.093348    4.423567
     70          1           0      -23.739704   -2.949882    4.961574
     71          1           0      -22.897891   -3.103963    3.351303
     72          1           0      -22.493137   -4.179717    4.642029
     73          1           0      -28.120412    0.816441    4.552984
     74          1           0      -27.971071   -0.981509    4.426208
     75          1           0      -29.133505    0.089075    3.415933
     76          1           0      -25.724404    4.291786    1.731623
     77          1           0      -26.963147    7.140306   -0.860607
     78          1           0      -28.421144    6.146695   -0.780695
     79          1           0      -27.263782    5.703656   -2.013510
     80         12           0       24.622640   -0.564884    0.028647
     81          6           0       23.483452    2.680527    0.710060
     82          6           0       24.783034    0.297919   -3.300625
     83          6           0       25.663582   -3.634718   -0.591226
     84          6           0       24.244175   -1.308888    3.441258
     85          7           0       24.252540    1.315305   -1.082813
     86          6           0       23.767196    2.544220   -0.635351
     87          6           0       23.918702    3.700460   -1.700160
     88          6           0       24.175586    2.850232   -2.929317
     89          6           0       24.434032    1.372130   -2.420235
     90          6           0       22.881445    2.802574   -3.864296
     91          6           0       25.245925    4.461758   -1.256394
     92          6           0       25.229612    6.051713   -1.333048
     93          1           0       24.366174    6.495174   -2.486254
     94          7           0       24.993526   -1.537594   -1.680806
     95          6           0       25.007014   -1.057540   -2.921157
     96          6           0       25.407928   -2.041319   -3.891787
     97          6           0       25.846568   -3.144288   -3.132684
     98          6           0       25.449448   -2.826403   -1.709450
     99          6           0       25.429210   -1.859779   -5.365319
    100          6           0       26.634969   -4.370342   -3.544852
    101          8           0       27.168182   -5.131150   -2.729218
    102          6           0       26.705553   -4.771876   -5.020786
    103          7           0       24.862375   -2.259771    1.282455
    104          6           0       25.393379   -3.395069    0.717134
    105          6           0       25.701852   -4.390845    1.833219
    106          6           0       25.354441   -3.598556    3.186324
    107          6           0       24.842454   -2.287049    2.651386
    108          6           0       24.949117   -5.741725    1.564631
    109          6           0       26.468358   -3.468240    4.213269
    110          6           0       26.060455   -3.934965    5.645734
    111          7           0       23.973615    0.457563    1.720758
    112          6           0       23.851375    0.010085    3.073701
    113          6           0       23.326022    1.045035    3.890626
    114          6           0       23.175609    2.107770    2.983873
    115          6           0       23.535063    1.667975    1.692976
    116          6           0       23.037874    1.080419    5.356967
    117          6           0       22.782862    3.473817    2.847384
    118          8           0       22.340957    4.283307    3.628530
    119          6           0       23.079710    3.907413    1.383946
    120          6           0       21.892038    4.615961    0.841403
    121          8           0       20.804466    4.133228    0.538767
    122          8           0       22.244218    5.895662    0.684148
    123          6           0       21.264824    6.776427    0.082982
    124          1           0       25.009722    0.473511   -4.354178
    125          1           0       26.001707   -4.637388   -0.864628
    126          1           0       24.170075   -1.476524    4.517824
    127          1           0       23.040744    4.329433   -1.556185
    128          1           0       25.057114    3.210419   -3.458615
    129          1           0       22.044367    3.360923   -3.444729
    130          1           0       22.587153    1.760432   -3.987028
    131          1           0       23.225679    3.219750   -4.810705
    132          1           0       26.120239    4.180750   -1.842767
    133          1           0       25.458465    4.129044   -0.240071
    134          1           0       26.201546    6.429692   -1.650399
    135          1           0       25.112227    6.498916   -0.345627
    136          1           0       26.479051   -1.858126   -5.661608
    137          1           0       25.002473   -0.900483   -5.654816
    138          1           0       24.906276   -2.648018   -5.906094
    139          1           0       26.992012   -5.817404   -4.909503
    140          1           0       27.411903   -4.183037   -5.607159
    141          1           0       25.766084   -4.821984   -5.570903
    142          1           0       26.742912   -4.703835    1.912266
    143          1           0       24.515271   -4.099490    3.669155
    144          1           0       25.684569   -6.526762    1.740857
    145          1           0       24.496354   -5.807817    0.575269
    146          1           0       24.259119   -5.977558    2.375665
    147          1           0       26.887116   -2.465758    4.295650
    148          1           0       27.191430   -4.227286    3.911414
    149          1           0       25.069441   -4.389010    5.635725
    150          1           0       25.893331   -3.089091    6.312260
    151          1           0       26.775957   -4.652628    6.047658
    152          1           0       24.045224    1.153240    5.767832
    153          1           0       22.469285    0.178601    5.582908
    154          1           0       22.506103    1.982499    5.656290
    155          1           0       23.847805    4.672369    1.505411
    156          1           0       20.324772    6.717800    0.632298
    157          1           0       20.962711    6.550142   -0.940132
    158          1           0       21.678984    7.782183    0.156138
 ---------------------------------------------------------------------

 SCF Done:  E(RCAM-B3LYP) =  -4069.83144982     A.U. after   19 cycles

 Excitation energies and oscillator strengths:

 Excited State   1:      Singlet-A      1.6991 eV  729.70 nm  f=0.3780  <S**2>=0.000
     309 -> 315        0.18621
     312 -> 314        0.68410
     309 <- 315        0.10902
 This state for optimization and/or second-order correction.
 Total Energy, E(TD-HF/TD-DFT) =  -4069.76900859
 Copying the excited state density for this state as the 1-particle RhoCI density.

 Excited State   2:      Singlet-A      1.7259 eV  718.39 nm  f=0.3865  <S**2>=0.000
     310 -> 316       -0.16129
     311 -> 313        0.68777

 Excited State   3:      Singlet-A      2.2666 eV  547.01 nm  f=0.0449  <S**2>=0.000
     309 -> 314        0.60928
     312 -> 315       -0.34927

 Excited State   4:      Singlet-A      2.2842 eV  542.80 nm  f=0.1222  <S**2>=0.000
     310 -> 313        0.63701
     311 -> 316        0.28303

 Excited State   5:      Singlet-A      3.1748 eV  390.52 nm  f=0.0000  <S**2>=0.000
     312 -> 313        0.70711

 The electronic state is 1-A.
 Alpha  occ. eigenvalues --  -46.89256 -46.87781 -19.25657 -19.25274 -19.20262
 Alpha  occ. eigenvalues --  -19.19931 -19.19559 -19.19504 -19.18808 -19.17418
 Alpha  occ. eigenvalues --  -14.42298 -14.42253 -14.42198 -14.41632 -14.40234
 Alpha  occ. eigenvalues --  -14.39507 -14.39488 -14.38481 -10.39525 -10.38328
 Alpha  occ. eigenvalues --  -10.36247 -10.35711 -10.35413 -10.33167 -10.31987
 Alpha  occ. eigenvalues --  -10.31917 -10.31838 -10.31779 -10.31381 -10.31026
 Alpha  occ. eigenvalues --  -10.30875 -10.30693 -10.30640 -10.30462 -10.30341
 Alpha  occ. eigenvalues --  -10.30182 -10.30128 -10.29900 -10.29595 -10.29241
 Alpha  occ. eigenvalues --  -10.29089 -10.29078 -10.29021 -10.28925 -10.28823
 Alpha  occ. eigenvalues --  -10.28452 -10.28352 -10.28339 -10.28337 -10.28135
 Alpha  occ. eigenvalues --  -10.27991 -10.27892 -10.27845 -10.27840 -10.27762
 Alpha  occ. eigenvalues --  -10.27590 -10.27562 -10.27562 -10.27541 -10.27538
 Alpha  occ. eigenvalues --  -10.27499 -10.27420 -10.27383 -10.27356 -10.27158
 Alpha  occ. eigenvalues --  -10.27108 -10.27086 -10.26708 -10.26643 -10.26594
 Alpha  occ. eigenvalues --  -10.26546 -10.26496 -10.26235 -10.26233 -10.26176
 Alpha  occ. eigenvalues --  -10.26045 -10.25900 -10.25853 -10.25848 -10.25812
 Alpha  occ. eigenvalues --  -10.25721 -10.25576 -10.25495 -10.25435 -10.24736
 Alpha  occ. eigenvalues --  -10.23596  -3.17660  -3.16491  -1.92563  -1.92105
 Alpha  occ. eigenvalues --   -1.91961  -1.91400  -1.90926  -1.90822  -1.17115
 Alpha  occ. eigenvalues --   -1.15968  -1.10368  -1.10203  -1.09611  -1.09382
 Alpha  occ. eigenvalues --   -1.07478  -1.07098  -1.05133  -1.04997  -1.03926
 Alpha  occ. eigenvalues --   -1.03783  -1.02934  -1.02898  -1.02357  -1.01719
 Alpha  occ. eigenvalues --   -0.92664  -0.92383  -0.89656  -0.89106  -0.88799
 Alpha  occ. eigenvalues --   -0.88495  -0.88434  -0.88012  -0.87989  -0.87284
 Alpha  occ. eigenvalues --   -0.87045  -0.86915  -0.86648  -0.86255  -0.84655
 Alpha  occ. eigenvalues --   -0.83968  -0.83540  -0.83380  -0.82423  -0.82366
 Alpha  occ. eigenvalues --   -0.81856  -0.81543  -0.81285  -0.81214  -0.80391
 Alpha  occ. eigenvalues --   -0.79972  -0.78919  -0.78091  -0.77437  -0.77364
 Alpha  occ. eigenvalues --   -0.77208  -0.76778  -0.75810  -0.75614  -0.74991
 Alpha  occ. eigenvalues --   -0.74983  -0.73115  -0.72473  -0.72184  -0.71417
 Alpha  occ. eigenvalues --   -0.69874  -0.69268  -0.69198  -0.68883  -0.68357
 Alpha  occ. eigenvalues --   -0.67620  -0.67439  -0.67403  -0.65427  -0.65256
 Alpha  occ. eigenvalues --   -0.65241  -0.65027  -0.65007  -0.64711  -0.64518
 Alpha  occ. eigenvalues --   -0.64398  -0.62543  -0.62488  -0.60801  -0.60307
 Alpha  occ. eigenvalues --   -0.59607  -0.59426  -0.59152  -0.58923  -0.58783
 Alpha  occ. eigenvalues --   -0.58641  -0.57980  -0.57778  -0.57490  -0.57313
 Alpha  occ. eigenvalues --   -0.56654  -0.55931  -0.55677  -0.55544  -0.55341
 Alpha  occ. eigenvalues --   -0.55073  -0.54884  -0.54474  -0.54427  -0.53837
 Alpha  occ. eigenvalues --   -0.53550  -0.53546  -0.53198  -0.53177  -0.53160
 Alpha  occ. eigenvalues --   -0.52607  -0.52555  -0.52401  -0.52292  -0.52167
 Alpha  occ. eigenvalues --   -0.52135  -0.51949  -0.51785  -0.51509  -0.51328
 Alpha  occ. eigenvalues --   -0.51061  -0.51047  -0.50896  -0.50747  -0.50425
 Alpha  occ. eigenvalues --   -0.50312  -0.49994  -0.49862  -0.49659  -0.49651
 Alpha  occ. eigenvalues --   -0.49341  -0.49273  -0.48924  -0.48646  -0.48590
 Alpha  occ. eigenvalues --   -0.48534  -0.48525  -0.48480  -0.48429  -0.48126
 Alpha  occ. eigenvalues --   -0.47911  -0.47704  -0.47688  -0.47551  -0.47389
 Alpha  occ. eigenvalues --   -0.47245  -0.47190  -0.46851  -0.46753  -0.46751
 Alpha  occ. eigenvalues --   -0.46574  -0.46407  -0.46145  -0.46090  -0.45882
 Alpha  occ. eigenvalues --   -0.45623  -0.45286  -0.45194  -0.45076  -0.44778
 Alpha  occ. eigenvalues --   -0.44719  -0.44567  -0.44539  -0.44461  -0.44303
 Alpha  occ. eigenvalues --   -0.43915  -0.43704  -0.43672  -0.43467  -0.43224
 Alpha  occ. eigenvalues --   -0.43095  -0.42993  -0.42914  -0.42861  -0.42775
 Alpha  occ. eigenvalues --   -0.42626  -0.42359  -0.42313  -0.42143  -0.42109
 Alpha  occ. eigenvalues --   -0.41952  -0.41942  -0.41693  -0.41586  -0.41542
 Alpha  occ. eigenvalues --   -0.41127  -0.40827  -0.40748  -0.40545  -0.40389
 Alpha  occ. eigenvalues --   -0.40075  -0.39797  -0.39746  -0.39521  -0.38823
 Alpha  occ. eigenvalues --   -0.38287  -0.37876  -0.37641  -0.37499  -0.37429
 Alpha  occ. eigenvalues --   -0.37150  -0.36923  -0.36728  -0.36480  -0.36400
 Alpha  occ. eigenvalues --   -0.36323  -0.36265  -0.34673  -0.34251  -0.34214
 Alpha  occ. eigenvalues --   -0.33858  -0.33484  -0.32820  -0.32277  -0.31403
 Alpha  occ. eigenvalues --   -0.31225  -0.31116  -0.30988  -0.30912  -0.30383
 Alpha  occ. eigenvalues --   -0.29886  -0.29697  -0.29278  -0.24415  -0.24135
 Alpha  occ. eigenvalues --   -0.21069  -0.20960
 Alpha virt. eigenvalues --   -0.08595  -0.08490  -0.02360  -0.01709  -0.00246
 Alpha virt. eigenvalues --    0.00509   0.01947   0.02168   0.02802   0.03402
 Alpha virt. eigenvalues --    0.04729   0.04935   0.05436   0.05555   0.05870

 Mulliken charges:
               1
     1  Mg  12.002862
     2  C    6.028366
     3  C    5.972519
     4  C    5.990205
     5  C    6.022073
     6  N    7.002852
     7  C    5.959022
     8  C    6.013554
     9  C    5.988576
    10  C    6.038546
    11  C    5.998303
    12  C    6.002544
    13  C    6.004282
    14  H    0.990853
    15  N    6.986805
    16  C    6.045222
    17  C    6.020046
    18  C    6.019216
    19  C    6.032163
    20  C    5.998781
    21  C    6.011060
    22  O    8.030521
    23  C    5.994937
    24  N    7.002477
    25  C    6.030568
    26  C    5.988985
    27  C    6.012417
    28  C    5.965673
    29  C    5.998639
    30  C    6.002666
    31  C    6.005236
    32  N    7.006682
    33  C    5.947605
    34  C    5.974473
    35  C    5.995423
    36  C    5.961665
    37  C    6.003341
    38  C    5.983527
    39  O    7.972522
    40  C    5.997134
    41  C    5.996652
    42  O    7.996283
    43  O    7.998329
    44  C    6.002085
    45  H    1.007064
    46  H    1.007054
    47  H    0.991030
    48  H    0.998315
    49  H    1.001525
    50  H    1.015099
    51  H    1.000530
    52  H    0.999362
    53  H    0.986815
    54  H    1.005423
    55  H    0.996145
    56  H    1.003334
    57  H    1.021240
    58  H    1.015575
    59  H    1.014175
    60  H    1.008941
    61  H    1.014695
    62  H    1.007896
    63  H    1.001187
    64  H    0.997383
    65  H    0.998367
    66  H    0.997078
    67  H    1.010479
    68  H    0.989558
    69  H    1.004751
    70  H    1.005904
    71  H    0.990481
    72  H    0.992700
    73  H    0.983465
    74  H    0.980361
    75  H    0.978582
    76  H    0.992655
    77  H    0.995499
    78  H    0.998672
    79  H    0.992972
    80  Mg  12.000005
    81  C    5.999744
    82  C    6.000002
    83  C    6.000266
    84  C    5.999960
    85  N    6.999888
    86  C    6.000249
    87  C    5.999980
    88  C    6.000014
    89  C    5.999901
    90  C    6.000028
    91  C    5.999988
    92  C    5.999987
    93  H    1.000013
    94  N    7.000049
    95  C    5.999822
    96  C    5.999830
    97  C    5.999953
    98  C    5.999715
    99  C    6.000078
   100  C    5.999916
   101  O    7.999855
   102  C    6.000062
   103  N    7.000064
   104  C    5.999724
   105  C    6.000086
   106  C    5.999933
   107  C    6.000128
   108  C    6.000020
   109  C    5.999953
   110  C    5.999988
   111  N    7.000026
   112  C    6.000173
   113  C    6.000194
   114  C    5.999993
   115  C    6.000200
   116  C    5.999984
   117  C    6.000114
   118  O    8.000195
   119  C    6.000035
   120  C    6.000025
   121  O    7.999991
   122  O    8.000017
   123  C    5.999994
   124  H    0.999923
   125  H    0.999971
   126  H    1.000112
   127  H    0.999962
   128  H    1.000002
   129  H    0.999897
   130  H    0.999993
   131  H    0.999974
   132  H    1.000075
   133  H    0.999973
   134  H    1.000048
   135  H    0.999995
   136  H    0.999906
   137  H    0.999886
   138  H    0.999858
   139  H    0.999925
   140  H    0.999969
   141  H    0.999920
   142  H    1.000003
   143  H    1.000004
   144  H    0.999998
   145  H    1.000002
   146  H    0.999932
   147  H    1.000013
   148  H    1.000084
   149  H    0.999994
   150  H    0.999998
   151  H    1.000061
   152  H    1.000126
   153  H    1.000069
   154  H    1.000082
   155  H    1.000051
   156  H    0.999986
   157  H    1.000012
   158  H    1.000049
 Sum of Mulliken charges = 624.00000

 Dipole moment (field-independent basis, Debye):
    X=              6.9029    Y=             -4.6527    Z=             -6.9294  Tot=             10.8312
 Quadrupole moment (field-independent basis, Debye-Ang):
   XX=           -335.2888   YY=              5.6306   ZZ=              2.8986
   XY=            107.4802   XZ=            168.5451   YZ=              7.5858

 Normal termination of Gaussian 16 at Tue Sep 21 18:42:34 2021.
