 Gaussian 16, Revision A.03,
 Gaussian 16:  ES64L-G16RevA.03 25-Dec-2016

 -----------------------------------
 #p cam-b3lyp/Def2SVP td=(nstates=5)
 -----------------------------------

 --------------------------------
 TDDFT excited states in gaussian
 --------------------------------
 Symbolic Z-matrix:
 Charge =  0 Multiplicity = 1

                         Standard orientation:
 ---------------------------------------------------------------------
 Center     Atomic      Atomic             Coordinates (Angstroms)
 Number     Number       Type             X           Y           Z
 ---------------------------------------------------------------------
      1         12           0       11.236591    0.750129   -0.068252
      2          6           0       12.266606   -2.559069    0.676729
      3          6           0        8.394945    0.131000    1.683703
      4          6           0       10.668480    4.102196   -0.085102
      5          6           0       14.402484    1.336189   -1.351371
      6          7           0       10.596010   -1.035451    1.159724
      7          6           0       11.083658   -2.311318    1.261918
      8          6           0       10.161861   -3.201768    2.009140
      9          6           0        8.788417   -2.379398    2.015488
     10          6           0        9.265392   -1.024057    1.618806
     11          6           0        7.763355   -2.980401    1.067317
     12          6           0       10.814891   -3.497547    3.368437
     13          6           0       10.999874   -5.019142    3.778856
     14          1           0       10.434310   -5.570318    5.122376
     15          7           0        9.749565    1.995773    0.630087
     16          6           0        8.598310    1.506793    1.262961
     17          6           0        7.678620    2.596691    1.394267
     18          6           0        8.307204    3.797183    0.919584
     19          6           0        9.608310    3.308978    0.389187
     20          6           0        6.278942    2.373689    1.952449
     21          6           0        7.771460    5.211448    0.910200
     22          8           0        6.564510    5.295118    1.279994
     23          6           0        8.529306    6.537164    0.617009
     24          7           0       12.371972    2.519522   -0.649787
     25          6           0       11.898488    3.783612   -0.588150
     26          6           0       12.928280    4.845505   -1.056795
     27          6           0       14.093116    3.930594   -1.570380
     28          6           0       13.602355    2.479389   -1.105566
     29          6           0       12.305487    5.723044   -2.127775
     30          6           0       15.447554    4.238617   -1.008787
     31          6           0       16.415521    4.788220   -2.021162
     32          7           0       12.907182   -0.325420   -0.473477
     33          6           0       14.144636   -0.015049   -1.051528
     34          6           0       14.883442   -1.140348   -1.323449
     35          6           0       14.168813   -2.180040   -0.694190
     36          6           0       13.024799   -1.619748   -0.130513
     37          6           0       16.095407   -1.150548   -2.230856
     38          6           0       14.143654   -3.653131   -0.491928
     39          8           0       14.907685   -4.481431   -0.880074
     40          6           0       12.923896   -3.855483    0.484556
     41          6           0       12.199594   -5.104623    0.032143
     42          8           0       12.267844   -6.196432    0.596715
     43          8           0       11.394180   -4.824218   -1.098314
     44          6           0       10.576476   -5.969056   -1.498238
     45          1           0        7.393645   -0.112663    2.045624
     46          1           0       10.487688    5.173304   -0.202102
     47          1           0       15.468478    1.485760   -1.531547
     48          1           0       10.044505   -4.139654    1.466131
     49          1           0        8.377129   -2.415142    3.023929
     50          1           0        8.202242   -3.366875    0.148495
     51          1           0        7.096323   -2.183700    0.736333
     52          1           0        7.124715   -3.733042    1.529615
     53          1           0       10.206811   -3.005535    4.127420
     54          1           0       11.771216   -2.995895    3.516404
     55          1           0       12.088295   -5.068846    3.819367
     56          1           0       10.777666   -5.674798    2.937753
     57          1           0        6.315236    1.829921    2.896442
     58          1           0        5.760806    1.749182    1.224794
     59          1           0        5.700387    3.255943    2.229740
     60          1           0        8.733737    6.473418   -0.451274
     61          1           0        9.453682    6.542842    1.194705
     62          1           0        7.951010    7.419844    0.891342
     63          1           0       13.265884    5.516431   -0.267274
     64          1           0       14.071948    3.879267   -2.658663
     65          1           0       11.350977    6.084201   -1.744548
     66          1           0       12.141083    5.109957   -3.014468
     67          1           0       12.883731    6.544028   -2.550018
     68          1           0       15.961572    3.366982   -0.603638
     69          1           0       15.484148    4.930513   -0.167565
     70          1           0       16.804441    5.729360   -1.634410
     71          1           0       15.935844    5.055672   -2.962693
     72          1           0       17.215893    4.099866   -2.294681
     73          1           0       16.248853   -2.192482   -2.513639
     74          1           0       16.988345   -0.773085   -1.733144
     75          1           0       15.818637   -0.509088   -3.067235
     76          1           0       13.423118   -4.175174    1.399987
     77          1           0        9.673008   -5.633683   -2.007701
     78          1           0       10.166246   -6.486443   -0.632148
     79          1           0       11.123455   -6.696424   -2.098744
     80         12           0      -11.821240    0.380048   -0.401098
     81          6           0       -9.508725   -2.214393   -0.280443
     82          6           0      -14.336321   -2.000373   -0.223207
     83          6           0      -14.095011    2.737246    0.044764
     84          6           0       -9.239623    2.661345   -0.070245
     85          7           0      -11.919622   -1.820659   -0.105279
     86          6           0      -10.850898   -2.685243   -0.224520
     87          6           0      -11.269911   -4.124403   -0.284101
     88          6           0      -12.814707   -3.992991   -0.646906
     89          6           0      -13.080015   -2.540179   -0.275144
     90          6           0      -13.408328   -4.514513   -2.040722
     91          6           0      -10.925162   -4.992621    1.013342
     92          6           0      -10.937731   -4.269930    2.393198
     93          1           0      -11.563542   -5.072275    3.508637
     94          7           0      -13.922791    0.378245   -0.007391
     95          6           0      -14.783608   -0.726242    0.010517
     96          6           0      -16.130711   -0.339980    0.329507
     97          6           0      -16.092463    1.070498    0.439830
     98          6           0      -14.679048    1.482565    0.190003
     99          6           0      -17.271294   -1.352308    0.212470
    100          6           0      -17.364533    1.898948    0.730762
    101          8           0      -18.451884    1.366504    0.975572
    102          6           0      -17.215459    3.359499    0.643015
    103          7           0      -11.618899    2.385510    0.057823
    104          6           0      -12.739270    3.186281   -0.087148
    105          6           0      -12.407097    4.694686   -0.077927
    106          6           0      -10.840647    4.581688    0.126156
    107          6           0      -10.539573    3.149587    0.088075
    108          6           0      -12.785646    5.538360   -1.254088
    109          6           0      -10.345006    5.192118    1.533332
    110          6           0       -9.137027    6.072826    1.347261
    111          7           0       -9.738399    0.316625   -0.404253
    112          6           0       -8.817448    1.337754   -0.260564
    113          6           0       -7.444501    0.782995   -0.268945
    114          6           0       -7.673490   -0.636952   -0.279702
    115          6           0       -9.057281   -0.833710   -0.355245
    116          6           0       -6.147255    1.434356   -0.008688
    117          6           0       -7.079985   -1.988068   -0.190237
    118          8           0       -5.926934   -2.308657   -0.016794
    119          6           0       -8.228933   -3.046508   -0.228453
    120          6           0       -8.015047   -3.989057   -1.327256
    121          8           0       -7.831975   -5.206376   -1.302120
    122          8           0       -7.757537   -3.213320   -2.487919
    123          6           0       -7.569117   -3.982793   -3.736405
    124          1           0      -15.084648   -2.771029   -0.422154
    125          1           0      -14.756924    3.604028   -0.007940
    126          1           0       -8.500860    3.464236   -0.040905
    127          1           0      -10.734777   -4.640232   -1.081302
    128          1           0      -13.251102   -4.613647    0.136088
    129          1           0      -12.709284   -5.048428   -2.684195
    130          1           0      -13.761402   -3.716629   -2.693907
    131          1           0      -14.140811   -5.298536   -1.846727
    132          1           0       -9.985633   -5.527299    0.877605
    133          1           0      -11.657649   -5.799441    1.036720
    134          1           0      -11.432275   -3.301159    2.316107
    135          1           0       -9.915651   -4.068239    2.712596
    136          1           0      -18.092667   -1.172345    0.906774
    137          1           0      -16.905918   -2.336593    0.504188
    138          1           0      -17.639159   -1.264861   -0.810118
    139          1           0      -17.072826    3.630019   -0.402780
    140          1           0      -16.388380    3.683800    1.275357
    141          1           0      -18.162662    3.759999    1.004158
    142          1           0      -12.760172    5.098582    0.871206
    143          1           0      -10.455186    4.981305   -0.811814
    144          1           0      -12.271298    6.489184   -1.113556
    145          1           0      -13.845901    5.769548   -1.151376
    146          1           0      -12.550144    5.022976   -2.185982
    147          1           0      -10.158750    4.340451    2.187477
    148          1           0      -11.085338    5.723929    2.132320
    149          1           0       -8.283229    5.565869    1.796203
    150          1           0       -9.168535    6.960099    1.980474
    151          1           0       -8.909870    6.168450    0.285687
    152          1           0       -6.183654    2.508409    0.179452
    153          1           0       -5.565382    1.311889   -0.921551
    154          1           0       -5.891248    0.979781    0.948140
    155          1           0       -8.171394   -3.544319    0.739238
    156          1           0       -8.179766   -3.417896   -4.441680
    157          1           0       -7.859412   -5.031511   -3.800433
    158          1           0       -6.552629   -3.742851   -4.048854
 ---------------------------------------------------------------------

 SCF Done:  E(RCAM-B3LYP) =  -4069.80877116     A.U. after   19 cycles

 Excitation energies and oscillator strengths:

 Excited State   1:      Singlet-A      1.6829 eV  736.75 nm  f=0.4567  <S**2>=0.000
     309 -> 316       -0.17179
     311 -> 313        0.67993
     309 <- 316       -0.10671
 This state for optimization and/or second-order correction.
 Total Energy, E(TD-HF/TD-DFT) =  -4069.74692732
 Copying the excited state density for this state as the 1-particle RhoCI density.

 Excited State   2:      Singlet-A      1.7184 eV  721.53 nm  f=0.2915  <S**2>=0.000
     310 -> 315        0.18006
     312 -> 314        0.67663
     310 <- 315        0.10397

 Excited State   3:      Singlet-A      2.2043 eV  562.47 nm  f=0.0765  <S**2>=0.000
     310 -> 314        0.62897
     312 -> 315       -0.30450

 Excited State   4:      Singlet-A      2.2194 eV  558.65 nm  f=0.1675  <S**2>=0.000
     309 -> 313        0.64787
     311 -> 316        0.26631

 Excited State   5:      Singlet-A      2.8392 eV  436.68 nm  f=0.0000  <S**2>=0.000
     312 -> 313        0.70702

 The electronic state is 1-A.
 Alpha  occ. eigenvalues --  -46.89115 -46.88946 -19.25546 -19.24373 -19.20930
 Alpha  occ. eigenvalues --  -19.20568 -19.19791 -19.19033 -19.18842 -19.18260
 Alpha  occ. eigenvalues --  -14.42305 -14.42246 -14.42215 -14.42170 -14.40029
 Alpha  occ. eigenvalues --  -14.39654 -14.39195 -14.38936 -10.40276 -10.39761
 Alpha  occ. eigenvalues --  -10.35621 -10.35415 -10.35139 -10.35115 -10.31915
 Alpha  occ. eigenvalues --  -10.31631 -10.31570 -10.31335 -10.31196 -10.31067
 Alpha  occ. eigenvalues --  -10.30804 -10.30689 -10.30645 -10.30612 -10.30573
 Alpha  occ. eigenvalues --  -10.30480 -10.30199 -10.30087 -10.29364 -10.28994
 Alpha  occ. eigenvalues --  -10.28971 -10.28801 -10.28688 -10.28557 -10.28480
 Alpha  occ. eigenvalues --  -10.28479 -10.28447 -10.28444 -10.28425 -10.28366
 Alpha  occ. eigenvalues --  -10.28362 -10.28258 -10.28251 -10.28225 -10.28170
 Alpha  occ. eigenvalues --  -10.28115 -10.28078 -10.27945 -10.27672 -10.27670
 Alpha  occ. eigenvalues --  -10.27414 -10.27344 -10.27309 -10.27237 -10.27155
 Alpha  occ. eigenvalues --  -10.27147 -10.27145 -10.26973 -10.26970 -10.26925
 Alpha  occ. eigenvalues --  -10.26885 -10.26736 -10.26702 -10.26462 -10.26461
 Alpha  occ. eigenvalues --  -10.26243 -10.26215 -10.26066 -10.26030 -10.25972
 Alpha  occ. eigenvalues --  -10.25919 -10.25736 -10.25398 -10.25287 -10.25176
 Alpha  occ. eigenvalues --  -10.25021  -3.17641  -3.17510  -1.92525  -1.92390
 Alpha  occ. eigenvalues --   -1.92111  -1.91971  -1.91934  -1.91815  -1.15509
 Alpha  occ. eigenvalues --   -1.14849  -1.11979  -1.10384  -1.09381  -1.07872
 Alpha  occ. eigenvalues --   -1.07586  -1.06931  -1.05198  -1.05079  -1.04209
 Alpha  occ. eigenvalues --   -1.03729  -1.03293  -1.03195  -1.02690  -1.02354
 Alpha  occ. eigenvalues --   -0.93251  -0.92481  -0.89897  -0.89656  -0.89265
 Alpha  occ. eigenvalues --   -0.89231  -0.88977  -0.87997  -0.87795  -0.87680
 Alpha  occ. eigenvalues --   -0.86953  -0.86887  -0.86194  -0.85892  -0.84838
 Alpha  occ. eigenvalues --   -0.84787  -0.84462  -0.84224  -0.82731  -0.82565
 Alpha  occ. eigenvalues --   -0.82399  -0.81903  -0.80857  -0.80647  -0.80426
 Alpha  occ. eigenvalues --   -0.80167  -0.78323  -0.77759  -0.77514  -0.77408
 Alpha  occ. eigenvalues --   -0.76862  -0.76817  -0.76432  -0.76238  -0.75758
 Alpha  occ. eigenvalues --   -0.75445  -0.73467  -0.72653  -0.72160  -0.72152
 Alpha  occ. eigenvalues --   -0.69440  -0.69357  -0.69356  -0.68944  -0.68101
 Alpha  occ. eigenvalues --   -0.67641  -0.67181  -0.66839  -0.66419  -0.66311
 Alpha  occ. eigenvalues --   -0.65626  -0.65291  -0.64914  -0.64871  -0.64524
 Alpha  occ. eigenvalues --   -0.64013  -0.63053  -0.62566  -0.60478  -0.60285
 Alpha  occ. eigenvalues --   -0.60023  -0.59541  -0.59390  -0.58953  -0.58906
 Alpha  occ. eigenvalues --   -0.58299  -0.58003  -0.57543  -0.57268  -0.56826
 Alpha  occ. eigenvalues --   -0.56331  -0.56174  -0.55832  -0.55765  -0.55571
 Alpha  occ. eigenvalues --   -0.55362  -0.55116  -0.54887  -0.54625  -0.54282
 Alpha  occ. eigenvalues --   -0.53916  -0.53838  -0.53548  -0.53144  -0.52912
 Alpha  occ. eigenvalues --   -0.52722  -0.52641  -0.52637  -0.52235  -0.52185
 Alpha  occ. eigenvalues --   -0.51999  -0.51988  -0.51669  -0.51624  -0.51125
 Alpha  occ. eigenvalues --   -0.51060  -0.50853  -0.50804  -0.50505  -0.50486
 Alpha  occ. eigenvalues --   -0.50285  -0.50235  -0.49984  -0.49807  -0.49642
 Alpha  occ. eigenvalues --   -0.49593  -0.49564  -0.49285  -0.48872  -0.48839
 Alpha  occ. eigenvalues --   -0.48584  -0.48583  -0.48304  -0.48288  -0.48187
 Alpha  occ. eigenvalues --   -0.47917  -0.47752  -0.47685  -0.47266  -0.47157
 Alpha  occ. eigenvalues --   -0.46930  -0.46835  -0.46556  -0.46513  -0.46404
 Alpha  occ. eigenvalues --   -0.46285  -0.46225  -0.45957  -0.45844  -0.45744
 Alpha  occ. eigenvalues --   -0.45686  -0.45423  -0.45397  -0.45241  -0.45128
 Alpha  occ. eigenvalues --   -0.45094  -0.44994  -0.44986  -0.44808  -0.44699
 Alpha  occ. eigenvalues --   -0.44661  -0.44000  -0.43935  -0.43918  -0.43595
 Alpha  occ. eigenvalues --   -0.43427  -0.43239  -0.43218  -0.43129  -0.42759
 Alpha  occ. eigenvalues --   -0.42593  -0.42497  -0.42440  -0.42370  -0.42356
 Alpha  occ. eigenvalues --   -0.42143  -0.42029  -0.41973  -0.41719  -0.41691
 Alpha  occ. eigenvalues --   -0.41675  -0.41525  -0.41351  -0.41236  -0.41033
 Alpha  occ. eigenvalues --   -0.40474  -0.40082  -0.39990  -0.39119  -0.38982
 Alpha  occ. eigenvalues --   -0.38709  -0.38519  -0.38165  -0.37987  -0.37740
 Alpha  occ. eigenvalues --   -0.37438  -0.37265  -0.37178  -0.36902  -0.36574
 Alpha  occ. eigenvalues --   -0.36352  -0.35687  -0.35341  -0.35169  -0.34822
 Alpha  occ. eigenvalues --   -0.34644  -0.33331  -0.33129  -0.31686  -0.31284
 Alpha  occ. eigenvalues --   -0.31214  -0.31062  -0.30835  -0.30540  -0.29968
 Alpha  occ. eigenvalues --   -0.29961  -0.29732  -0.29667  -0.24351  -0.24107
 Alpha  occ. eigenvalues --   -0.21583  -0.21225
 Alpha virt. eigenvalues --   -0.09267  -0.08677  -0.02256  -0.01775   0.00287
 Alpha virt. eigenvalues --    0.00618   0.01702   0.01864   0.02467   0.02514
 Alpha virt. eigenvalues --    0.04058   0.04222   0.04940   0.05100   0.05784

 Mulliken charges:
               1
     1  Mg   0.834316
     2  C    0.054487
     3  C   -0.069342
     4  C   -0.042861
     5  C   -0.089616
     6  N   -0.294821
     7  C   -0.091683
     8  C   -0.014619
     9  C   -0.026379
    10  C    0.046669
    11  C    0.077898
    12  C    0.043257
    13  C   -0.061128
    14  H    0.032034
    15  N   -0.389562
    16  C    0.137797
    17  C   -0.128846
    18  C   -0.023835
    19  C    0.152929
    20  C    0.116377
    21  C   -0.020056
    22  O   -0.248556
    23  C    0.085872
    24  N   -0.230577
    25  C   -0.019126
    26  C    0.006748
    27  C   -0.010785
    28  C    0.025320
    29  C    0.055097
    30  C    0.043262
    31  C   -0.008544
    32  N   -0.375669
    33  C    0.100480
    34  C   -0.183056
    35  C   -0.033755
    36  C    0.116648
    37  C    0.133506
    38  C    0.043053
    39  O   -0.120592
    40  C    0.002844
    41  C    0.187352
    42  O   -0.212229
    43  O   -0.363388
    44  C    0.179844
    45  H   -0.017939
    46  H   -0.076223
    47  H   -0.016431
    48  H    0.012830
    49  H    0.011127
    50  H    0.015939
    51  H    0.003596
    52  H    0.024765
    53  H    0.007043
    54  H    0.023568
    55  H    0.028126
    56  H    0.033192
    57  H    0.012752
    58  H    0.024570
    59  H    0.039967
    60  H    0.042508
    61  H    0.043361
    62  H    0.036110
    63  H    0.016111
    64  H    0.018726
    65  H    0.011079
    66  H    0.003341
    67  H    0.016136
    68  H    0.007521
    69  H    0.001094
    70  H    0.008967
    71  H    0.000819
    72  H    0.018397
    73  H    0.037223
    74  H    0.028628
    75  H    0.024861
    76  H    0.038843
    77  H    0.029160
    78  H    0.028432
    79  H    0.045034
    80  Mg   0.819819
    81  C   -0.025048
    82  C   -0.097621
    83  C   -0.086956
    84  C   -0.094093
    85  N   -0.283900
    86  C   -0.030031
    87  C   -0.040861
    88  C    0.002007
    89  C    0.000884
    90  C    0.064184
    91  C    0.029225
    92  C   -0.076360
    93  H    0.023199
    94  N   -0.359606
    95  C    0.167006
    96  C   -0.136608
    97  C   -0.064242
    98  C    0.184917
    99  C    0.126752
   100  C    0.000340
   101  O   -0.204519
   102  C    0.054773
   103  N   -0.295296
   104  C   -0.001595
   105  C   -0.034003
   106  C   -0.063451
   107  C    0.012381
   108  C    0.107177
   109  C    0.036480
   110  C    0.030360
   111  N   -0.342697
   112  C    0.151408
   113  C   -0.189503
   114  C   -0.004941
   115  C    0.088769
   116  C    0.130619
   117  C    0.030271
   118  O   -0.149486
   119  C    0.028503
   120  C    0.222559
   121  O   -0.208470
   122  O   -0.379673
   123  C    0.180182
   124  H   -0.029671
   125  H   -0.042277
   126  H   -0.043737
   127  H    0.010421
   128  H    0.006338
   129  H    0.011159
   130  H    0.026807
   131  H    0.022145
   132  H    0.028550
   133  H    0.010438
   134  H    0.047674
   135  H    0.030567
   136  H    0.035835
   137  H    0.016211
   138  H    0.041119
   139  H    0.048731
   140  H    0.045021
   141  H    0.024335
   142  H    0.004713
   143  H    0.008101
   144  H    0.019878
   145  H    0.014462
   146  H    0.025071
   147  H    0.015640
   148  H    0.007076
   149  H    0.006021
   150  H    0.015030
   151  H    0.023408
   152  H   -0.003212
   153  H    0.043696
   154  H    0.053195
   155  H    0.038529
   156  H    0.019029
   157  H    0.058601
   158  H    0.038247
 Sum of Mulliken charges =  -0.00000

 Dipole moment (field-independent basis, Debye):
    X=             -1.9243    Y=              7.9084    Z=             -4.7266  Tot=              9.4120
 Quadrupole moment (field-independent basis, Debye-Ang):
   XX=           -553.0047   YY=           -504.8494   ZZ=           -499.2948
   XY=             59.4151   XZ=             21.7932   YZ=              1.5480

 Normal termination of Gaussian 16 at Wed Sep 15 18:37:49 2021.
