 Gaussian 16, Revision A.03,
 Gaussian 16:  ES64L-G16RevA.03 25-Dec-2016

 ----------------------------------------------------------
 #p cam-b3lyp/Def2SVP td=(nstates=5) density=(transition=1)
 ----------------------------------------------------------

 --------------------------------
 TDDFT excited states in gaussian
 --------------------------------
 Symbolic Z-matrix:
 Charge =  0 Multiplicity = 1

                         Standard orientation:
 ---------------------------------------------------------------------
 Center     Atomic      Atomic             Coordinates (Angstroms)
 Number     Number       Type             X           Y           Z
 ---------------------------------------------------------------------
      1         12           0       26.502814   -0.558245    0.102488
      2          6           0       24.648513    2.138658    1.406782
      3          6           0       28.336789    1.642692   -1.720451
      4          6           0       28.172541   -3.192331   -1.206538
      5          6           0       24.292445   -2.742810    1.651838
      6          7           0       26.435438    1.592264   -0.205886
      7          6           0       25.671113    2.511266    0.518276
      8          6           0       26.131286    3.901835    0.198695
      9          6           0       26.923891    3.697088   -1.114175
     10          6           0       27.263863    2.187949   -1.009745
     11          6           0       26.178561    3.975109   -2.457669
     12          6           0       26.971385    4.622692    1.319210
     13          6           0       26.537704    6.023463    1.613433
     14          1           0       27.654451    7.075533    1.747639
     15          7           0       28.070614   -0.715409   -1.160072
     16          6           0       28.783603    0.332888   -1.765270
     17          6           0       29.855858   -0.184124   -2.518211
     18          6           0       29.852428   -1.652262   -2.388270
     19          6           0       28.703685   -1.905039   -1.566054
     20          6           0       30.756206    0.607306   -3.421171
     21          6           0       30.755098   -2.792067   -3.032412
     22          8           0       30.575585   -3.954878   -2.757920
     23          6           0       31.933800   -2.444462   -3.930410
     24          7           0       26.191293   -2.671990    0.124786
     25          6           0       27.025300   -3.529032   -0.518961
     26          6           0       26.525900   -5.039545   -0.320689
     27          6           0       25.455045   -4.908274    0.848991
     28          6           0       25.281620   -3.330426    0.892825
     29          6           0       25.930411   -5.738408   -1.574125
     30          6           0       25.924971   -5.503427    2.223986
     31          6           0       24.942515   -6.458512    2.759043
     32          7           0       24.788186   -0.373390    1.246370
     33          6           0       24.052506   -1.359038    1.902610
     34          6           0       23.019048   -0.750447    2.695225
     35          6           0       23.199134    0.604808    2.507537
     36          6           0       24.258262    0.797749    1.677723
     37          6           0       22.057876   -1.576424    3.589353
     38          6           0       22.679509    1.919497    2.836336
     39          8           0       21.668983    2.190850    3.446646
     40          6           0       23.613894    2.998494    2.093942
     41          6           0       22.782453    3.801686    1.178817
     42          8           0       22.090517    3.325809    0.240806
     43          8           0       22.869972    5.109946    1.555136
     44          6           0       21.809829    5.983331    0.985652
     45          1           0       28.854775    2.403852   -2.307567
     46          1           0       28.644253   -4.096645   -1.596185
     47          1           0       23.566058   -3.440317    2.072899
     48          1           0       25.328071    4.578477   -0.095528
     49          1           0       27.825110    4.307100   -1.178104
     50          1           0       25.448248    4.783223   -2.399304
     51          1           0       25.704529    3.039428   -2.755268
     52          1           0       26.814662    4.165151   -3.321792
     53          1           0       28.003878    4.567659    0.974727
     54          1           0       26.981800    4.047274    2.245352
     55          1           0       25.982743    5.877637    2.540311
     56          1           0       25.933036    6.399314    0.788180
     57          1           0       31.772442    0.761884   -3.057913
     58          1           0       30.372238    1.623147   -3.505513
     59          1           0       30.891303    0.265115   -4.446858
     60          1           0       32.452964   -3.385533   -4.107768
     61          1           0       32.529678   -1.631106   -3.515274
     62          1           0       31.577958   -1.917632   -4.816291
     63          1           0       27.374278   -5.682190   -0.084832
     64          1           0       24.529110   -5.381583    0.518925
     65          1           0       25.827198   -5.124805   -2.469682
     66          1           0       24.934759   -6.148304   -1.402712
     67          1           0       26.590456   -6.574436   -1.806950
     68          1           0       25.990701   -4.690800    2.948421
     69          1           0       26.868274   -6.047776    2.184730
     70          1           0       25.285470   -7.469175    2.536026
     71          1           0       23.893623   -6.350657    2.485101
     72          1           0       24.857498   -6.321531    3.837111
     73          1           0       22.478227   -2.572009    3.733520
     74          1           0       21.032871   -1.537936    3.217761
     75          1           0       22.106105   -1.079388    4.557518
     76          1           0       24.117751    3.651830    2.806700
     77          1           0       21.858844    6.976701    1.431342
     78          1           0       20.873868    5.563390    1.354704
     79          1           0       21.913559    5.935660   -0.098715
     80         12           0      -26.322646   -0.734646    0.009110
     81          6           0      -25.177816    2.444055   -1.253839
     82          6           0      -26.850100    0.879926    3.077053
     83          6           0      -27.480674   -3.589136    1.145222
     84          6           0      -25.433603   -2.211761   -3.032084
     85          7           0      -25.995488    1.471529    0.785421
     86          6           0      -25.739472    2.589692    0.056438
     87          6           0      -26.025151    3.859267    0.841940
     88          6           0      -26.232131    3.336404    2.371287
     89          6           0      -26.342463    1.811353    2.082527
     90          6           0      -25.130554    3.775973    3.368032
     91          6           0      -27.253740    4.653102    0.282498
     92          6           0      -26.932031    6.118790   -0.108573
     93          1           0      -27.727113    7.229944    0.791248
     94          7           0      -27.045999   -1.259416    1.798138
     95          6           0      -27.184737   -0.498793    3.008246
     96          6           0      -27.774212   -1.273057    4.126081
     97          6           0      -27.995541   -2.546917    3.507365
     98          6           0      -27.510768   -2.497959    2.117766
     99          6           0      -28.012319   -0.734392    5.538215
    100          6           0      -28.515956   -3.790524    4.121236
    101          8           0      -28.905163   -4.780045    3.510398
    102          6           0      -28.720622   -3.808988    5.648810
    103          7           0      -26.586412   -2.543651   -0.884181
    104          6           0      -27.065457   -3.604378   -0.195048
    105          6           0      -26.897154   -4.905810   -0.928721
    106          6           0      -26.287221   -4.501063   -2.293336
    107          6           0      -26.128972   -2.974251   -2.114780
    108          6           0      -26.142881   -5.972500   -0.162968
    109          6           0      -27.324871   -4.846834   -3.515951
    110          6           0      -26.719308   -5.756678   -4.717511
    111          7           0      -25.229842   -0.113309   -1.705795
    112          6           0      -25.032014   -0.847081   -2.900235
    113          6           0      -24.426636    0.058020   -3.883826
    114          6           0      -24.611200    1.341123   -3.304806
    115          6           0      -24.977318    1.171422   -1.968717
    116          6           0      -23.809246   -0.246428   -5.245434
    117          6           0      -24.246453    2.768855   -3.526868
    118          8           0      -23.673135    3.418332   -4.444981
    119          6           0      -24.733938    3.518898   -2.227375
    120          6           0      -23.594278    4.336997   -1.695649
    121          8           0      -22.466118    3.943493   -1.601850
    122          8           0      -24.021040    5.613627   -1.455788
    123          6           0      -22.895426    6.561271   -1.257001
    124          1           0      -26.868007    1.394039    4.040074
    125          1           0      -27.849639   -4.566734    1.463361
    126          1           0      -25.183034   -2.643107   -4.003235
    127          1           0      -25.105706    4.443903    0.810520
    128          1           0      -27.198916    3.625640    2.784194
    129          1           0      -24.567418    2.914891    3.729110
    130          1           0      -25.570556    4.311185    4.210493
    131          1           0      -24.422472    4.517534    2.998080
    132          1           0      -28.066039    4.703386    1.008043
    133          1           0      -27.654477    4.189958   -0.619566
    134          1           0      -27.315597    6.393545   -1.091511
    135          1           0      -25.871584    6.361744   -0.168059
    136          1           0      -28.018508    0.349059    5.661478
    137          1           0      -27.360291   -1.140402    6.311530
    138          1           0      -29.014994   -1.074469    5.799193
    139          1           0      -27.769925   -3.660563    6.160836
    140          1           0      -29.214585   -4.719293    5.990259
    141          1           0      -29.384591   -2.983374    5.904897
    142          1           0      -27.883878   -5.357702   -1.038714
    143          1           0      -25.306938   -4.954039   -2.438570
    144          1           0      -26.778831   -6.782706    0.194784
    145          1           0      -25.672468   -5.633853    0.760070
    146          1           0      -25.353208   -6.353259   -0.811018
    147          1           0      -27.743709   -3.967068   -4.003421
    148          1           0      -28.201648   -5.397046   -3.175458
    149          1           0      -25.857855   -6.267913   -4.287362
    150          1           0      -26.431823   -5.152698   -5.579112
    151          1           0      -27.393727   -6.572452   -4.976534
    152          1           0      -23.945104    0.572593   -5.951457
    153          1           0      -24.391175   -1.054130   -5.690893
    154          1           0      -22.806113   -0.592060   -4.995294
    155          1           0      -25.477865    4.238722   -2.567795
    156          1           0      -22.264002    6.153148   -0.468032
    157          1           0      -23.380799    7.444812   -0.842720
    158          1           0      -22.228199    6.778556   -2.091041
 ---------------------------------------------------------------------

 SCF Done:  E(RCAM-B3LYP) =  -4069.82473589     A.U. after   18 cycles

 Excitation energies and oscillator strengths:

 Excited State   1:      Singlet-A      1.6722 eV  741.46 nm  f=0.3716  <S**2>=0.000
     310 -> 315        0.18802
     312 -> 314        0.68427
     310 <- 315        0.11183
 This state for optimization and/or second-order correction.
 Total Energy, E(TD-HF/TD-DFT) =  -4069.76328490
 Copying the excited state density for this state as the 1-particle RhoCI density.

 Excited State   2:      Singlet-A      1.7437 eV  711.02 nm  f=0.3951  <S**2>=0.000
     309 -> 316        0.17837
     311 -> 313        0.68464
     309 <- 316        0.10695

 Excited State   3:      Singlet-A      2.1741 eV  570.29 nm  f=0.1332  <S**2>=0.000
     310 -> 314        0.64729
     312 -> 315       -0.27760

 Excited State   4:      Singlet-A      2.2018 eV  563.09 nm  f=0.1600  <S**2>=0.000
     309 -> 313        0.65400
     311 -> 316       -0.24979

 Excited State   5:      Singlet-A      3.1652 eV  391.71 nm  f=0.0000  <S**2>=0.000
     312 -> 313        0.70711

 The electronic state is 1-A.
 Alpha  occ. eigenvalues --  -46.88516 -46.87176 -19.25656 -19.25631 -19.19882
 Alpha  occ. eigenvalues --  -19.19729 -19.19510 -19.19033 -19.18939 -19.18670
 Alpha  occ. eigenvalues --  -14.42592 -14.42057 -14.41921 -14.41498 -14.40701
 Alpha  occ. eigenvalues --  -14.39284 -14.39235 -14.38550 -10.39426 -10.38803
 Alpha  occ. eigenvalues --  -10.36337 -10.35127 -10.35109 -10.35034 -10.32175
 Alpha  occ. eigenvalues --  -10.31909 -10.31814 -10.31563 -10.31474 -10.31274
 Alpha  occ. eigenvalues --  -10.31044 -10.30852 -10.30784 -10.30653 -10.30624
 Alpha  occ. eigenvalues --  -10.30616 -10.30614 -10.30432 -10.29964 -10.29915
 Alpha  occ. eigenvalues --  -10.29093 -10.29085 -10.29025 -10.28979 -10.28935
 Alpha  occ. eigenvalues --  -10.28892 -10.28664 -10.28614 -10.28516 -10.28436
 Alpha  occ. eigenvalues --  -10.28224 -10.28132 -10.28068 -10.28057 -10.27946
 Alpha  occ. eigenvalues --  -10.27896 -10.27859 -10.27815 -10.27761 -10.27753
 Alpha  occ. eigenvalues --  -10.27637 -10.27607 -10.27405 -10.27314 -10.27225
 Alpha  occ. eigenvalues --  -10.27214 -10.27130 -10.26945 -10.26743 -10.26722
 Alpha  occ. eigenvalues --  -10.26579 -10.26498 -10.26347 -10.26117 -10.26110
 Alpha  occ. eigenvalues --  -10.26096 -10.26081 -10.26041 -10.25901 -10.25788
 Alpha  occ. eigenvalues --  -10.25708 -10.25476 -10.25331 -10.25174 -10.24651
 Alpha  occ. eigenvalues --  -10.24351  -3.17159  -3.15904  -1.92056  -1.91614
 Alpha  occ. eigenvalues --   -1.91480  -1.90809  -1.90348  -1.90229  -1.16946
 Alpha  occ. eigenvalues --   -1.15754  -1.11703  -1.10319  -1.09954  -1.08670
 Alpha  occ. eigenvalues --   -1.07050  -1.06331  -1.04938  -1.03985  -1.03338
 Alpha  occ. eigenvalues --   -1.03252  -1.02569  -1.02549  -1.02001  -1.01422
 Alpha  occ. eigenvalues --   -0.92576  -0.91561  -0.89204  -0.88658  -0.88627
 Alpha  occ. eigenvalues --   -0.88482  -0.88113  -0.88026  -0.87398  -0.87025
 Alpha  occ. eigenvalues --   -0.86980  -0.86411  -0.85822  -0.85621  -0.84309
 Alpha  occ. eigenvalues --   -0.84007  -0.83826  -0.83156  -0.82903  -0.82106
 Alpha  occ. eigenvalues --   -0.81802  -0.81379  -0.81189  -0.80660  -0.80660
 Alpha  occ. eigenvalues --   -0.79745  -0.79081  -0.78231  -0.77319  -0.77083
 Alpha  occ. eigenvalues --   -0.76772  -0.76771  -0.76020  -0.75730  -0.75212
 Alpha  occ. eigenvalues --   -0.74879  -0.72878  -0.72542  -0.71404  -0.70925
 Alpha  occ. eigenvalues --   -0.69161  -0.68733  -0.68605  -0.68112  -0.67587
 Alpha  occ. eigenvalues --   -0.67579  -0.67076  -0.66540  -0.65906  -0.65619
 Alpha  occ. eigenvalues --   -0.65511  -0.65176  -0.64567  -0.64371  -0.64038
 Alpha  occ. eigenvalues --   -0.63982  -0.62352  -0.61941  -0.60787  -0.60317
 Alpha  occ. eigenvalues --   -0.60113  -0.59248  -0.59245  -0.58722  -0.58332
 Alpha  occ. eigenvalues --   -0.58205  -0.57942  -0.57686  -0.57618  -0.57123
 Alpha  occ. eigenvalues --   -0.56156  -0.56123  -0.55678  -0.55502  -0.55261
 Alpha  occ. eigenvalues --   -0.55047  -0.54990  -0.54482  -0.53839  -0.53764
 Alpha  occ. eigenvalues --   -0.53553  -0.53431  -0.53379  -0.52653  -0.52622
 Alpha  occ. eigenvalues --   -0.52580  -0.52548  -0.52140  -0.51882  -0.51819
 Alpha  occ. eigenvalues --   -0.51639  -0.51552  -0.51437  -0.51361  -0.51025
 Alpha  occ. eigenvalues --   -0.50891  -0.50833  -0.50456  -0.50446  -0.50104
 Alpha  occ. eigenvalues --   -0.50049  -0.49954  -0.49799  -0.49787  -0.49449
 Alpha  occ. eigenvalues --   -0.49413  -0.49406  -0.49195  -0.49104  -0.48770
 Alpha  occ. eigenvalues --   -0.48713  -0.48230  -0.48099  -0.47991  -0.47946
 Alpha  occ. eigenvalues --   -0.47672  -0.47550  -0.47453  -0.47253  -0.47032
 Alpha  occ. eigenvalues --   -0.46827  -0.46783  -0.46642  -0.46553  -0.46454
 Alpha  occ. eigenvalues --   -0.46187  -0.46142  -0.45930  -0.45843  -0.45769
 Alpha  occ. eigenvalues --   -0.45559  -0.45402  -0.45079  -0.44972  -0.44799
 Alpha  occ. eigenvalues --   -0.44759  -0.44741  -0.44671  -0.44451  -0.44360
 Alpha  occ. eigenvalues --   -0.44331  -0.44084  -0.43868  -0.43772  -0.43395
 Alpha  occ. eigenvalues --   -0.43351  -0.43303  -0.42915  -0.42870  -0.42846
 Alpha  occ. eigenvalues --   -0.42609  -0.42593  -0.42275  -0.42202  -0.42021
 Alpha  occ. eigenvalues --   -0.41935  -0.41875  -0.41529  -0.41297  -0.41220
 Alpha  occ. eigenvalues --   -0.40945  -0.40778  -0.40680  -0.40478  -0.40419
 Alpha  occ. eigenvalues --   -0.40164  -0.40068  -0.39364  -0.39150  -0.38837
 Alpha  occ. eigenvalues --   -0.38584  -0.38350  -0.38218  -0.37843  -0.37825
 Alpha  occ. eigenvalues --   -0.37474  -0.37325  -0.36753  -0.36364  -0.36327
 Alpha  occ. eigenvalues --   -0.35985  -0.35487  -0.34624  -0.34405  -0.34241
 Alpha  occ. eigenvalues --   -0.34136  -0.33150  -0.33004  -0.31758  -0.31618
 Alpha  occ. eigenvalues --   -0.31268  -0.30978  -0.30853  -0.30581  -0.30257
 Alpha  occ. eigenvalues --   -0.29980  -0.29557  -0.29369  -0.23964  -0.23891
 Alpha  occ. eigenvalues --   -0.21524  -0.21291
 Alpha virt. eigenvalues --   -0.09007  -0.08965  -0.01820  -0.01264   0.00146
 Alpha virt. eigenvalues --    0.00743   0.02071   0.02798   0.03453   0.03571
 Alpha virt. eigenvalues --    0.04242   0.04512   0.05231   0.05410   0.05714

 Mulliken charges:
               1
     1  Mg  12.000008
     2  C    5.999994
     3  C    5.999991
     4  C    6.000013
     5  C    6.000007
     6  N    6.999993
     7  C    5.999997
     8  C    6.000000
     9  C    6.000007
    10  C    6.000004
    11  C    5.999998
    12  C    6.000005
    13  C    5.999993
    14  H    1.000018
    15  N    6.999998
    16  C    6.000002
    17  C    6.000006
    18  C    6.000004
    19  C    6.000001
    20  C    5.999999
    21  C    5.999999
    22  O    8.000004
    23  C    6.000001
    24  N    7.000003
    25  C    5.999993
    26  C    6.000007
    27  C    5.999998
    28  C    5.999995
    29  C    5.999996
    30  C    6.000002
    31  C    5.999995
    32  N    6.999996
    33  C    5.999998
    34  C    5.999991
    35  C    5.999987
    36  C    6.000008
    37  C    6.000004
    38  C    6.000003
    39  O    7.999998
    40  C    5.999999
    41  C    5.999999
    42  O    7.999977
    43  O    8.000011
    44  C    6.000002
    45  H    0.999992
    46  H    1.000003
    47  H    1.000002
    48  H    0.999983
    49  H    1.000007
    50  H    0.999981
    51  H    0.999985
    52  H    0.999995
    53  H    1.000010
    54  H    1.000015
    55  H    1.000007
    56  H    0.999981
    57  H    1.000013
    58  H    0.999991
    59  H    0.999985
    60  H    1.000005
    61  H    1.000011
    62  H    0.999985
    63  H    1.000017
    64  H    0.999986
    65  H    0.999980
    66  H    0.999990
    67  H    1.000010
    68  H    1.000012
    69  H    1.000017
    70  H    1.000007
    71  H    0.999985
    72  H    1.000021
    73  H    1.000017
    74  H    0.999983
    75  H    1.000024
    76  H    1.000018
    77  H    1.000008
    78  H    0.999991
    79  H    0.999979
    80  Mg  12.004473
    81  C    5.971491
    82  C    6.006706
    83  C    6.034384
    84  C    5.988825
    85  N    6.982974
    86  C    6.036061
    87  C    5.989429
    88  C    6.012660
    89  C    5.968366
    90  C    6.002937
    91  C    5.998163
    92  C    5.997894
    93  H    1.007334
    94  N    7.006909
    95  C    5.960284
    96  C    5.975725
    97  C    5.985458
    98  C    5.967571
    99  C    6.004957
   100  C    5.988522
   101  O    7.968075
   102  C    6.004419
   103  N    7.007931
   104  C    5.959601
   105  C    6.010598
   106  C    5.987685
   107  C    6.031745
   108  C    6.000816
   109  C    5.994909
   110  C    5.999060
   111  N    6.995232
   112  C    6.046567
   113  C    6.030312
   114  C    6.004749
   115  C    6.033534
   116  C    6.000197
   117  C    6.009571
   118  O    8.031093
   119  C    6.004771
   120  C    6.006797
   121  O    8.000271
   122  O    8.001913
   123  C    5.997816
   124  H    0.986456
   125  H    0.998927
   126  H    1.012792
   127  H    0.997625
   128  H    0.998748
   129  H    1.000495
   130  H    0.996012
   131  H    0.985637
   132  H    1.009293
   133  H    0.994987
   134  H    0.996939
   135  H    0.998017
   136  H    0.983183
   137  H    0.979639
   138  H    0.983277
   139  H    0.992206
   140  H    0.984953
   141  H    0.994675
   142  H    1.001121
   143  H    1.003976
   144  H    1.002355
   145  H    1.005374
   146  H    0.989916
   147  H    0.998959
   148  H    1.012782
   149  H    1.004050
   150  H    0.997101
   151  H    1.006505
   152  H    1.015833
   153  H    1.017052
   154  H    1.017526
   155  H    1.004767
   156  H    1.004666
   157  H    1.005239
   158  H    1.000133
 Sum of Mulliken charges = 624.00000

 Dipole moment (field-independent basis, Debye):
    X=              3.9188    Y=              2.0904    Z=             -9.8723  Tot=             10.8254
 Quadrupole moment (field-independent basis, Debye-Ang):
   XX=           -204.6892   YY=             -0.1427   ZZ=             -3.0837
   XY=            -57.7171   XZ=            259.0267   YZ=              7.3880

 Normal termination of Gaussian 16 at Tue Sep 21 22:47:56 2021.
