 Gaussian 16, Revision A.03,
 Gaussian 16:  ES64L-G16RevA.03 25-Dec-2016

 -----------------------------------------------------------
 #p cam-b3lyp/Def2SVP td=(nstates=5, root=1) density=current
 -----------------------------------------------------------

 --------------------------------
 TDDFT excited states in gaussian
 --------------------------------
 Symbolic Z-matrix:
 Charge =  0 Multiplicity = 1

                         Standard orientation:
 ---------------------------------------------------------------------
 Center     Atomic      Atomic             Coordinates (Angstroms)
 Number     Number       Type             X           Y           Z
 ---------------------------------------------------------------------
      1         12           0       -0.727490    0.018221    0.432687
      2          6           0        2.784361    0.290181    0.162843
      3          6           0       -0.540799   -3.234828   -0.074527
      4          6           0       -4.088400    0.055333   -0.180290
      5          6           0       -0.804469    3.680724   -0.072618
      6          7           0        0.971313   -1.282022    0.027937
      7          6           0        2.280998   -1.011339    0.203275
      8          6           0        3.066259   -2.336056    0.267008
      9          6           0        2.036910   -3.419346    0.219432
     10          6           0        0.712435   -2.626497    0.003072
     11          6           0        2.403785   -4.575402   -0.798516
     12          6           0        4.119642   -2.525379    1.409330
     13          6           0        4.382975   -3.930707    2.101947
     14          1           0        5.835485   -4.368653    2.340352
     15          7           0       -2.135969   -1.450104    0.185175
     16          6           0       -1.838883   -2.781113   -0.002487
     17          6           0       -3.080360   -3.495855   -0.091770
     18          6           0       -4.186560   -2.562628   -0.168520
     19          6           0       -3.489027   -1.259201   -0.108158
     20          6           0       -3.027337   -4.961312   -0.251047
     21          6           0       -5.714974   -2.806630   -0.221942
     22          8           0       -6.462743   -1.890973   -0.326400
     23          6           0       -6.277190   -4.151329    0.106468
     24          7           0       -2.206709    1.670259   -0.114471
     25          6           0       -3.517286    1.341882   -0.163173
     26          6           0       -4.428997    2.594109   -0.366131
     27          6           0       -3.404908    3.767858   -0.294983
     28          6           0       -2.043880    3.039470   -0.169058
     29          6           0       -5.232999    2.615498   -1.638907
     30          6           0       -3.576951    4.832095    0.844664
     31          6           0       -3.139018    4.493518    2.229459
     32          7           0        0.603732    1.726407    0.121245
     33          6           0        0.413426    3.073065   -0.000308
     34          6           0        1.693274    3.738633    0.008162
     35          6           0        2.679750    2.719246    0.066588
     36          6           0        1.957738    1.508662    0.086736
     37          6           0        1.970250    5.184934   -0.205547
     38          6           0        4.084720    2.426906    0.066649
     39          8           0        5.090492    3.127398    0.068417
     40          6           0        4.221065    0.842246    0.179009
     41          6           0        5.169274    0.253436   -0.851874
     42          8           0        4.968668    0.276068   -2.038796
     43          8           0        6.242787   -0.333379   -0.200963
     44          6           0        7.233924   -0.900009   -1.116351
     45          1           0       -0.569326   -4.326029   -0.033339
     46          1           0       -5.168240   -0.017111   -0.323867
     47          1           0       -0.824009    4.771635   -0.115019
     48          1           0        3.639542   -2.219518   -0.652714
     49          1           0        2.047604   -3.921914    1.186990
     50          1           0        3.416471   -4.421273   -1.170733
     51          1           0        1.602149   -4.631436   -1.534902
     52          1           0        2.501946   -5.534207   -0.289102
     53          1           0        3.828973   -1.848458    2.213067
     54          1           0        5.107789   -2.172624    1.112821
     55          1           0        3.880686   -4.647672    1.452203
     56          1           0        3.865476   -3.954568    3.061046
     57          1           0       -3.851420   -5.211478   -0.918804
     58          1           0       -3.247375   -5.395246    0.723625
     59          1           0       -2.135952   -5.470890   -0.617298
     60          1           0       -6.330652   -4.623366   -0.873693
     61          1           0       -7.205589   -4.022074    0.663605
     62          1           0       -5.615721   -4.802267    0.678593
     63          1           0       -5.082087    2.763805    0.490129
     64          1           0       -3.216556    4.373008   -1.181231
     65          1           0       -5.206301    1.649055   -2.143946
     66          1           0       -4.841209    3.330869   -2.362472
     67          1           0       -6.250796    2.860054   -1.335977
     68          1           0       -4.624175    5.126312    0.915202
     69          1           0       -3.136376    5.764882    0.491940
     70          1           0       -3.122514    3.410793    2.355585
     71          1           0       -3.724306    4.800188    3.096632
     72          1           0       -2.174512    4.988779    2.345885
     73          1           0        1.623017    5.581912   -1.159019
     74          1           0        3.042143    5.245691   -0.395487
     75          1           0        1.634028    5.790962    0.636207
     76          1           0        4.590826    0.650526    1.186494
     77          1           0        6.967779   -1.904251   -0.788010
     78          1           0        8.179932   -0.539774   -0.712815
     79          1           0        7.040466   -0.659983   -2.162069
 ---------------------------------------------------------------------

 SCF Done:  E(RCAM-B3LYP) =  -2034.88991902     A.U. after   17 cycles

 Excitation energies and oscillator strengths:

 Excited State   1:      Singlet-A      1.7017 eV  728.58 nm  f=0.3856  <S**2>=0.000
     155 ->158         0.18709
     156 ->157         0.68383
     155 <-158         0.11028
 This state for optimization and/or second-order correction.
 Total Energy, E(TD-HF/TD-DFT) =  -2034.82738200
 Copying the excited state density for this state as the 1-particle RhoCI density.

 Excited State   2:      Singlet-A      2.1898 eV  566.19 nm  f=0.1095  <S**2>=0.000
     155 ->157         0.64228
     156 ->158        -0.28258

 Excited State   3:      Singlet-A      3.3305 eV  372.27 nm  f=0.0010  <S**2>=0.000
     153 ->157        -0.19109
     154 ->157         0.66359

 Excited State   4:      Singlet-A      3.4198 eV  362.55 nm  f=0.0894  <S**2>=0.000
     152 ->157         0.10158
     153 ->157         0.53895
     154 ->157         0.12358
     155 ->157         0.10425
     156 ->158         0.39141

 Excited State   5:      Singlet-A      3.5641 eV  347.87 nm  f=0.0005  <S**2>=0.000
     151 ->157         0.30702
     151 ->159        -0.14245
     151 ->161        -0.11934
     152 ->157         0.48456
     152 ->159        -0.21798
     152 ->160         0.12008
     152 ->161        -0.18089

 The electronic state is 1-A.
 Alpha  occ. eigenvalues --  -46.89997 -19.24738 -19.20028 -19.19582 -19.18634
 Alpha  occ. eigenvalues --  -14.42218 -14.41784 -14.39498 -14.38811 -10.39120
 Alpha  occ. eigenvalues --  -10.35731 -10.34801 -10.31630 -10.31261 -10.31128
 Alpha  occ. eigenvalues --  -10.30888 -10.30714 -10.30366 -10.29590 -10.29449
 Alpha  occ. eigenvalues --  -10.29017 -10.28676 -10.28593 -10.28185 -10.28043
 Alpha  occ. eigenvalues --  -10.27930 -10.27834 -10.27659 -10.27561 -10.27368
 Alpha  occ. eigenvalues --  -10.27299 -10.27029 -10.26783 -10.26724 -10.26565
 Alpha  occ. eigenvalues --  -10.26539 -10.26353 -10.26261 -10.26132 -10.25395
 Alpha  occ. eigenvalues --  -10.25108 -10.24973 -10.24882  -3.18306  -1.93179
 Alpha  occ. eigenvalues --   -1.92770  -1.92596  -1.16292  -1.12901  -1.09213
 Alpha  occ. eigenvalues --   -1.08541  -1.04224  -1.03143  -1.02485  -1.01838
 Alpha  occ. eigenvalues --   -0.91616  -0.89308  -0.88882  -0.88260  -0.87373
 Alpha  occ. eigenvalues --   -0.87176  -0.86096  -0.84006  -0.83661  -0.82531
 Alpha  occ. eigenvalues --   -0.82000  -0.80841  -0.80404  -0.78288  -0.77160
 Alpha  occ. eigenvalues --   -0.77102  -0.75856  -0.74653  -0.72330  -0.71471
 Alpha  occ. eigenvalues --   -0.69817  -0.69277  -0.68205  -0.66909  -0.64921
 Alpha  occ. eigenvalues --   -0.64307  -0.64141  -0.64014  -0.61708  -0.60029
 Alpha  occ. eigenvalues --   -0.59554  -0.58806  -0.58351  -0.58000  -0.57388
 Alpha  occ. eigenvalues --   -0.56150  -0.55882  -0.55391  -0.55055  -0.54587
 Alpha  occ. eigenvalues --   -0.54062  -0.53725  -0.53348  -0.52770  -0.52378
 Alpha  occ. eigenvalues --   -0.51731  -0.51198  -0.50934  -0.50830  -0.50619
 Alpha  occ. eigenvalues --   -0.50300  -0.50035  -0.49523  -0.49204  -0.48985
 Alpha  occ. eigenvalues --   -0.48772  -0.48598  -0.48342  -0.47698  -0.47209
 Alpha  occ. eigenvalues --   -0.47140  -0.46767  -0.46031  -0.45783  -0.45557
 Alpha  occ. eigenvalues --   -0.45431  -0.44632  -0.44564  -0.44333  -0.44090
 Alpha  occ. eigenvalues --   -0.43719  -0.43645  -0.43250  -0.43002  -0.42932
 Alpha  occ. eigenvalues --   -0.42612  -0.42344  -0.42037  -0.41830  -0.41465
 Alpha  occ. eigenvalues --   -0.40877  -0.40598  -0.40130  -0.39195  -0.38966
 Alpha  occ. eigenvalues --   -0.38120  -0.37909  -0.37388  -0.36904  -0.35912
 Alpha  occ. eigenvalues --   -0.35720  -0.34626  -0.33559  -0.33155  -0.31795
 Alpha  occ. eigenvalues --   -0.30841  -0.30612  -0.29833  -0.29346  -0.23827
 Alpha  occ. eigenvalues --   -0.21057
 Alpha virt. eigenvalues --   -0.08645  -0.01627   0.00312   0.01153   0.02511
 Alpha virt. eigenvalues --    0.04507   0.05687   0.05948   0.07385   0.08184
 Alpha virt. eigenvalues --    0.08691   0.08948   0.09494   0.10037   0.10393

 Mulliken charges:
               1
     1  Mg   0.807497
     2  C   -0.022475
     3  C   -0.053714
     4  C   -0.067951
     5  C   -0.105031
     6  N   -0.309935
     7  C   -0.043890
     8  C    0.013392
     9  C   -0.089573
    10  C    0.083712
    11  C    0.069985
    12  C    0.007510
    13  C   -0.067171
    14  H    0.037274
    15  N   -0.431052
    16  C    0.125396
    17  C   -0.120904
    18  C   -0.044921
    19  C    0.099413
    20  C    0.083439
    21  C    0.002549
    22  O   -0.170420
    23  C    0.046780
    24  N   -0.253498
    25  C    0.063578
    26  C   -0.017153
    27  C   -0.005727
    28  C   -0.005439
    29  C    0.084084
    30  C    0.000182
    31  C    0.022129
    32  N   -0.311210
    33  C    0.164454
    34  C   -0.177934
    35  C    0.020633
    36  C    0.079147
    37  C    0.109501
    38  C    0.049594
    39  O   -0.176891
    40  C    0.004838
    41  C    0.189037
    42  O   -0.198118
    43  O   -0.350108
    44  C    0.158079
    45  H   -0.042233
    46  H   -0.002651
    47  H   -0.032117
    48  H    0.027013
    49  H    0.021514
    50  H    0.021860
    51  H    0.029629
    52  H    0.012192
    53  H    0.006869
    54  H    0.024926
    55  H    0.014778
    56  H    0.033057
    57  H    0.013223
    58  H    0.030288
    59  H    0.033497
    60  H    0.040243
    61  H    0.046277
    62  H    0.014046
    63  H    0.016678
    64  H    0.012503
    65  H    0.026043
    66  H    0.013527
    67  H    0.020457
    68  H    0.000557
    69  H   -0.000375
    70  H    0.017530
    71  H    0.010766
    72  H    0.017769
    73  H    0.022231
    74  H    0.028328
    75  H    0.029710
    76  H    0.040298
    77  H    0.033018
    78  H    0.050153
    79  H    0.069305
 Sum of Mulliken charges =  -0.00000

 Dipole moment (field-independent basis, Debye):
    X=             -2.1283    Y=             -3.5980    Z=              2.4986  Tot=              4.8701
 Quadrupole moment (field-independent basis, Debye-Ang):
   XX=           -272.8976   YY=           -226.9559   ZZ=           -259.4185
   XY=            -26.1720   XZ=             -0.6539   YZ=             -0.2106

 Normal termination of Gaussian 16 at Tue Oct 12 13:37:02 2021.
