 Gaussian 16, Revision A.03,
 Gaussian 16:  ES64L-G16RevA.03 25-Dec-2016

 ----------------------------------------------------------
 #p cam-b3lyp/Def2SVP td=(nstates=5) density=(transition=1)
 ----------------------------------------------------------

 --------------------------------
 TDDFT excited states in gaussian
 --------------------------------
 Symbolic Z-matrix:
 Charge =  0 Multiplicity = 1

                         Standard orientation:
 ---------------------------------------------------------------------
 Center     Atomic      Atomic             Coordinates (Angstroms)
 Number     Number       Type             X           Y           Z
 ---------------------------------------------------------------------
      1         12           0       14.577080   -0.283822   -0.201888
      2          6           0       11.213080   -1.013613   -0.664437
      3          6           0       14.134257    2.643195   -2.149974
      4          6           0       17.357505    1.020137    1.114576
      5          6           0       14.662665   -2.827221    2.237878
      6          7           0       12.711741    0.901863   -1.018440
      7          6           0       11.544967    0.223035   -1.275668
      8          6           0       10.614640    1.032259   -2.123737
      9          6           0       11.623248    2.065446   -2.807563
     10          6           0       12.924710    1.917180   -1.942696
     11          6           0       11.907615    1.839313   -4.377492
     12          6           0        9.400988    1.620538   -1.235809
     13          6           0        8.188288    1.891658   -1.972060
     14          1           0        7.684387    3.342659   -1.821106
     15          7           0       15.705929    1.463286   -0.588166
     16          6           0       15.354398    2.551056   -1.435635
     17          6           0       16.457663    3.496575   -1.413472
     18          6           0       17.430677    3.047563   -0.487719
     19          6           0       16.889680    1.736223    0.004648
     20          6           0       16.400924    4.788592   -2.139821
     21          6           0       18.735545    3.860224   -0.097542
     22          8           0       18.906481    4.940711   -0.659964
     23          6           0       19.884229    3.222540    0.676381
     24          7           0       15.728227   -0.803334    1.493869
     25          6           0       16.896500   -0.149500    1.716354
     26          6           0       17.681599   -0.685646    3.068240
     27          6           0       16.910803   -2.073540    3.294562
     28          6           0       15.709423   -1.962934    2.303289
     29          6           0       19.230524   -0.928771    2.912203
     30          6           0       16.433026   -2.268021    4.734816
     31          6           0       16.895119   -3.488851    5.566007
     32          7           0       13.331015   -1.811851    0.411534
     33          6           0       13.517264   -2.768886    1.366410
     34          6           0       12.406335   -3.679968    1.341710
     35          6           0       11.434503   -2.949122    0.559861
     36          6           0       12.071119   -1.797562    0.066339
     37          6           0       12.231952   -4.899939    2.199331
     38          6           0       10.043700   -2.943778    0.156794
     39          8           0        9.218196   -3.801937    0.237385
     40          6           0        9.801147   -1.673256   -0.747760
     41          6           0        9.462491   -1.985169   -2.222160
     42          8           0       10.097055   -2.736722   -2.930724
     43          8           0        8.256676   -1.345122   -2.575585
     44          6           0        7.705986   -1.669225   -3.856859
     45          1           0       13.952925    3.487939   -2.816621
     46          1           0       18.116608    1.504768    1.731836
     47          1           0       14.742026   -3.613523    2.990799
     48          1           0       10.278266    0.488285   -3.006980
     49          1           0       11.219604    3.069312   -2.670716
     50          1           0       11.584710    2.761752   -4.859960
     51          1           0       11.382225    0.975559   -4.783740
     52          1           0       12.987564    1.726605   -4.477222
     53          1           0        9.801511    2.561296   -0.858482
     54          1           0        9.365112    0.890560   -0.426689
     55          1           0        7.442172    1.197201   -1.587737
     56          1           0        8.358854    1.749019   -3.039106
     57          1           0       15.583039    4.809706   -2.859823
     58          1           0       17.295463    4.910933   -2.751015
     59          1           0       16.248119    5.622241   -1.454014
     60          1           0       19.629124    2.957890    1.703014
     61          1           0       20.719146    3.923756    0.656628
     62          1           0       20.195983    2.338445    0.120130
     63          1           0       17.390535    0.040310    3.826937
     64          1           0       17.436885   -2.956049    2.929881
     65          1           0       19.778250   -0.209658    3.520583
     66          1           0       19.515236   -0.795792    1.867792
     67          1           0       19.420740   -1.947642    3.251283
     68          1           0       15.348548   -2.193371    4.811762
     69          1           0       16.638261   -1.429237    5.399769
     70          1           0       16.150398   -4.250173    5.799718
     71          1           0       17.191261   -3.073534    6.529591
     72          1           0       17.724259   -4.006132    5.081759
     73          1           0       11.465440   -5.513830    1.725715
     74          1           0       11.677745   -4.739852    3.123635
     75          1           0       13.153667   -5.426031    2.446458
     76          1           0        8.929608   -1.210258   -0.284145
     77          1           0        7.154286   -0.751935   -4.065093
     78          1           0        6.931830   -2.433228   -3.787761
     79          1           0        8.488956   -1.966149   -4.553489
     80         12           0      -13.868735    0.952907   -0.010389
     81          6           0      -13.781348   -2.612216   -0.332331
     82          6           0      -10.463013    1.028138   -0.445480
     83          6           0      -13.785800    4.245232    0.738968
     84          6           0      -17.099998    0.588675    1.356225
     85          7           0      -12.337047   -0.621813   -0.358186
     86          6           0      -12.502190   -2.005282   -0.529402
     87          6           0      -11.172500   -2.620483   -0.883152
     88          6           0      -10.145775   -1.516828   -0.387314
     89          6           0      -11.060263   -0.257988   -0.330070
     90          6           0       -9.617764   -1.949509    1.026847
     91          6           0      -11.056590   -3.085994   -2.377542
     92          6           0      -10.435419   -4.388881   -2.454499
     93          1           0      -10.579210   -5.127959   -3.878511
     94          7           0      -12.301164    2.400388   -0.066453
     95          6           0      -10.994179    2.233231   -0.301282
     96          6           0      -10.353092    3.511685   -0.338332
     97          6           0      -11.278154    4.470211    0.018546
     98          6           0      -12.605443    3.722586    0.211680
     99          6           0       -8.810090    3.662895   -0.526427
    100          6           0      -11.108942    6.001269    0.099996
    101          8           0      -12.038332    6.673882    0.468489
    102          6           0       -9.832026    6.663613   -0.360964
    103          7           0      -15.176823    2.163440    1.176448
    104          6           0      -14.948221    3.534856    1.200162
    105          6           0      -16.161029    4.266583    1.675659
    106          6           0      -17.245141    3.095350    1.857025
    107          6           0      -16.500717    1.870950    1.379039
    108          6           0      -15.903748    5.108434    2.879553
    109          6           0      -18.680066    3.279757    1.114042
    110          6           0      -19.896540    3.328455    1.951396
    111          7           0      -15.238459   -0.635950    0.400485
    112          6           0      -16.495727   -0.587420    0.959193
    113          6           0      -17.065299   -2.004561    0.947442
    114          6           0      -16.081201   -2.813816    0.345037
    115          6           0      -14.967781   -1.942102    0.078619
    116          6           0      -18.433200   -2.397056    1.522183
    117          6           0      -15.767171   -4.182678    0.067420
    118          8           0      -16.458029   -5.217267    0.205794
    119          6           0      -14.210864   -4.147287   -0.224015
    120          6           0      -14.006242   -5.048115   -1.478983
    121          8           0      -13.854309   -4.543420   -2.606566
    122          8           0      -13.937762   -6.349383   -1.105114
    123          6           0      -13.946983   -7.206346   -2.340278
    124          1           0       -9.431702    1.090056   -0.800097
    125          1           0      -13.789549    5.313011    0.970543
    126          1           0      -18.126712    0.387941    1.668888
    127          1           0      -11.049400   -3.464908   -0.205375
    128          1           0       -9.297906   -1.420486   -1.064570
    129          1           0      -10.347500   -1.814965    1.824887
    130          1           0       -8.693865   -1.411573    1.235008
    131          1           0       -9.347380   -3.005090    0.991021
    132          1           0      -10.317419   -2.433007   -2.842196
    133          1           0      -12.007354   -3.007394   -2.905304
    134          1           0      -10.950094   -5.108118   -1.817164
    135          1           0       -9.381211   -4.262490   -2.206749
    136          1           0       -8.735975    4.337030   -1.379698
    137          1           0       -8.286075    2.742260   -0.782775
    138          1           0       -8.360602    4.039877    0.392142
    139          1           0       -9.858957    7.733234   -0.152611
    140          1           0       -9.938969    6.411580   -1.415975
    141          1           0       -8.996907    6.171626    0.137575
    142          1           0      -16.415415    4.884563    0.814358
    143          1           0      -17.449436    3.026390    2.925195
    144          1           0      -15.969834    6.131582    2.511725
    145          1           0      -14.882947    5.020259    3.251119
    146          1           0      -16.572922    4.939655    3.723560
    147          1           0      -18.753753    2.357077    0.538491
    148          1           0      -18.586450    4.113371    0.419314
    149          1           0      -20.556957    2.488790    1.736366
    150          1           0      -20.327813    4.214978    1.487700
    151          1           0      -19.688994    3.536338    3.001955
    152          1           0      -18.239295   -2.719581    2.544546
    153          1           0      -18.902496   -3.209103    0.966888
    154          1           0      -19.106015   -1.542630    1.448468
    155          1           0      -13.783786   -4.586563    0.676472
    156          1           0      -14.913297   -7.282966   -2.838474
    157          1           0      -13.581118   -8.222060   -2.193600
    158          1           0      -13.203598   -6.765060   -3.004470
 ---------------------------------------------------------------------

 SCF Done:  E(RCAM-B3LYP) =  -4069.75060166     A.U. after   17 cycles

 Excitation energies and oscillator strengths:

 Excited State   1:      Singlet-A      1.6848 eV  735.91 nm  f=0.3999  <S**2>=0.000
     309 -> 316        0.17410
     311 -> 313        0.68810
     309 <- 316        0.10833
 This state for optimization and/or second-order correction.
 Total Energy, E(TD-HF/TD-DFT) =  -4069.68868701
 Copying the excited state density for this state as the 1-particle RhoCI density.

 Excited State   2:      Singlet-A      1.7187 eV  721.40 nm  f=0.3463  <S**2>=0.000
     310 -> 315       -0.18751
     312 -> 314        0.68227
     310 <- 315       -0.10713

 Excited State   3:      Singlet-A      2.2456 eV  552.11 nm  f=0.1081  <S**2>=0.000
     309 -> 313        0.63689
     311 -> 316       -0.29191

 Excited State   4:      Singlet-A      2.2689 eV  546.46 nm  f=0.0057  <S**2>=0.000
     310 -> 314        0.54884
     312 -> 315        0.43680

 Excited State   5:      Singlet-A      2.7474 eV  451.28 nm  f=0.0000  <S**2>=0.000
     312 -> 313        0.70708

 The electronic state is 1-A.
 Alpha  occ. eigenvalues --  -46.89873 -46.89389 -19.26110 -19.25227 -19.20832
 Alpha  occ. eigenvalues --  -19.19762 -19.19710 -19.19450 -19.18704 -19.18338
 Alpha  occ. eigenvalues --  -14.42387 -14.42224 -14.42084 -14.41873 -14.40270
 Alpha  occ. eigenvalues --  -14.39324 -14.39154 -14.39110 -10.40171 -10.39672
 Alpha  occ. eigenvalues --  -10.36446 -10.35639 -10.34863 -10.34100 -10.31889
 Alpha  occ. eigenvalues --  -10.31691 -10.31560 -10.31485 -10.31328 -10.31267
 Alpha  occ. eigenvalues --  -10.31261 -10.31165 -10.31044 -10.30883 -10.30637
 Alpha  occ. eigenvalues --  -10.30545 -10.30440 -10.29724 -10.29346 -10.29132
 Alpha  occ. eigenvalues --  -10.28961 -10.28922 -10.28727 -10.28713 -10.28618
 Alpha  occ. eigenvalues --  -10.28593 -10.28580 -10.28572 -10.28563 -10.28298
 Alpha  occ. eigenvalues --  -10.28275 -10.28209 -10.28191 -10.28112 -10.28061
 Alpha  occ. eigenvalues --  -10.28050 -10.28000 -10.27883 -10.27765 -10.27723
 Alpha  occ. eigenvalues --  -10.27707 -10.27318 -10.27314 -10.27102 -10.26978
 Alpha  occ. eigenvalues --  -10.26925 -10.26899 -10.26778 -10.26510 -10.26492
 Alpha  occ. eigenvalues --  -10.26467 -10.26388 -10.26380 -10.26347 -10.26248
 Alpha  occ. eigenvalues --  -10.26191 -10.25917 -10.25912 -10.25844 -10.25766
 Alpha  occ. eigenvalues --  -10.25529 -10.25324 -10.25050 -10.24993 -10.24887
 Alpha  occ. eigenvalues --  -10.24706  -3.18291  -3.17726  -1.93141  -1.92801
 Alpha  occ. eigenvalues --   -1.92623  -1.92558  -1.92168  -1.92027  -1.16173
 Alpha  occ. eigenvalues --   -1.15995  -1.11701  -1.10876  -1.10357  -1.08828
 Alpha  occ. eigenvalues --   -1.07804  -1.07079  -1.04986  -1.04039  -1.02989
 Alpha  occ. eigenvalues --   -1.02987  -1.02660  -1.02460  -1.01668  -1.01391
 Alpha  occ. eigenvalues --   -0.92323  -0.91174  -0.89284  -0.88887  -0.88642
 Alpha  occ. eigenvalues --   -0.88457  -0.88261  -0.88152  -0.87462  -0.87206
 Alpha  occ. eigenvalues --   -0.86946  -0.86503  -0.85886  -0.85427  -0.84363
 Alpha  occ. eigenvalues --   -0.84172  -0.83739  -0.83439  -0.82780  -0.82567
 Alpha  occ. eigenvalues --   -0.82471  -0.82304  -0.81227  -0.80630  -0.80409
 Alpha  occ. eigenvalues --   -0.80333  -0.78171  -0.77907  -0.77499  -0.77404
 Alpha  occ. eigenvalues --   -0.76845  -0.76487  -0.76206  -0.75421  -0.75011
 Alpha  occ. eigenvalues --   -0.74878  -0.72736  -0.72123  -0.71420  -0.71393
 Alpha  occ. eigenvalues --   -0.69305  -0.68753  -0.68516  -0.67826  -0.67541
 Alpha  occ. eigenvalues --   -0.67367  -0.66589  -0.66320  -0.65988  -0.65061
 Alpha  occ. eigenvalues --   -0.64913  -0.64890  -0.64586  -0.64387  -0.64252
 Alpha  occ. eigenvalues --   -0.64172  -0.62912  -0.61990  -0.59877  -0.59725
 Alpha  occ. eigenvalues --   -0.59557  -0.59071  -0.59065  -0.58650  -0.58388
 Alpha  occ. eigenvalues --   -0.58189  -0.58085  -0.57540  -0.57371  -0.57047
 Alpha  occ. eigenvalues --   -0.56403  -0.55938  -0.55506  -0.55417  -0.55046
 Alpha  occ. eigenvalues --   -0.55012  -0.54924  -0.54273  -0.54078  -0.53964
 Alpha  occ. eigenvalues --   -0.53930  -0.53500  -0.53326  -0.52920  -0.52798
 Alpha  occ. eigenvalues --   -0.52703  -0.52690  -0.52540  -0.52524  -0.52403
 Alpha  occ. eigenvalues --   -0.52167  -0.51865  -0.51815  -0.51722  -0.51210
 Alpha  occ. eigenvalues --   -0.51109  -0.50878  -0.50511  -0.50371  -0.50270
 Alpha  occ. eigenvalues --   -0.50170  -0.50155  -0.50083  -0.49781  -0.49689
 Alpha  occ. eigenvalues --   -0.49468  -0.49294  -0.49218  -0.49068  -0.48880
 Alpha  occ. eigenvalues --   -0.48838  -0.48606  -0.48535  -0.48148  -0.48093
 Alpha  occ. eigenvalues --   -0.47959  -0.47952  -0.47792  -0.47387  -0.47383
 Alpha  occ. eigenvalues --   -0.47100  -0.47026  -0.46575  -0.46501  -0.46499
 Alpha  occ. eigenvalues --   -0.46254  -0.46186  -0.46046  -0.45999  -0.45798
 Alpha  occ. eigenvalues --   -0.45749  -0.45341  -0.45324  -0.45037  -0.44838
 Alpha  occ. eigenvalues --   -0.44590  -0.44590  -0.44491  -0.44303  -0.44148
 Alpha  occ. eigenvalues --   -0.44042  -0.44039  -0.43700  -0.43606  -0.43456
 Alpha  occ. eigenvalues --   -0.43405  -0.43184  -0.43113  -0.42979  -0.42790
 Alpha  occ. eigenvalues --   -0.42786  -0.42754  -0.42579  -0.42316  -0.42270
 Alpha  occ. eigenvalues --   -0.41952  -0.41864  -0.41496  -0.41417  -0.41151
 Alpha  occ. eigenvalues --   -0.41081  -0.41058  -0.40737  -0.40546  -0.40173
 Alpha  occ. eigenvalues --   -0.39871  -0.39797  -0.38800  -0.38724  -0.38500
 Alpha  occ. eigenvalues --   -0.38268  -0.37829  -0.37810  -0.37221  -0.37147
 Alpha  occ. eigenvalues --   -0.37036  -0.36908  -0.36789  -0.36314  -0.36100
 Alpha  occ. eigenvalues --   -0.35692  -0.34875  -0.34733  -0.34338  -0.33946
 Alpha  occ. eigenvalues --   -0.33778  -0.33354  -0.33052  -0.31690  -0.31651
 Alpha  occ. eigenvalues --   -0.31360  -0.31327  -0.30582  -0.30292  -0.30049
 Alpha  occ. eigenvalues --   -0.30033  -0.29289  -0.29248  -0.24391  -0.24209
 Alpha  occ. eigenvalues --   -0.21245  -0.20160
 Alpha virt. eigenvalues --   -0.08857  -0.07531  -0.02467  -0.01723   0.00050
 Alpha virt. eigenvalues --    0.00318   0.01260   0.01856   0.02088   0.02441
 Alpha virt. eigenvalues --    0.04482   0.04583   0.04915   0.05504   0.05731

 Mulliken charges:
               1
     1  Mg  11.998764
     2  C    6.012435
     3  C    5.971328
     4  C    5.986188
     5  C    6.028728
     6  N    6.990896
     7  C    5.971176
     8  C    6.013977
     9  C    5.987580
    10  C    6.042898
    11  C    5.998547
    12  C    6.001645
    13  C    6.004337
    14  H    0.988509
    15  N    6.989768
    16  C    6.058589
    17  C    6.008790
    18  C    6.022471
    19  C    6.035163
    20  C    5.992684
    21  C    6.012418
    22  O    8.020887
    23  C    5.996074
    24  N    7.014862
    25  C    6.025753
    26  C    5.991170
    27  C    6.008651
    28  C    5.960777
    29  C    5.998614
    30  C    6.002326
    31  C    6.000952
    32  N    7.002794
    33  C    5.950620
    34  C    5.980015
    35  C    5.987857
    36  C    5.972080
    37  C    6.002759
    38  C    5.982734
    39  O    7.968844
    40  C    5.997438
    41  C    5.994464
    42  O    7.994900
    43  O    7.996801
    44  C    6.003210
    45  H    1.008563
    46  H    1.007851
    47  H    0.993221
    48  H    0.997251
    49  H    1.004042
    50  H    1.003229
    51  H    1.014345
    52  H    0.995600
    53  H    0.987544
    54  H    1.009329
    55  H    1.003329
    56  H    0.995847
    57  H    1.019347
    58  H    1.016817
    59  H    1.018994
    60  H    1.012091
    61  H    1.013260
    62  H    1.008391
    63  H    1.002419
    64  H    0.999097
    65  H    0.999858
    66  H    0.995997
    67  H    1.010886
    68  H    1.005133
    69  H    0.990936
    70  H    1.003636
    71  H    0.995739
    72  H    0.996624
    73  H    0.986223
    74  H    0.976921
    75  H    0.981096
    76  H    0.989548
    77  H    0.993544
    78  H    0.996923
    79  H    0.994895
    80  Mg  11.999889
    81  C    6.000483
    82  C    5.999968
    83  C    5.999343
    84  C    6.000154
    85  N    7.000238
    86  C    5.999498
    87  C    6.000089
    88  C    5.999710
    89  C    6.000492
    90  C    5.999825
    91  C    6.000031
    92  C    5.999928
    93  H    1.000025
    94  N    6.999719
    95  C    6.000489
    96  C    6.000315
    97  C    6.000087
    98  C    6.000711
    99  C    5.999911
   100  C    6.000117
   101  O    8.000183
   102  C    6.000003
   103  N    6.999919
   104  C    6.000687
   105  C    5.999779
   106  C    6.000299
   107  C    5.999477
   108  C    6.000059
   109  C    6.000002
   110  C    6.000110
   111  N    7.000082
   112  C    5.999406
   113  C    5.999416
   114  C    6.000020
   115  C    5.999440
   116  C    6.000079
   117  C    5.999726
   118  O    7.999573
   119  C    6.000041
   120  C    5.999979
   121  O    7.999864
   122  O    8.000040
   123  C    6.000013
   124  H    1.000423
   125  H    0.999927
   126  H    0.999725
   127  H    1.000182
   128  H    1.000357
   129  H    1.000033
   130  H    1.000319
   131  H    1.000499
   132  H    0.999920
   133  H    0.999907
   134  H    1.000056
   135  H    1.000270
   136  H    1.000119
   137  H    1.000539
   138  H    1.000351
   139  H    0.999988
   140  H    1.000029
   141  H    1.000194
   142  H    0.999880
   143  H    0.999837
   144  H    0.999851
   145  H    0.999982
   146  H    1.000051
   147  H    1.000085
   148  H    0.999739
   149  H    0.999988
   150  H    0.999777
   151  H    0.999894
   152  H    0.999676
   153  H    0.999658
   154  H    0.999616
   155  H    1.000012
   156  H    0.999848
   157  H    1.000033
   158  H    1.000019
 Sum of Mulliken charges = 624.00000

 Dipole moment (field-independent basis, Debye):
    X=              7.3096    Y=              8.1859    Z=             -2.1805  Tot=             11.1890
 Quadrupole moment (field-independent basis, Debye-Ang):
   XX=            197.6376   YY=             -0.3591   ZZ=             -0.3981
   XY=            116.5237   XZ=            -31.8045   YZ=             -0.1488

 Normal termination of Gaussian 16 at Wed Sep 22 06:10:46 2021.
