 Gaussian 16, Revision A.03,
 Gaussian 16:  ES64L-G16RevA.03 25-Dec-2016

 -----------------------------------------------------
 #p cam-b3lyp/Def2SVP td=(nstates=5) density=(current)
 -----------------------------------------------------

 --------------------------------
 TDDFT excited states in gaussian
 --------------------------------
 Symbolic Z-matrix:
 Charge =  0 Multiplicity = 1

                         Standard orientation:
 ---------------------------------------------------------------------
 Center     Atomic      Atomic             Coordinates (Angstroms)
 Number     Number       Type             X           Y           Z
 ---------------------------------------------------------------------
      1         12           0       -0.757163    0.065795   -0.602750
      2          6           0        2.860667    0.138794   -0.189319
      3          6           0       -0.515881   -3.353512   -0.802000
      4          6           0       -3.910624   -0.143375    0.490108
      5          6           0       -0.789892    3.462721   -0.524232
      6          7           0        1.001910   -1.438665   -0.303967
      7          6           0        2.413646   -1.158783   -0.222752
      8          6           0        3.200028   -2.462756   -0.384107
      9          6           0        2.158534   -3.476869   -0.942417
     10          6           0        0.758130   -2.758345   -0.704750
     11          6           0        2.357769   -3.812235   -2.495969
     12          6           0        4.031777   -2.912321    0.781419
     13          6           0        3.726328   -2.283854    2.161571
     14          1           0        4.394190   -2.636005    3.503363
     15          7           0       -2.101034   -1.548304   -0.338025
     16          6           0       -1.789931   -2.885071   -0.454002
     17          6           0       -3.051020   -3.671625   -0.281661
     18          6           0       -3.966047   -2.737619    0.197431
     19          6           0       -3.365754   -1.405619    0.198310
     20          6           0       -3.068352   -5.144445   -0.490626
     21          6           0       -5.407665   -3.081647    0.672885
     22          8           0       -5.729692   -4.256016    0.708086
     23          6           0       -6.375768   -2.091865    1.231040
     24          7           0       -2.062455    1.509459    0.050751
     25          6           0       -3.379772    1.135583    0.313985
     26          6           0       -4.269054    2.363432    0.510076
     27          6           0       -3.394254    3.520267   -0.095501
     28          6           0       -2.045662    2.811281   -0.238926
     29          6           0       -5.698454    2.345230   -0.090069
     30          6           0       -3.329788    4.841572    0.735800
     31          6           0       -4.144246    6.080608    0.142699
     32          7           0        0.709234    1.556418   -0.482297
     33          6           0        0.525965    2.930069   -0.546054
     34          6           0        1.812769    3.571895   -0.657226
     35          6           0        2.701316    2.510140   -0.439671
     36          6           0        1.956419    1.307283   -0.365232
     37          6           0        2.000350    5.093882   -0.781276
     38          6           0        4.080066    2.136897   -0.356333
     39          8           0        5.044653    2.917973   -0.482445
     40          6           0        4.290757    0.558252   -0.330937
     41          6           0        5.181109    0.326588    0.823937
     42          8           0        5.043773    0.779732    1.965124
     43          8           0        6.105262   -0.579854    0.421722
     44          6           0        7.238696   -0.834776    1.365134
     45          1           0       -0.438828   -4.441390   -0.847736
     46          1           0       -4.944324   -0.227369    0.832724
     47          1           0       -0.832091    4.548846   -0.625548
     48          1           0        3.845210   -2.133189   -1.198531
     49          1           0        2.066514   -4.373536   -0.329281
     50          1           0        2.658557   -4.859113   -2.485784
     51          1           0        3.094722   -3.131129   -2.922199
     52          1           0        1.368631   -3.713139   -2.944470
     53          1           0        5.070166   -2.792215    0.473051
     54          1           0        3.819118   -3.981900    0.780322
     55          1           0        2.654715   -2.431741    2.298950
     56          1           0        3.919815   -1.211630    2.124166
     57          1           0       -3.216116   -5.583005    0.495822
     58          1           0       -2.116990   -5.435138   -0.935146
     59          1           0       -3.847344   -5.397735   -1.210588
     60          1           0       -6.128892   -1.605301    2.173887
     61          1           0       -7.326052   -2.545589    1.510926
     62          1           0       -6.506178   -1.437508    0.369230
     63          1           0       -4.293260    2.336222    1.600083
     64          1           0       -3.803888    3.675478   -1.093851
     65          1           0       -6.474815    2.119203    0.641577
     66          1           0       -5.771894    1.549363   -0.830468
     67          1           0       -5.853044    3.301103   -0.591769
     68          1           0       -2.318394    5.197921    0.933228
     69          1           0       -3.704637    4.550107    1.717020
     70          1           0       -4.627679    6.477231    1.035143
     71          1           0       -4.884742    5.824757   -0.615282
     72          1           0       -3.420112    6.715532   -0.366549
     73          1           0        2.894353    5.410801   -1.318779
     74          1           0        2.104233    5.369930    0.267500
     75          1           0        1.205301    5.522561   -1.390991
     76          1           0        4.723578    0.238820   -1.280091
     77          1           0        7.904367   -1.582543    0.932668
     78          1           0        6.879250   -1.225705    2.317203
     79          1           0        7.693981    0.151747    1.440064
 ---------------------------------------------------------------------

 SCF Done:  E(RCAM-B3LYP) =  -2034.87044375     A.U. after   19 cycles

 Excitation energies and oscillator strengths:

 Excited State   1:      Singlet-A      1.6561 eV  748.63 nm  f=0.3584  <S**2>=0.000
     155 ->158         0.15669
     156 ->157         0.69070
     155 <-158         0.10161
 This state for optimization and/or second-order correction.
 Total Energy, E(TD-HF/TD-DFT) =  -2034.80958158
 Copying the excited state density for this state as the 1-particle RhoCI density.

 Excited State   2:      Singlet-A      2.2760 eV  544.76 nm  f=0.0764  <S**2>=0.000
     155 ->157         0.61916
     156 ->158        -0.32524

 Excited State   3:      Singlet-A      3.3197 eV  373.49 nm  f=0.0225  <S**2>=0.000
     152 ->157        -0.14347
     153 ->157        -0.12927
     154 ->157         0.55214
     154 ->159         0.17341
     154 ->160        -0.12940
     154 ->161        -0.24497
     156 ->158        -0.13510

 Excited State   4:      Singlet-A      3.3679 eV  368.13 nm  f=0.1330  <S**2>=0.000
     152 ->157         0.55182
     153 ->157        -0.11022
     154 ->157         0.14124
     155 ->157         0.12010
     156 ->158         0.33029

 Excited State   5:      Singlet-A      3.4877 eV  355.49 nm  f=0.1954  <S**2>=0.000
     152 ->157        -0.20020
     153 ->157         0.50878
     154 ->157         0.15411
     155 ->157         0.15992
     156 ->158         0.33662
     156 ->159        -0.11714
     156 ->160        -0.10609

 The electronic state is 1-A.
 Alpha  occ. eigenvalues --  -46.89313 -19.25370 -19.19430 -19.19085 -19.17082
 Alpha  occ. eigenvalues --  -14.42477 -14.41554 -14.39734 -14.38749 -10.39143
 Alpha  occ. eigenvalues --  -10.35510 -10.33542 -10.32136 -10.31942 -10.31661
 Alpha  occ. eigenvalues --  -10.31013 -10.30882 -10.30820 -10.30509 -10.29015
 Alpha  occ. eigenvalues --  -10.28843 -10.28724 -10.28524 -10.28486 -10.28400
 Alpha  occ. eigenvalues --  -10.27885 -10.27866 -10.27681 -10.27644 -10.27617
 Alpha  occ. eigenvalues --  -10.27565 -10.27307 -10.27244 -10.27174 -10.27129
 Alpha  occ. eigenvalues --  -10.26929 -10.26900 -10.26795 -10.26399 -10.26267
 Alpha  occ. eigenvalues --  -10.26040 -10.25950 -10.23984  -3.17800  -1.92673
 Alpha  occ. eigenvalues --   -1.92278  -1.92083  -1.16090  -1.10694  -1.07488
 Alpha  occ. eigenvalues --   -1.06686  -1.04846  -1.04029  -1.02829  -1.00359
 Alpha  occ. eigenvalues --   -0.91944  -0.89353  -0.88981  -0.88615  -0.86830
 Alpha  occ. eigenvalues --   -0.86656  -0.86092  -0.84383  -0.83707  -0.82738
 Alpha  occ. eigenvalues --   -0.82359  -0.80973  -0.80175  -0.78029  -0.77763
 Alpha  occ. eigenvalues --   -0.76497  -0.76006  -0.75256  -0.73038  -0.71688
 Alpha  occ. eigenvalues --   -0.69644  -0.69019  -0.67615  -0.66917  -0.66193
 Alpha  occ. eigenvalues --   -0.65374  -0.64671  -0.63548  -0.62126  -0.59632
 Alpha  occ. eigenvalues --   -0.59125  -0.59052  -0.58032  -0.57506  -0.57204
 Alpha  occ. eigenvalues --   -0.56779  -0.56289  -0.55182  -0.54575  -0.54249
 Alpha  occ. eigenvalues --   -0.53675  -0.53464  -0.52864  -0.52556  -0.52299
 Alpha  occ. eigenvalues --   -0.51842  -0.51386  -0.51214  -0.51051  -0.50658
 Alpha  occ. eigenvalues --   -0.49980  -0.49669  -0.49539  -0.48950  -0.48786
 Alpha  occ. eigenvalues --   -0.48355  -0.48120  -0.47761  -0.47610  -0.47158
 Alpha  occ. eigenvalues --   -0.46915  -0.46799  -0.46552  -0.46243  -0.45720
 Alpha  occ. eigenvalues --   -0.45466  -0.45193  -0.44961  -0.44449  -0.43995
 Alpha  occ. eigenvalues --   -0.43949  -0.43484  -0.43422  -0.42830  -0.42739
 Alpha  occ. eigenvalues --   -0.42563  -0.42285  -0.42127  -0.41931  -0.41753
 Alpha  occ. eigenvalues --   -0.41079  -0.40771  -0.39925  -0.39357  -0.39090
 Alpha  occ. eigenvalues --   -0.38511  -0.37412  -0.37102  -0.36589  -0.36350
 Alpha  occ. eigenvalues --   -0.35844  -0.34385  -0.33831  -0.32698  -0.31533
 Alpha  occ. eigenvalues --   -0.31179  -0.30111  -0.29438  -0.29239  -0.24460
 Alpha  occ. eigenvalues --   -0.20761
 Alpha virt. eigenvalues --   -0.08592  -0.01799   0.00919   0.01464   0.02491
 Alpha virt. eigenvalues --    0.04879   0.05401   0.06103   0.07013   0.08104
 Alpha virt. eigenvalues --    0.08739   0.08998   0.09411   0.09779   0.10380

 Mulliken charges:
               1
     1  Mg   0.809765
     2  C   -0.040847
     3  C   -0.065137
     4  C   -0.077236
     5  C   -0.086989
     6  N   -0.323891
     7  C   -0.083818
     8  C    0.030036
     9  C   -0.091346
    10  C    0.025905
    11  C    0.084024
    12  C    0.077978
    13  C   -0.048373
    14  H    0.020499
    15  N   -0.390331
    16  C    0.121000
    17  C   -0.148953
    18  C   -0.037623
    19  C    0.143182
    20  C    0.155689
    21  C   -0.017708
    22  O   -0.203752
    23  C    0.067762
    24  N   -0.328812
    25  C    0.082520
    26  C   -0.082396
    27  C    0.031201
    28  C    0.022098
    29  C    0.081248
    30  C    0.021596
    31  C   -0.006780
    32  N   -0.284522
    33  C    0.098669
    34  C   -0.171964
    35  C    0.047022
    36  C    0.088709
    37  C    0.115041
    38  C    0.000240
    39  O   -0.214727
    40  C    0.048264
    41  C    0.197675
    42  O   -0.232663
    43  O   -0.339437
    44  C    0.180706
    45  H   -0.021202
    46  H   -0.065857
    47  H   -0.033144
    48  H    0.003595
    49  H    0.016640
    50  H    0.026505
    51  H    0.027882
    52  H    0.021407
    53  H    0.007054
    54  H   -0.006485
    55  H    0.025790
    56  H    0.048892
    57  H    0.046043
    58  H   -0.004168
    59  H    0.032985
    60  H    0.051855
    61  H    0.018399
    62  H    0.035540
    63  H    0.031834
    64  H    0.012604
    65  H    0.021237
    66  H    0.017741
    67  H    0.020549
    68  H    0.022800
    69  H    0.003128
    70  H    0.030964
    71  H    0.016326
    72  H    0.027003
    73  H    0.029957
    74  H    0.050577
    75  H    0.020246
    76  H    0.043234
    77  H    0.041450
    78  H    0.050660
    79  H    0.054438
 Sum of Mulliken charges =  -0.00000

 Dipole moment (field-independent basis, Debye):
    X=             -2.8523    Y=              0.8331    Z=             -2.6698  Tot=              3.9947
 Quadrupole moment (field-independent basis, Debye-Ang):
   XX=           -254.9406   YY=           -255.7682   ZZ=           -257.4614
   XY=            -53.0183   XZ=             -4.2179   YZ=              2.5465

 Normal termination of Gaussian 16 at Fri Oct  8 12:19:36 2021.
