 Gaussian 16, Revision A.03,
 Gaussian 16:  ES64L-G16RevA.03 25-Dec-2016

 ----------------------------------------------------------
 #p cam-b3lyp/Def2SVP td=(nstates=5) density=(transition=1)
 ----------------------------------------------------------

 --------------------------------
 TDDFT excited states in gaussian
 --------------------------------
 Symbolic Z-matrix:
 Charge =  0 Multiplicity = 1

                         Standard orientation:
 ---------------------------------------------------------------------
 Center     Atomic      Atomic             Coordinates (Angstroms)
 Number     Number       Type             X           Y           Z
 ---------------------------------------------------------------------
      1         12           0      -16.318910   -0.863953    0.075542
      2          6           0      -18.159667    2.110096    0.929268
      3          6           0      -13.695532    1.180318   -0.694322
      4          6           0      -14.720245   -3.608289   -1.003510
      5          6           0      -19.198117   -2.632885    0.439145
      6          7           0      -15.966395    1.486246    0.175307
      7          6           0      -16.875926    2.411163    0.599232
      8          6           0      -16.167778    3.709293    0.692635
      9          6           0      -14.776194    3.464873    0.046012
     10          6           0      -14.752935    1.940971   -0.253415
     11          6           0      -14.591399    4.289987   -1.267188
     12          6           0      -16.081205    4.314778    2.071275
     13          6           0      -15.586101    5.743924    2.224105
     14          1           0      -16.405149    6.645908    3.048431
     15          7           0      -14.452667   -1.178341   -0.620608
     16          6           0      -13.515997   -0.168293   -0.974499
     17          6           0      -12.273945   -0.865309   -1.358022
     18          6           0      -12.622372   -2.203480   -1.521730
     19          6           0      -14.023248   -2.371446   -1.094543
     20          6           0      -11.007220   -0.096806   -1.671561
     21          6           0      -11.753870   -3.399919   -1.966882
     22          8           0      -12.211357   -4.510093   -2.296944
     23          6           0      -10.293328   -3.199522   -1.965032
     24          7           0      -16.881191   -2.869486   -0.313037
     25          6           0      -16.094667   -3.839580   -0.731852
     26          6           0      -16.825043   -5.201088   -0.892828
     27          6           0      -18.151137   -4.894766   -0.193297
     28          6           0      -18.060919   -3.402688    0.030948
     29          6           0      -17.004946   -5.583414   -2.400751
     30          6           0      -18.440847   -5.650187    1.084117
     31          6           0      -19.873509   -6.184018    1.260517
     32          7           0      -18.231279   -0.382017    0.663975
     33          6           0      -19.302196   -1.242130    0.771707
     34          6           0      -20.515556   -0.537670    1.285274
     35          6           0      -20.035378    0.756204    1.309711
     36          6           0      -18.701685    0.831217    0.890272
     37          6           0      -21.800071   -1.126180    1.773819
     38          6           0      -20.449458    2.114931    1.627314
     39          8           0      -21.531424    2.482573    2.071040
     40          6           0      -19.254462    3.069024    1.400287
     41          6           0      -19.741442    4.146095    0.576700
     42          8           0      -19.966292    4.110001   -0.657100
     43          8           0      -19.776077    5.305895    1.289533
     44          6           0      -19.972552    6.551380    0.580403
     45          1           0      -12.820796    1.811490   -0.862841
     46          1           0      -14.263649   -4.464592   -1.503921
     47          1           0      -20.098996   -3.233561    0.298861
     48          1           0      -16.762719    4.352617    0.045671
     49          1           0      -13.955476    3.735181    0.710660
     50          1           0      -13.726500    4.924795   -1.462297
     51          1           0      -15.460503    4.947261   -1.289516
     52          1           0      -14.744263    3.730029   -2.190173
     53          1           0      -15.369432    3.774111    2.695330
     54          1           0      -16.965704    4.095675    2.668760
     55          1           0      -15.511003    6.230915    1.252993
     56          1           0      -14.700471    5.671626    2.854866
     57          1           0      -10.505435   -0.414042   -2.585476
     58          1           0      -10.265233   -0.120002   -0.873682
     59          1           0      -11.152915    0.964231   -1.875721
     60          1           0      -10.002612   -2.797929   -0.994202
     61          1           0      -10.163221   -2.450234   -2.745115
     62          1           0       -9.848634   -4.191122   -2.040681
     63          1           0      -16.225032   -5.931009   -0.348334
     64          1           0      -19.051072   -5.023967   -0.793888
     65          1           0      -18.052349   -5.554919   -2.699681
     66          1           0      -16.679700   -6.606165   -2.591339
     67          1           0      -16.441767   -4.833024   -2.955798
     68          1           0      -18.189674   -5.063525    1.967197
     69          1           0      -17.619555   -6.362331    1.157475
     70          1           0      -19.801730   -7.064863    1.897787
     71          1           0      -20.397605   -6.323847    0.314565
     72          1           0      -20.349093   -5.339091    1.758086
     73          1           0      -21.876841   -1.196599    2.858990
     74          1           0      -21.923691   -2.049433    1.208479
     75          1           0      -22.633553   -0.569772    1.343282
     76          1           0      -19.095321    3.535447    2.372473
     77          1           0      -19.966312    6.462011   -0.506236
     78          1           0      -19.274209    7.309304    0.934272
     79          1           0      -20.936846    7.004906    0.811136
     80         12           0       16.723444   -0.587031    0.250487
     81          6           0       15.512068    2.354327   -1.069702
     82          6           0       18.566736    1.354687    2.616980
     83          6           0       18.197467   -3.311053    1.331982
     84          6           0       15.036863   -2.425572   -2.186469
     85          7           0       16.944810    1.603856    0.656201
     86          6           0       16.333378    2.604854    0.016099
     87          6           0       16.686278    3.951186    0.728506
     88          6           0       17.783016    3.561574    1.822405
     89          6           0       17.818125    2.029389    1.662406
     90          6           0       19.201559    4.038300    1.576215
     91          6           0       15.478659    4.727781    1.274594
     92          6           0       15.495995    6.175483    0.813559
     93          1           0       14.821432    7.279010    1.641392
     94          7           0       18.119656   -0.918916    1.819826
     95          6           0       18.710372   -0.049419    2.690792
     96          6           0       19.521037   -0.698816    3.621391
     97          6           0       19.551527   -2.078991    3.217011
     98          6           0       18.578805   -2.167154    2.073511
     99          6           0       20.244822    0.003976    4.760729
    100          6           0       20.397511   -3.217375    3.763585
    101          8           0       20.394180   -4.304407    3.153914
    102          6           0       21.303731   -3.035906    4.912141
    103          7           0       16.584745   -2.529849   -0.334525
    104          6           0       17.254905   -3.552427    0.305006
    105          6           0       17.012364   -4.980319   -0.310865
    106          6           0       15.775259   -4.646231   -1.249290
    107          6           0       15.801548   -3.107192   -1.283806
    108          6           0       18.150284   -5.745806   -1.094827
    109          6           0       14.375900   -5.351535   -0.946486
    110          6           0       13.590655   -4.770527    0.199606
    111          7           0       15.645535   -0.196496   -1.377264
    112          6           0       15.006230   -0.999329   -2.302675
    113          6           0       14.291925   -0.251811   -3.255021
    114          6           0       14.443707    1.053141   -2.772249
    115          6           0       15.276096    1.061404   -1.615206
    116          6           0       13.503164   -0.886555   -4.319871
    117          6           0       14.124484    2.374092   -3.156482
    118          8           0       13.546102    2.741941   -4.180975
    119          6           0       14.784439    3.341348   -2.041201
    120          6           0       15.682803    4.276238   -2.695525
    121          8           0       16.780488    4.035217   -3.143400
    122          8           0       15.090773    5.453997   -2.851087
    123          6           0       15.765402    6.480226   -3.586982
    124          1           0       19.165415    1.958248    3.301741
    125          1           0       18.606117   -4.293040    1.577983
    126          1           0       14.527537   -3.038970   -2.932713
    127          1           0       17.179132    4.474320   -0.090341
    128          1           0       17.469049    4.070569    2.734381
    129          1           0       19.314931    4.699708    0.716746
    130          1           0       19.851060    3.190348    1.360563
    131          1           0       19.624044    4.433595    2.500478
    132          1           0       15.369728    4.706649    2.359072
    133          1           0       14.578726    4.231483    0.912161
    134          1           0       14.921913    6.197960   -0.113446
    135          1           0       16.546441    6.433440    0.680267
    136          1           0       19.889709    1.025872    4.894253
    137          1           0       21.289810    0.138505    4.480575
    138          1           0       20.244180   -0.607053    5.662588
    139          1           0       22.078850   -3.803052    4.919470
    140          1           0       20.707034   -3.189887    5.811755
    141          1           0       21.769964   -2.051628    4.875529
    142          1           0       16.572356   -5.672049    0.408176
    143          1           0       15.974078   -5.056396   -2.238624
    144          1           0       19.041215   -5.119283   -1.078809
    145          1           0       17.914556   -5.729648   -2.159653
    146          1           0       18.394777   -6.763719   -0.789845
    147          1           0       14.615894   -6.368679   -0.637740
    148          1           0       13.736602   -5.464455   -1.821239
    149          1           0       12.536927   -4.911313   -0.038555
    150          1           0       13.750889   -3.744573    0.528656
    151          1           0       13.864428   -5.349255    1.081789
    152          1           0       13.055117   -1.861425   -4.129240
    153          1           0       13.938867   -0.862350   -5.317981
    154          1           0       12.692918   -0.165991   -4.428246
    155          1           0       13.975410    3.888428   -1.557563
    156          1           0       16.399845    7.098247   -2.950633
    157          1           0       14.994995    7.143037   -3.980576
    158          1           0       16.386044    6.032247   -4.363158
 ---------------------------------------------------------------------

 SCF Done:  E(RCAM-B3LYP) =  -4069.83563748     A.U. after   17 cycles

 Excitation energies and oscillator strengths:

 Excited State   1:      Singlet-A      1.7068 eV  726.43 nm  f=0.4257  <S**2>=0.000
     309 -> 316       -0.17255
     311 -> 313        0.68645
     309 <- 316       -0.10533
 This state for optimization and/or second-order correction.
 Total Energy, E(TD-HF/TD-DFT) =  -4069.77291539
 Copying the excited state density for this state as the 1-particle RhoCI density.

 Excited State   2:      Singlet-A      1.7541 eV  706.84 nm  f=0.3716  <S**2>=0.000
     310 -> 315        0.19884
     312 -> 314        0.68095
     310 <- 315        0.11266

 Excited State   3:      Singlet-A      2.2215 eV  558.10 nm  f=0.1584  <S**2>=0.000
     309 -> 313        0.65328
     311 -> 316        0.25407

 Excited State   4:      Singlet-A      2.3188 eV  534.70 nm  f=0.0719  <S**2>=0.000
     310 -> 314        0.61702
     312 -> 315       -0.33884

 Excited State   5:      Singlet-A      2.9221 eV  424.29 nm  f=0.0000  <S**2>=0.000
     312 -> 313        0.70709

 The electronic state is 1-A.
 Alpha  occ. eigenvalues --  -46.88507 -46.87733 -19.25168 -19.24876 -19.19035
 Alpha  occ. eigenvalues --  -19.18842 -19.18672 -19.18640 -19.18614 -19.18286
 Alpha  occ. eigenvalues --  -14.42346 -14.42213 -14.41913 -14.41109 -14.39771
 Alpha  occ. eigenvalues --  -14.39761 -14.39606 -14.39011 -10.39145 -10.38350
 Alpha  occ. eigenvalues --  -10.35254 -10.34913 -10.34560 -10.34457 -10.31549
 Alpha  occ. eigenvalues --  -10.31267 -10.31234 -10.31222 -10.31205 -10.30785
 Alpha  occ. eigenvalues --  -10.30756 -10.30613 -10.30567 -10.30481 -10.30412
 Alpha  occ. eigenvalues --  -10.30399 -10.30202 -10.30087 -10.29432 -10.29101
 Alpha  occ. eigenvalues --  -10.29040 -10.29035 -10.28607 -10.28600 -10.28575
 Alpha  occ. eigenvalues --  -10.28407 -10.28329 -10.28323 -10.28316 -10.28124
 Alpha  occ. eigenvalues --  -10.28018 -10.28010 -10.27999 -10.27958 -10.27747
 Alpha  occ. eigenvalues --  -10.27707 -10.27634 -10.27609 -10.27545 -10.27539
 Alpha  occ. eigenvalues --  -10.27342 -10.27332 -10.27237 -10.27228 -10.27087
 Alpha  occ. eigenvalues --  -10.26972 -10.26923 -10.26847 -10.26654 -10.26348
 Alpha  occ. eigenvalues --  -10.26323 -10.26290 -10.26233 -10.26223 -10.26209
 Alpha  occ. eigenvalues --  -10.26098 -10.25991 -10.25944 -10.25929 -10.25797
 Alpha  occ. eigenvalues --  -10.25771 -10.25698 -10.25606 -10.25031 -10.24686
 Alpha  occ. eigenvalues --  -10.24611  -3.17112  -3.16518  -1.92021  -1.91559
 Alpha  occ. eigenvalues --   -1.91425  -1.91415  -1.90989  -1.90822  -1.17981
 Alpha  occ. eigenvalues --   -1.16116  -1.09480  -1.09067  -1.08903  -1.08547
 Alpha  occ. eigenvalues --   -1.07845  -1.05963  -1.05774  -1.04641  -1.04585
 Alpha  occ. eigenvalues --   -1.03749  -1.03379  -1.03081  -1.02594  -1.02187
 Alpha  occ. eigenvalues --   -0.93169  -0.92137  -0.90100  -0.89413  -0.89321
 Alpha  occ. eigenvalues --   -0.88821  -0.88482  -0.88393  -0.87698  -0.87594
 Alpha  occ. eigenvalues --   -0.87564  -0.87086  -0.86832  -0.86630  -0.84679
 Alpha  occ. eigenvalues --   -0.84641  -0.84072  -0.83912  -0.82999  -0.82939
 Alpha  occ. eigenvalues --   -0.82610  -0.82443  -0.81248  -0.81229  -0.80884
 Alpha  occ. eigenvalues --   -0.80643  -0.78673  -0.78386  -0.77725  -0.77447
 Alpha  occ. eigenvalues --   -0.77380  -0.76943  -0.76580  -0.76028  -0.75330
 Alpha  occ. eigenvalues --   -0.75251  -0.73498  -0.72995  -0.71959  -0.71499
 Alpha  occ. eigenvalues --   -0.69700  -0.69552  -0.69268  -0.68886  -0.68090
 Alpha  occ. eigenvalues --   -0.67844  -0.67194  -0.66536  -0.66428  -0.65442
 Alpha  occ. eigenvalues --   -0.65415  -0.65113  -0.64967  -0.64653  -0.64564
 Alpha  occ. eigenvalues --   -0.64432  -0.62547  -0.62392  -0.60474  -0.60414
 Alpha  occ. eigenvalues --   -0.60050  -0.59909  -0.59494  -0.59042  -0.58782
 Alpha  occ. eigenvalues --   -0.58560  -0.58400  -0.58399  -0.57730  -0.57616
 Alpha  occ. eigenvalues --   -0.56574  -0.56471  -0.56252  -0.55755  -0.55522
 Alpha  occ. eigenvalues --   -0.55138  -0.54720  -0.54443  -0.54409  -0.54034
 Alpha  occ. eigenvalues --   -0.53898  -0.53582  -0.53491  -0.53214  -0.53173
 Alpha  occ. eigenvalues --   -0.52972  -0.52822  -0.52551  -0.52401  -0.52181
 Alpha  occ. eigenvalues --   -0.51977  -0.51887  -0.51770  -0.51693  -0.51376
 Alpha  occ. eigenvalues --   -0.51214  -0.50795  -0.50490  -0.50345  -0.50344
 Alpha  occ. eigenvalues --   -0.50298  -0.50006  -0.49935  -0.49714  -0.49657
 Alpha  occ. eigenvalues --   -0.49518  -0.49305  -0.49190  -0.49081  -0.49011
 Alpha  occ. eigenvalues --   -0.48645  -0.48442  -0.48386  -0.48347  -0.48193
 Alpha  occ. eigenvalues --   -0.47963  -0.47820  -0.47804  -0.47377  -0.47367
 Alpha  occ. eigenvalues --   -0.47237  -0.47009  -0.46926  -0.46549  -0.46545
 Alpha  occ. eigenvalues --   -0.46426  -0.46234  -0.46073  -0.46047  -0.45588
 Alpha  occ. eigenvalues --   -0.45576  -0.45472  -0.45199  -0.45144  -0.45059
 Alpha  occ. eigenvalues --   -0.44975  -0.44636  -0.44531  -0.44424  -0.43966
 Alpha  occ. eigenvalues --   -0.43947  -0.43865  -0.43713  -0.43679  -0.43540
 Alpha  occ. eigenvalues --   -0.43421  -0.43288  -0.43155  -0.42725  -0.42576
 Alpha  occ. eigenvalues --   -0.42503  -0.42438  -0.42046  -0.42043  -0.41757
 Alpha  occ. eigenvalues --   -0.41685  -0.41637  -0.41568  -0.41558  -0.41366
 Alpha  occ. eigenvalues --   -0.41239  -0.41160  -0.41072  -0.41036  -0.40873
 Alpha  occ. eigenvalues --   -0.40533  -0.40125  -0.39940  -0.39246  -0.38933
 Alpha  occ. eigenvalues --   -0.38820  -0.38248  -0.37916  -0.37786  -0.37241
 Alpha  occ. eigenvalues --   -0.37045  -0.36584  -0.36405  -0.36232  -0.36071
 Alpha  occ. eigenvalues --   -0.36008  -0.35647  -0.34283  -0.33931  -0.33817
 Alpha  occ. eigenvalues --   -0.33538  -0.33180  -0.33012  -0.31570  -0.31495
 Alpha  occ. eigenvalues --   -0.31050  -0.30829  -0.30594  -0.30583  -0.30545
 Alpha  occ. eigenvalues --   -0.30266  -0.30110  -0.29815  -0.24173  -0.24078
 Alpha  occ. eigenvalues --   -0.21529  -0.20916
 Alpha virt. eigenvalues --   -0.09148  -0.08153  -0.01797  -0.01476   0.00438
 Alpha virt. eigenvalues --    0.00745   0.02430   0.02516   0.03012   0.03113
 Alpha virt. eigenvalues --    0.04553   0.05517   0.05589   0.05619   0.06123

 Mulliken charges:
               1
     1  Mg  11.999979
     2  C    5.998943
     3  C    6.000373
     4  C    6.000823
     5  C    5.999742
     6  N    6.999568
     7  C    6.001092
     8  C    5.999761
     9  C    6.000217
    10  C    5.999205
    11  C    6.000268
    12  C    5.999898
    13  C    6.000023
    14  H    1.000032
    15  N    7.000476
    16  C    5.998493
    17  C    5.999493
    18  C    5.999447
    19  C    5.998851
    20  C    6.000285
    21  C    5.999573
    22  O    7.999116
    23  C    6.000079
    24  N    7.000257
    25  C    5.998867
    26  C    6.000233
    27  C    5.999786
    28  C    6.001072
    29  C    5.999998
    30  C    5.999626
    31  C    6.000031
    32  N    6.999792
    33  C    6.001223
    34  C    6.000990
    35  C    5.999988
    36  C    6.001267
    37  C    5.999855
    38  C    6.000593
    39  O    8.000961
    40  C    6.000241
    41  C    6.000038
    42  O    8.000150
    43  O    8.000064
    44  C    5.999879
    45  H    0.999470
    46  H    0.999886
    47  H    1.000455
    48  H    0.999922
    49  H    0.999848
    50  H    0.999781
    51  H    0.999610
    52  H    0.999960
    53  H    1.000220
    54  H    0.999827
    55  H    1.000056
    56  H    1.000095
    57  H    0.999247
    58  H    0.999264
    59  H    0.999410
    60  H    0.999773
    61  H    0.999710
    62  H    0.999456
    63  H    1.000096
    64  H    1.000074
    65  H    0.999731
    66  H    0.999978
    67  H    1.000141
    68  H    1.000106
    69  H    1.000474
    70  H    1.000267
    71  H    1.000139
    72  H    0.999819
    73  H    1.000736
    74  H    1.000528
    75  H    1.000611
    76  H    1.000234
    77  H    1.000102
    78  H    1.000172
    79  H    1.000153
    80  Mg  12.002645
    81  C    5.980414
    82  C    6.022145
    83  C    6.027038
    84  C    5.987452
    85  N    6.994055
    86  C    6.029227
    87  C    5.992212
    88  C    6.016985
    89  C    5.966284
    90  C    6.003300
    91  C    5.998881
    92  C    5.998508
    93  H    1.005197
    94  N    7.008880
    95  C    5.955044
    96  C    5.983028
    97  C    5.981495
    98  C    5.959235
    99  C    6.003821
   100  C    5.986261
   101  O    7.968181
   102  C    6.006301
   103  N    7.000708
   104  C    5.957698
   105  C    6.016899
   106  C    5.988988
   107  C    6.029543
   108  C    5.999383
   109  C    5.994467
   110  C    5.996789
   111  N    6.995727
   112  C    6.041237
   113  C    6.027504
   114  C    6.003263
   115  C    6.037697
   116  C    5.994183
   117  C    6.016437
   118  O    8.033237
   119  C    6.004100
   120  C    6.004296
   121  O    8.007251
   122  O    8.001155
   123  C    5.996745
   124  H    0.990569
   125  H    0.994365
   126  H    1.011344
   127  H    0.997671
   128  H    0.991478
   129  H    0.984767
   130  H    1.004008
   131  H    0.997918
   132  H    1.009345
   133  H    0.992667
   134  H    0.993573
   135  H    1.005236
   136  H    0.981402
   137  H    0.980106
   138  H    0.983570
   139  H    0.984212
   140  H    0.988605
   141  H    0.994430
   142  H    0.995688
   143  H    1.002191
   144  H    1.003730
   145  H    0.987634
   146  H    0.998565
   147  H    1.011287
   148  H    0.997637
   149  H    0.999522
   150  H    0.999615
   151  H    1.011368
   152  H    1.021362
   153  H    1.024119
   154  H    1.015172
   155  H    1.009615
   156  H    1.007966
   157  H    1.003624
   158  H    1.001742
 Sum of Mulliken charges = 624.00000

 Dipole moment (field-independent basis, Debye):
    X=             -7.4513    Y=              2.5823    Z=             -8.3284  Tot=             11.4697
 Quadrupole moment (field-independent basis, Debye-Ang):
   XX=           -230.9923   YY=             -0.2543   ZZ=             -2.0240
   XY=             47.4727   XZ=           -147.0183   YZ=              3.4127

 Normal termination of Gaussian 16 at Thu Sep 23 01:19:02 2021.
