 Gaussian 16, Revision A.03,
 Gaussian 16:  ES64L-G16RevA.03 25-Dec-2016

 -----------------------------------
 #p cam-b3lyp/Def2SVP td=(nstates=5)
 -----------------------------------

 --------------------------------
 TDDFT excited states in gaussian
 --------------------------------
 Symbolic Z-matrix:
 Charge =  0 Multiplicity = 1

                         Standard orientation:
 ---------------------------------------------------------------------
 Center     Atomic      Atomic             Coordinates (Angstroms)
 Number     Number       Type             X           Y           Z
 ---------------------------------------------------------------------
      1         12           0       12.777394    0.279026    0.345785
      2          6           0        9.488057   -0.562014   -0.495977
      3          6           0       13.611941    0.289358   -2.828041
      4          6           0       16.088509    0.346434    1.259991
      5          6           0       11.997456   -0.235483    3.750560
      6          7           0       11.629732    0.002976   -1.400067
      7          6           0       10.291013   -0.268987   -1.577803
      8          6           0        9.882562   -0.165908   -3.041618
      9          6           0       11.273678   -0.118291   -3.751308
     10          6           0       12.206850    0.174632   -2.628471
     11          6           0       11.692988   -1.257469   -4.655171
     12          6           0        8.905401    1.007729   -3.370212
     13          6           0        8.467992    1.101671   -4.836028
     14          1           0        6.968229    1.178630   -5.081559
     15          7           0       14.691409    0.251468   -0.706453
     16          6           0       14.784328    0.403685   -2.043956
     17          6           0       16.163993    0.576844   -2.405203
     18          6           0       16.913990    0.485326   -1.220023
     19          6           0       15.886302    0.339525   -0.153506
     20          6           0       16.648237    0.748446   -3.829502
     21          6           0       18.386419    0.618317   -1.007354
     22          8           0       19.008610    0.383618    0.062998
     23          6           0       19.279751    1.119984   -2.135300
     24          7           0       13.857066    0.057317    2.200429
     25          6           0       15.207644    0.057422    2.287521
     26          6           0       15.651304    0.098610    3.847904
     27          6           0       14.285514    0.383261    4.565940
     28          6           0       13.302277    0.131432    3.468216
     29          6           0       16.337183   -1.272591    4.224345
     30          6           0       14.160817    1.903550    4.947628
     31          6           0       14.402126    2.961401    3.882039
     32          7           0       11.041345   -0.241313    1.490305
     33          6           0       10.926981   -0.394076    2.844801
     34          6           0        9.603380   -0.724165    3.106333
     35          6           0        8.928640   -0.844498    1.857430
     36          6           0        9.854285   -0.539594    0.894400
     37          6           0        8.956680   -1.039790    4.408827
     38          6           0        7.671116   -1.164977    1.144751
     39          8           0        6.567080   -1.550317    1.512130
     40          6           0        7.976982   -0.888200   -0.428260
     41          6           0        7.459633   -2.003741   -1.264739
     42          8           0        7.459872   -3.223939   -0.924069
     43          8           0        6.864589   -1.454525   -2.315013
     44          6           0        5.920544   -2.328965   -2.984198
     45          1           0       13.922925    0.418451   -3.866945
     46          1           0       17.134640    0.402710    1.570203
     47          1           0       11.764784   -0.258573    4.816325
     48          1           0        9.284904   -1.061729   -3.211239
     49          1           0       11.387795    0.747111   -4.405020
     50          1           0       10.900036   -1.900980   -5.036198
     51          1           0       12.444694   -1.859218   -4.143646
     52          1           0       12.341679   -0.830963   -5.420538
     53          1           0        9.346977    1.951939   -3.050463
     54          1           0        8.010140    0.904566   -2.757922
     55          1           0        8.558619    0.139219   -5.339277
     56          1           0        9.012814    1.885565   -5.362954
     57          1           0       15.883868    0.607184   -4.593535
     58          1           0       17.348056   -0.006524   -4.186962
     59          1           0       17.107510    1.719334   -4.017901
     60          1           0       19.308968    0.349097   -2.904852
     61          1           0       20.332865    1.113864   -1.855121
     62          1           0       19.017151    2.120715   -2.480246
     63          1           0       16.401417    0.875960    3.993446
     64          1           0       14.219823   -0.371163    5.349897
     65          1           0       16.606699   -1.876711    3.357852
     66          1           0       15.716183   -1.929690    4.833398
     67          1           0       17.290818   -1.156386    4.737293
     68          1           0       14.920555    1.942782    5.728310
     69          1           0       13.211974    2.181816    5.405290
     70          1           0       14.846494    2.506930    2.996289
     71          1           0       14.945819    3.851643    4.196345
     72          1           0       13.397740    3.347920    3.708907
     73          1           0        9.083191   -0.270794    5.171304
     74          1           0        9.470001   -1.931476    4.767523
     75          1           0        7.899018   -1.279430    4.304080
     76          1           0        7.386579    0.000370   -0.650301
     77          1           0        5.013548   -1.777256   -3.234482
     78          1           0        5.570735   -3.189211   -2.413987
     79          1           0        6.410910   -2.646967   -3.904841
     80         12           0      -12.462482   -0.525938   -0.482200
     81          6           0      -12.197506    2.876002    0.165593
     82          6           0       -8.931078   -0.677713   -0.736569
     83          6           0      -12.560989   -3.825211    0.036690
     84          6           0      -15.849285   -0.314899    0.473673
     85          7           0      -10.693828    0.935064    0.055786
     86          6           0      -10.911913    2.291546    0.028808
     87          6           0       -9.624476    3.054446    0.020857
     88          6           0       -8.603981    1.952754   -0.524345
     89          6           0       -9.414369    0.616042   -0.382032
     90          6           0       -8.059444    2.176739   -2.024341
     91          6           0       -9.342012    3.709815    1.469355
     92          6           0       -8.509889    4.890207    1.447896
     93          1           0       -7.266325    4.786877    2.356179
     94          7           0      -11.013281   -2.066151   -0.540999
     95          6           0       -9.602805   -1.923113   -0.663951
     96          6           0       -9.029544   -3.257978   -0.698587
     97          6           0      -10.060771   -4.207565   -0.497985
     98          6           0      -11.309272   -3.378278   -0.407199
     99          6           0       -7.564621   -3.483610   -0.755152
    100          6           0       -9.823372   -5.769733   -0.361565
    101          8           0       -8.662944   -6.166167   -0.457657
    102          6           0      -10.970984   -6.771308   -0.431633
    103          7           0      -13.974742   -1.806127    0.255913
    104          6           0      -13.760527   -3.146208    0.243520
    105          6           0      -15.043391   -4.004047    0.834960
    106          6           0      -16.178346   -2.873270    0.765561
    107          6           0      -15.355353   -1.580962    0.464244
    108          6           0      -15.467730   -5.269954   -0.001724
    109          6           0      -16.974834   -2.740312    2.064928
    110          6           0      -18.510503   -2.931103    2.077244
    111          7           0      -13.818813    0.983729   -0.101264
    112          6           0      -15.141372    0.915307    0.228203
    113          6           0      -15.682867    2.245413    0.277648
    114          6           0      -14.486797    3.056774    0.309127
    115          6           0      -13.390735    2.198862    0.115303
    116          6           0      -17.108660    2.619733    0.562691
    117          6           0      -14.011957    4.407478    0.525810
    118          8           0      -14.616740    5.435371    0.571222
    119          6           0      -12.439748    4.401826    0.386514
    120          6           0      -11.895684    5.192197   -0.823916
    121          8           0      -12.294542    5.070083   -1.962145
    122          8           0      -10.946629    6.137444   -0.383052
    123          6           0      -10.469198    7.073696   -1.355398
    124          1           0       -7.849075   -0.646862   -0.875168
    125          1           0      -12.609217   -4.837394    0.443228
    126          1           0      -16.905830   -0.296868    0.747252
    127          1           0       -9.573767    3.775400   -0.795738
    128          1           0       -7.749348    1.922492    0.152478
    129          1           0       -6.977395    2.260321   -1.923732
    130          1           0       -8.481766    3.060552   -2.501482
    131          1           0       -8.312001    1.271538   -2.577300
    132          1           0       -8.816236    2.918108    2.002817
    133          1           0      -10.357203    3.797049    1.857436
    134          1           0       -9.144814    5.711132    1.778982
    135          1           0       -8.126093    5.058913    0.441783
    136          1           0       -7.027275   -2.573008   -1.019440
    137          1           0       -7.326165   -4.176093   -1.562822
    138          1           0       -7.177826   -3.818073    0.207748
    139          1           0      -11.661353   -6.708371    0.410105
    140          1           0      -10.530852   -7.767098   -0.493793
    141          1           0      -11.496036   -6.594635   -1.370428
    142          1           0      -14.757404   -4.194307    1.869060
    143          1           0      -16.839667   -2.938498   -0.098716
    144          1           0      -15.273259   -6.173572    0.575259
    145          1           0      -14.885055   -5.307987   -0.922908
    146          1           0      -16.533368   -5.163408   -0.207441
    147          1           0      -16.742009   -1.811666    2.585500
    148          1           0      -16.642103   -3.393153    2.871731
    149          1           0      -19.126266   -2.049297    2.256397
    150          1           0      -18.702290   -3.590380    2.924152
    151          1           0      -18.862251   -3.368740    1.142206
    152          1           0      -17.240180    3.648218    0.225594
    153          1           0      -17.332142    2.825922    1.608947
    154          1           0      -17.853572    1.916196    0.191814
    155          1           0      -12.115201    4.902195    1.299304
    156          1           0       -9.485430    7.295103   -0.940269
    157          1           0      -10.998746    8.024743   -1.301718
    158          1           0      -10.519556    6.652866   -2.358825
 ---------------------------------------------------------------------

 SCF Done:  E(RCAM-B3LYP) =  -4069.79160675     A.U. after   19 cycles

 Excitation energies and oscillator strengths:

 Excited State   1:      Singlet-A      1.6849 eV  735.84 nm  f=0.4190  <S**2>=0.000
     309 -> 315       -0.17347
     312 -> 314        0.68612
     309 <- 315       -0.10796
 This state for optimization and/or second-order correction.
 Total Energy, E(TD-HF/TD-DFT) =  -4069.72968619
 Copying the excited state density for this state as the 1-particle RhoCI density.

 Excited State   2:      Singlet-A      1.7146 eV  723.10 nm  f=0.3701  <S**2>=0.000
     310 -> 316        0.16551
     311 -> 313        0.68696
     310 <- 316        0.10281

 Excited State   3:      Singlet-A      2.1453 eV  577.92 nm  f=0.1716  <S**2>=0.000
     310 -> 313        0.66337
     311 -> 316       -0.22681

 Excited State   4:      Singlet-A      2.2460 eV  552.01 nm  f=0.1072  <S**2>=0.000
     309 -> 314        0.63691
     312 -> 315        0.29190

 Excited State   5:      Singlet-A      2.8159 eV  440.30 nm  f=0.0000  <S**2>=0.000
     312 -> 313        0.70704

 The electronic state is 1-A.
 Alpha  occ. eigenvalues --  -46.89733 -46.89405 -19.26688 -19.25082 -19.20693
 Alpha  occ. eigenvalues --  -19.19611 -19.19133 -19.19074 -19.18478 -19.18197
 Alpha  occ. eigenvalues --  -14.42926 -14.42242 -14.41945 -14.41848 -14.40128
 Alpha  occ. eigenvalues --  -14.39786 -14.39014 -14.38049 -10.40031 -10.39264
 Alpha  occ. eigenvalues --  -10.36296 -10.35779 -10.34851 -10.33958 -10.32144
 Alpha  occ. eigenvalues --  -10.32047 -10.31745 -10.31556 -10.31417 -10.31121
 Alpha  occ. eigenvalues --  -10.31113 -10.31041 -10.30902 -10.30806 -10.30652
 Alpha  occ. eigenvalues --  -10.30490 -10.30407 -10.30120 -10.29788 -10.29583
 Alpha  occ. eigenvalues --  -10.29289 -10.29217 -10.28587 -10.28552 -10.28447
 Alpha  occ. eigenvalues --  -10.28434 -10.28409 -10.28335 -10.28331 -10.28275
 Alpha  occ. eigenvalues --  -10.28241 -10.28196 -10.28153 -10.28089 -10.28063
 Alpha  occ. eigenvalues --  -10.28048 -10.27907 -10.27892 -10.27812 -10.27787
 Alpha  occ. eigenvalues --  -10.27737 -10.27727 -10.27582 -10.27550 -10.27103
 Alpha  occ. eigenvalues --  -10.26960 -10.26804 -10.26634 -10.26526 -10.26508
 Alpha  occ. eigenvalues --  -10.26503 -10.26495 -10.26371 -10.26370 -10.26331
 Alpha  occ. eigenvalues --  -10.26216 -10.26169 -10.26147 -10.25805 -10.25688
 Alpha  occ. eigenvalues --  -10.25640 -10.25441 -10.25362 -10.24908 -10.24564
 Alpha  occ. eigenvalues --  -10.24298  -3.18151  -3.17793  -1.93001  -1.92701
 Alpha  occ. eigenvalues --   -1.92661  -1.92418  -1.92218  -1.92107  -1.18124
 Alpha  occ. eigenvalues --   -1.16031  -1.10735  -1.10206  -1.08821  -1.08686
 Alpha  occ. eigenvalues --   -1.08393  -1.05946  -1.05436  -1.04845  -1.04387
 Alpha  occ. eigenvalues --   -1.03362  -1.02846  -1.02483  -1.02316  -1.01529
 Alpha  occ. eigenvalues --   -0.92179  -0.91881  -0.89627  -0.89308  -0.89152
 Alpha  occ. eigenvalues --   -0.88429  -0.88301  -0.88117  -0.88012  -0.87163
 Alpha  occ. eigenvalues --   -0.86806  -0.86358  -0.85744  -0.85705  -0.84830
 Alpha  occ. eigenvalues --   -0.84024  -0.83788  -0.83310  -0.82934  -0.82632
 Alpha  occ. eigenvalues --   -0.82163  -0.81883  -0.81361  -0.81086  -0.80695
 Alpha  occ. eigenvalues --   -0.80188  -0.78906  -0.77775  -0.77610  -0.77385
 Alpha  occ. eigenvalues --   -0.77260  -0.76694  -0.76150  -0.76068  -0.75259
 Alpha  occ. eigenvalues --   -0.74868  -0.72774  -0.72595  -0.71774  -0.71280
 Alpha  occ. eigenvalues --   -0.69936  -0.69205  -0.69182  -0.68379  -0.68372
 Alpha  occ. eigenvalues --   -0.67709  -0.67386  -0.66436  -0.65856  -0.65560
 Alpha  occ. eigenvalues --   -0.65227  -0.64747  -0.64703  -0.64587  -0.64434
 Alpha  occ. eigenvalues --   -0.64031  -0.62770  -0.62766  -0.61041  -0.59805
 Alpha  occ. eigenvalues --   -0.59580  -0.59416  -0.59273  -0.58924  -0.58558
 Alpha  occ. eigenvalues --   -0.58505  -0.57944  -0.57638  -0.57399  -0.57252
 Alpha  occ. eigenvalues --   -0.56260  -0.56233  -0.56062  -0.55828  -0.55487
 Alpha  occ. eigenvalues --   -0.55344  -0.55275  -0.54902  -0.54782  -0.54424
 Alpha  occ. eigenvalues --   -0.53947  -0.53299  -0.53179  -0.53164  -0.52953
 Alpha  occ. eigenvalues --   -0.52657  -0.52560  -0.52532  -0.52379  -0.52019
 Alpha  occ. eigenvalues --   -0.51743  -0.51670  -0.51601  -0.51578  -0.51005
 Alpha  occ. eigenvalues --   -0.50981  -0.50741  -0.50590  -0.50475  -0.50138
 Alpha  occ. eigenvalues --   -0.50135  -0.50013  -0.49629  -0.49550  -0.49543
 Alpha  occ. eigenvalues --   -0.49154  -0.49134  -0.49090  -0.48880  -0.48697
 Alpha  occ. eigenvalues --   -0.48603  -0.48514  -0.48389  -0.48385  -0.48127
 Alpha  occ. eigenvalues --   -0.47954  -0.47830  -0.47265  -0.47245  -0.47224
 Alpha  occ. eigenvalues --   -0.46954  -0.46882  -0.46794  -0.46521  -0.46410
 Alpha  occ. eigenvalues --   -0.46354  -0.46102  -0.45987  -0.45880  -0.45852
 Alpha  occ. eigenvalues --   -0.45608  -0.45468  -0.45205  -0.45172  -0.44895
 Alpha  occ. eigenvalues --   -0.44757  -0.44699  -0.44480  -0.44452  -0.44310
 Alpha  occ. eigenvalues --   -0.43996  -0.43906  -0.43888  -0.43750  -0.43470
 Alpha  occ. eigenvalues --   -0.43442  -0.43319  -0.43233  -0.43039  -0.42903
 Alpha  occ. eigenvalues --   -0.42654  -0.42610  -0.42606  -0.42439  -0.42378
 Alpha  occ. eigenvalues --   -0.42127  -0.42099  -0.41792  -0.41463  -0.41365
 Alpha  occ. eigenvalues --   -0.41262  -0.41010  -0.40909  -0.40896  -0.40524
 Alpha  occ. eigenvalues --   -0.40393  -0.39741  -0.39636  -0.39275  -0.38695
 Alpha  occ. eigenvalues --   -0.38589  -0.38117  -0.37922  -0.37660  -0.37337
 Alpha  occ. eigenvalues --   -0.37002  -0.36944  -0.36640  -0.36608  -0.36325
 Alpha  occ. eigenvalues --   -0.36165  -0.35538  -0.34734  -0.34198  -0.34105
 Alpha  occ. eigenvalues --   -0.33976  -0.33213  -0.32930  -0.31975  -0.31500
 Alpha  occ. eigenvalues --   -0.31183  -0.31177  -0.30817  -0.30147  -0.30130
 Alpha  occ. eigenvalues --   -0.29906  -0.29109  -0.28534  -0.24250  -0.24093
 Alpha  occ. eigenvalues --   -0.21797  -0.21103
 Alpha virt. eigenvalues --   -0.09397  -0.08714  -0.01581  -0.01314  -0.00054
 Alpha virt. eigenvalues --    0.00461   0.01392   0.01769   0.02231   0.02476
 Alpha virt. eigenvalues --    0.04416   0.04623   0.04626   0.04739   0.05651

 Mulliken charges:
               1
     1  Mg   0.807819
     2  C    0.045484
     3  C   -0.061142
     4  C   -0.047168
     5  C   -0.073244
     6  N   -0.322574
     7  C   -0.057822
     8  C    0.013273
     9  C   -0.034202
    10  C    0.074977
    11  C    0.092331
    12  C    0.063807
    13  C   -0.073609
    14  H    0.013563
    15  N   -0.299731
    16  C    0.075908
    17  C   -0.092473
    18  C   -0.003266
    19  C    0.074263
    20  C    0.096240
    21  C   -0.003945
    22  O   -0.229643
    23  C    0.052603
    24  N   -0.284268
    25  C    0.052214
    26  C   -0.096607
    27  C    0.025686
    28  C    0.020323
    29  C    0.057887
    30  C    0.029668
    31  C    0.003972
    32  N   -0.330783
    33  C    0.139867
    34  C   -0.184907
    35  C    0.005543
    36  C    0.046751
    37  C    0.122833
    38  C    0.080761
    39  O   -0.165201
    40  C   -0.062072
    41  C    0.199340
    42  O   -0.250935
    43  O   -0.299883
    44  C    0.166075
    45  H   -0.050021
    46  H   -0.001676
    47  H   -0.028063
    48  H    0.004744
    49  H    0.004216
    50  H    0.033377
    51  H    0.011630
    52  H    0.004363
    53  H   -0.001653
    54  H    0.022167
    55  H    0.025137
    56  H    0.040137
    57  H    0.004970
    58  H    0.026522
    59  H    0.032542
    60  H    0.022867
    61  H    0.017810
    62  H    0.042512
    63  H    0.018054
    64  H    0.003649
    65  H    0.022347
    66  H    0.011613
    67  H    0.017943
    68  H    0.004148
    69  H    0.005125
    70  H    0.037413
    71  H    0.019603
    72  H    0.011939
    73  H    0.013038
    74  H    0.020350
    75  H    0.033486
    76  H    0.052617
    77  H    0.035421
    78  H    0.062004
    79  H    0.031962
    80  Mg   0.827884
    81  C   -0.072443
    82  C   -0.057867
    83  C   -0.081642
    84  C   -0.081492
    85  N   -0.265420
    86  C   -0.081321
    87  C   -0.050729
    88  C   -0.081887
    89  C    0.007881
    90  C    0.060719
    91  C    0.092457
    92  C   -0.035386
    93  H    0.003415
    94  N   -0.385557
    95  C    0.158198
    96  C   -0.142471
    97  C   -0.067388
    98  C    0.178875
    99  C    0.144030
   100  C    0.032008
   101  O   -0.206117
   102  C    0.034997
   103  N   -0.335699
   104  C    0.049483
   105  C   -0.075288
   106  C    0.031349
   107  C    0.005851
   108  C    0.071051
   109  C    0.014010
   110  C   -0.000413
   111  N   -0.323358
   112  C    0.132875
   113  C   -0.155407
   114  C   -0.033041
   115  C    0.194942
   116  C    0.109684
   117  C    0.027329
   118  O   -0.144225
   119  C   -0.010093
   120  C    0.212561
   121  O   -0.191374
   122  O   -0.358119
   123  C    0.169418
   124  H   -0.013526
   125  H   -0.041740
   126  H   -0.033094
   127  H    0.007908
   128  H    0.010665
   129  H    0.022085
   130  H    0.030599
   131  H    0.021702
   132  H    0.012522
   133  H    0.014168
   134  H    0.040203
   135  H    0.027983
   136  H   -0.012161
   137  H    0.032661
   138  H    0.042900
   139  H    0.049867
   140  H    0.031406
   141  H    0.045421
   142  H    0.030053
   143  H    0.018033
   144  H    0.017762
   145  H    0.025594
   146  H    0.023863
   147  H    0.007654
   148  H   -0.005441
   149  H    0.018674
   150  H    0.012226
   151  H    0.011811
   152  H    0.026027
   153  H    0.020724
   154  H    0.022463
   155  H    0.044379
   156  H    0.028356
   157  H    0.035670
   158  H    0.050300
 Sum of Mulliken charges =  -0.00000

 Dipole moment (field-independent basis, Debye):
    X=              2.2290    Y=              1.1510    Z=             -4.3472  Tot=              5.0191
 Quadrupole moment (field-independent basis, Debye-Ang):
   XX=           -461.2723   YY=           -533.4957   ZZ=           -475.0565
   XY=            121.7911   XZ=            -55.9808   YZ=              1.2985

 Normal termination of Gaussian 16 at Wed Sep 15 02:59:00 2021.
