 Gaussian 16, Revision A.03,
 Gaussian 16:  ES64L-G16RevA.03 25-Dec-2016

 ----------------------------------------------------------
 #p cam-b3lyp/Def2SVP td=(nstates=5) density=(transition=1)
 ----------------------------------------------------------

 --------------------------------
 TDDFT excited states in gaussian
 --------------------------------
 Symbolic Z-matrix:
 Charge =  0 Multiplicity = 1

                         Standard orientation:
 ---------------------------------------------------------------------
 Center     Atomic      Atomic             Coordinates (Angstroms)
 Number     Number       Type             X           Y           Z
 ---------------------------------------------------------------------
      1         12           0       30.553433    0.211175   -0.187407
      2          6           0       27.479695   -1.248099   -0.074916
      3          6           0       28.949691    3.213415   -0.853599
      4          6           0       33.546530    1.708450    0.081175
      5          6           0       32.005498   -2.706921    1.139993
      6          7           0       28.417153    0.937930   -0.176926
      7          6           0       27.360052    0.101847   -0.147287
      8          6           0       26.062372    0.823548   -0.170816
      9          6           0       26.578973    2.254516   -0.817311
     10          6           0       28.106122    2.161174   -0.615748
     11          6           0       26.118580    2.453144   -2.291617
     12          6           0       25.537404    0.982193    1.247282
     13          6           0       26.462806    1.677745    2.349813
     14          1           0       25.860716    2.639881    3.366269
     15          7           0       31.171005    2.171074   -0.357385
     16          6           0       30.375233    3.266765   -0.777488
     17          6           0       31.261019    4.355181   -1.024236
     18          6           0       32.570554    3.998880   -0.726722
     19          6           0       32.522713    2.576053   -0.350086
     20          6           0       30.667037    5.657184   -1.521992
     21          6           0       33.787524    4.892749   -0.712344
     22          8           0       33.583286    6.093796   -1.018925
     23          6           0       35.070628    4.554990   -0.194080
     24          7           0       32.452457   -0.375109    0.725407
     25          6           0       33.553749    0.424559    0.636009
     26          6           0       34.799378   -0.266363    1.240772
     27          6           0       34.263113   -1.698862    1.575963
     28          6           0       32.796789   -1.578493    1.196749
     29          6           0       36.003239   -0.252692    0.323120
     30          6           0       34.513955   -2.069317    3.133968
     31          6           0       34.989982   -3.507991    3.365476
     32          7           0       29.932432   -1.693404    0.442233
     33          6           0       30.616965   -2.823818    0.755635
     34          6           0       29.676610   -3.910020    0.702979
     35          6           0       28.386329   -3.392706    0.335479
     36          6           0       28.608161   -2.030566    0.217946
     37          6           0       29.923321   -5.287353    1.216162
     38          6           0       26.993790   -3.633664    0.133447
     39          8           0       26.462844   -4.750635    0.176218
     40          6           0       26.378605   -2.280023   -0.169985
     41          6           0       25.737665   -2.341647   -1.506096
     42          8           0       24.880147   -3.177239   -1.714463
     43          8           0       26.129270   -1.364190   -2.369115
     44          6           0       25.486036   -1.400741   -3.683965
     45          1           0       28.483294    4.079342   -1.327800
     46          1           0       34.536201    2.145396   -0.066278
     47          1           0       32.409988   -3.693812    1.375638
     48          1           0       25.240212    0.386677   -0.737735
     49          1           0       26.076907    3.098679   -0.342848
     50          1           0       25.528787    3.365018   -2.377612
     51          1           0       25.467398    1.612803   -2.533685
     52          1           0       26.926945    2.466186   -3.023849
     53          1           0       25.187389    0.000717    1.567777
     54          1           0       24.579849    1.475365    1.080465
     55          1           0       27.289824    2.274666    1.965104
     56          1           0       26.797273    0.816256    2.927067
     57          1           0       30.345692    6.188623   -0.626021
     58          1           0       29.783700    5.435744   -2.119673
     59          1           0       31.322525    6.292581   -2.118321
     60          1           0       35.592006    5.428634    0.198360
     61          1           0       35.673666    3.955220   -0.877004
     62          1           0       34.859780    3.987921    0.711589
     63          1           0       34.977941    0.305263    2.152189
     64          1           0       34.690201   -2.417539    0.876801
     65          1           0       35.860875    0.329456   -0.586949
     66          1           0       36.521244   -1.173192    0.055305
     67          1           0       36.695243    0.399677    0.856505
     68          1           0       33.634764   -1.940653    3.765378
     69          1           0       35.218617   -1.386685    3.608574
     70          1           0       36.043260   -3.473471    3.642561
     71          1           0       34.953717   -4.035277    2.411952
     72          1           0       34.424874   -4.023892    4.141905
     73          1           0       30.622147   -5.913571    0.662860
     74          1           0       28.939619   -5.757038    1.251515
     75          1           0       30.338838   -5.281424    2.223896
     76          1           0       25.612262   -2.119750    0.588952
     77          1           0       24.408712   -1.336757   -3.528389
     78          1           0       25.771711   -2.265531   -4.283034
     79          1           0       25.873852   -0.607768   -4.323245
     80         12           0      -30.637162    0.337322    0.371774
     81          6           0      -28.368361   -2.020421   -1.030248
     82          6           0      -31.452704    1.322192   -2.820014
     83          6           0      -32.642450    2.506563    1.852345
     84          6           0      -29.328091   -0.432780    3.629472
     85          7           0      -29.920988   -0.243332   -1.764763
     86          6           0      -29.069503   -1.303925   -2.014618
     87          6           0      -29.001317   -1.448408   -3.573637
     88          6           0      -29.988961   -0.314012   -4.177536
     89          6           0      -30.465772    0.295023   -2.855032
     90          6           0      -29.362922    0.658131   -5.199052
     91          6           0      -29.201216   -2.901806   -4.172358
     92          6           0      -28.065688   -3.424907   -5.003135
     93          1           0      -27.121289   -2.543024   -5.776565
     94          7           0      -32.029155    1.697721   -0.418262
     95          6           0      -32.191713    1.947441   -1.744538
     96          6           0      -33.335673    2.816939   -1.843938
     97          6           0      -33.627505    3.249262   -0.532240
     98          6           0      -32.741495    2.508610    0.423668
     99          6           0      -33.869778    3.231113   -3.225479
    100          6           0      -34.554540    4.356070   -0.130049
    101          8           0      -34.646947    4.734068    1.061936
    102          6           0      -35.340263    5.061746   -1.172212
    103          7           0      -30.857101    0.964205    2.492340
    104          6           0      -31.788729    1.794637    2.808706
    105          6           0      -32.018361    2.074591    4.388600
    106          6           0      -30.931373    1.136720    4.935415
    107          6           0      -30.346020    0.529092    3.684203
    108          6           0      -31.803442    3.603102    4.689600
    109          6           0      -31.391412    0.038209    5.957138
    110          6           0      -32.207666   -1.143525    5.381848
    111          7           0      -29.121683   -0.822415    1.106167
    112          6           0      -28.713132   -0.995583    2.449564
    113          6           0      -27.681567   -2.041537    2.473640
    114          6           0      -27.524055   -2.474237    1.135051
    115          6           0      -28.457724   -1.729024    0.338413
    116          6           0      -26.961929   -2.572381    3.749545
    117          6           0      -26.827278   -3.368905    0.373076
    118          8           0      -25.943461   -4.156889    0.641667
    119          6           0      -27.351050   -3.198819   -1.080337
    120          6           0      -26.220776   -2.965357   -1.949303
    121          8           0      -25.737312   -1.854552   -2.195369
    122          8           0      -25.616718   -4.185476   -2.275296
    123          6           0      -24.333409   -4.054914   -3.008888
    124          1           0      -31.609988    1.888919   -3.740504
    125          1           0      -33.186875    3.335767    2.309118
    126          1           0      -28.898297   -0.707214    4.595040
    127          1           0      -27.933835   -1.269108   -3.695143
    128          1           0      -30.774183   -0.803585   -4.751878
    129          1           0      -29.927000    0.651839   -6.132602
    130          1           0      -28.307950    0.514052   -5.431624
    131          1           0      -29.453603    1.632362   -4.718681
    132          1           0      -30.117275   -2.939380   -4.762197
    133          1           0      -29.271173   -3.560038   -3.306334
    134          1           0      -28.517811   -3.884277   -5.882868
    135          1           0      -27.494206   -4.117461   -4.386185
    136          1           0      -33.510224    2.574951   -4.018449
    137          1           0      -33.571541    4.256203   -3.441576
    138          1           0      -34.952345    3.152593   -3.130855
    139          1           0      -35.937261    4.306032   -1.682728
    140          1           0      -34.690518    5.514460   -1.922182
    141          1           0      -35.919170    5.873360   -0.733316
    142          1           0      -33.008744    1.750591    4.709344
    143          1           0      -30.093679    1.728243    5.305542
    144          1           0      -31.085325    3.985860    3.964459
    145          1           0      -31.350235    3.692852    5.677474
    146          1           0      -32.675740    4.256857    4.668032
    147          1           0      -31.849878    0.510788    6.825228
    148          1           0      -30.493398   -0.371618    6.418369
    149          1           0      -32.852264   -0.926930    4.530636
    150          1           0      -32.749503   -1.611649    6.204438
    151          1           0      -31.461088   -1.881121    5.087854
    152          1           0      -26.961426   -3.660137    3.820201
    153          1           0      -27.355081   -2.149943    4.673563
    154          1           0      -25.885408   -2.456750    3.621228
    155          1           0      -27.791264   -4.177667   -1.267659
    156          1           0      -23.559391   -3.649532   -2.357726
    157          1           0      -24.367342   -3.376524   -3.860604
    158          1           0      -24.154147   -5.019328   -3.484457
 ---------------------------------------------------------------------

 SCF Done:  E(RCAM-B3LYP) =  -4069.80838515     A.U. after   18 cycles

 Excitation energies and oscillator strengths:

 Excited State   1:      Singlet-A      1.7418 eV  711.82 nm  f=0.3874  <S**2>=0.000
     309 -> 315       -0.17691
     311 -> 313        0.68519
     309 <- 315       -0.10389
 This state for optimization and/or second-order correction.
 Total Energy, E(TD-HF/TD-DFT) =  -4069.74437553
 Copying the excited state density for this state as the 1-particle RhoCI density.

 Excited State   2:      Singlet-A      1.7535 eV  707.05 nm  f=0.3794  <S**2>=0.000
     310 -> 316        0.18839
     312 -> 314        0.68185
     310 <- 316        0.10757

 Excited State   3:      Singlet-A      2.2093 eV  561.19 nm  f=0.1091  <S**2>=0.000
     310 -> 314        0.64206
     312 -> 316       -0.28091

 Excited State   4:      Singlet-A      2.2176 eV  559.10 nm  f=0.1293  <S**2>=0.000
     309 -> 313        0.65046
     311 -> 315        0.25333

 Excited State   5:      Singlet-A      3.1342 eV  395.59 nm  f=0.0000  <S**2>=0.000
     312 -> 313        0.70711

 The electronic state is 1-A.
 Alpha  occ. eigenvalues --  -46.89801 -46.89107 -19.26390 -19.24250 -19.19475
 Alpha  occ. eigenvalues --  -19.19276 -19.18756 -19.18276 -19.18161 -19.17508
 Alpha  occ. eigenvalues --  -14.42658 -14.42078 -14.42059 -14.41866 -14.39788
 Alpha  occ. eigenvalues --  -14.39748 -14.39660 -14.38603 -10.39464 -10.38594
 Alpha  occ. eigenvalues --  -10.35051 -10.34835 -10.34446 -10.33283 -10.32740
 Alpha  occ. eigenvalues --  -10.31887 -10.31701 -10.31677 -10.31401 -10.31216
 Alpha  occ. eigenvalues --  -10.31185 -10.31084 -10.30881 -10.30770 -10.30518
 Alpha  occ. eigenvalues --  -10.30386 -10.30209 -10.30185 -10.29837 -10.29344
 Alpha  occ. eigenvalues --  -10.29198 -10.29043 -10.28808 -10.28759 -10.28558
 Alpha  occ. eigenvalues --  -10.28457 -10.28374 -10.28361 -10.28339 -10.28277
 Alpha  occ. eigenvalues --  -10.28206 -10.28088 -10.28042 -10.28019 -10.27971
 Alpha  occ. eigenvalues --  -10.27965 -10.27963 -10.27934 -10.27730 -10.27673
 Alpha  occ. eigenvalues --  -10.27398 -10.27389 -10.27358 -10.27319 -10.27291
 Alpha  occ. eigenvalues --  -10.27226 -10.27211 -10.27173 -10.27119 -10.27009
 Alpha  occ. eigenvalues --  -10.26994 -10.26770 -10.26582 -10.26544 -10.26466
 Alpha  occ. eigenvalues --  -10.26340 -10.26338 -10.26313 -10.25986 -10.25955
 Alpha  occ. eigenvalues --  -10.25855 -10.25616 -10.25553 -10.24969 -10.24549
 Alpha  occ. eigenvalues --  -10.23880  -3.18136  -3.17559  -1.93051  -1.92627
 Alpha  occ. eigenvalues --   -1.92436  -1.92393  -1.92035  -1.91842  -1.17414
 Alpha  occ. eigenvalues --   -1.14336  -1.09230  -1.09050  -1.08448  -1.08397
 Alpha  occ. eigenvalues --   -1.07990  -1.06293  -1.06094  -1.04982  -1.04541
 Alpha  occ. eigenvalues --   -1.03682  -1.03016  -1.02729  -1.01685  -1.01514
 Alpha  occ. eigenvalues --   -0.94070  -0.92264  -0.89732  -0.89280  -0.89044
 Alpha  occ. eigenvalues --   -0.88748  -0.88268  -0.87809  -0.87790  -0.87236
 Alpha  occ. eigenvalues --   -0.86775  -0.86325  -0.85845  -0.85460  -0.85099
 Alpha  occ. eigenvalues --   -0.84305  -0.84128  -0.83355  -0.83351  -0.82802
 Alpha  occ. eigenvalues --   -0.82521  -0.82207  -0.81457  -0.80898  -0.80657
 Alpha  occ. eigenvalues --   -0.80031  -0.78624  -0.78305  -0.77992  -0.77561
 Alpha  occ. eigenvalues --   -0.77059  -0.76426  -0.76162  -0.75712  -0.74961
 Alpha  occ. eigenvalues --   -0.74957  -0.72513  -0.72506  -0.72124  -0.71541
 Alpha  occ. eigenvalues --   -0.70449  -0.70148  -0.69122  -0.69020  -0.68844
 Alpha  occ. eigenvalues --   -0.67822  -0.67129  -0.66897  -0.66560  -0.65336
 Alpha  occ. eigenvalues --   -0.65299  -0.65215  -0.64888  -0.64626  -0.64390
 Alpha  occ. eigenvalues --   -0.64218  -0.63825  -0.61399  -0.60242  -0.60211
 Alpha  occ. eigenvalues --   -0.59734  -0.59486  -0.59339  -0.58826  -0.58588
 Alpha  occ. eigenvalues --   -0.58386  -0.58113  -0.58021  -0.57922  -0.57507
 Alpha  occ. eigenvalues --   -0.56842  -0.56586  -0.56263  -0.56004  -0.55804
 Alpha  occ. eigenvalues --   -0.55253  -0.55159  -0.54932  -0.54519  -0.54251
 Alpha  occ. eigenvalues --   -0.53754  -0.53576  -0.53485  -0.53223  -0.53073
 Alpha  occ. eigenvalues --   -0.52998  -0.52821  -0.52609  -0.52485  -0.52006
 Alpha  occ. eigenvalues --   -0.51888  -0.51825  -0.51534  -0.51432  -0.51271
 Alpha  occ. eigenvalues --   -0.51079  -0.50920  -0.50790  -0.50437  -0.50331
 Alpha  occ. eigenvalues --   -0.49833  -0.49600  -0.49492  -0.49469  -0.49230
 Alpha  occ. eigenvalues --   -0.49196  -0.49117  -0.48937  -0.48844  -0.48753
 Alpha  occ. eigenvalues --   -0.48685  -0.48554  -0.48475  -0.48158  -0.47962
 Alpha  occ. eigenvalues --   -0.47910  -0.47628  -0.47489  -0.47296  -0.47096
 Alpha  occ. eigenvalues --   -0.46724  -0.46718  -0.46593  -0.46497  -0.46428
 Alpha  occ. eigenvalues --   -0.46406  -0.46145  -0.46053  -0.45803  -0.45736
 Alpha  occ. eigenvalues --   -0.45640  -0.45469  -0.45232  -0.44911  -0.44858
 Alpha  occ. eigenvalues --   -0.44657  -0.44619  -0.44578  -0.44539  -0.44205
 Alpha  occ. eigenvalues --   -0.43762  -0.43733  -0.43729  -0.43547  -0.43426
 Alpha  occ. eigenvalues --   -0.43185  -0.42811  -0.42705  -0.42459  -0.42439
 Alpha  occ. eigenvalues --   -0.42346  -0.42304  -0.42245  -0.41904  -0.41845
 Alpha  occ. eigenvalues --   -0.41804  -0.41783  -0.41563  -0.41356  -0.41273
 Alpha  occ. eigenvalues --   -0.41238  -0.41150  -0.41125  -0.40959  -0.40571
 Alpha  occ. eigenvalues --   -0.40481  -0.40101  -0.39759  -0.39527  -0.39194
 Alpha  occ. eigenvalues --   -0.39100  -0.38678  -0.37829  -0.37691  -0.37518
 Alpha  occ. eigenvalues --   -0.36924  -0.36887  -0.36611  -0.36347  -0.36078
 Alpha  occ. eigenvalues --   -0.35967  -0.35476  -0.34692  -0.33992  -0.33917
 Alpha  occ. eigenvalues --   -0.33653  -0.33104  -0.33029  -0.31778  -0.31297
 Alpha  occ. eigenvalues --   -0.31189  -0.30878  -0.30441  -0.30310  -0.30099
 Alpha  occ. eigenvalues --   -0.29945  -0.29539  -0.28986  -0.24295  -0.23773
 Alpha  occ. eigenvalues --   -0.21665  -0.21226
 Alpha virt. eigenvalues --   -0.09139  -0.08524  -0.01881  -0.01766   0.00152
 Alpha virt. eigenvalues --    0.00159   0.01345   0.02016   0.02342   0.02600
 Alpha virt. eigenvalues --    0.04991   0.05028   0.05513   0.05556   0.06087

 Mulliken charges:
               1
     1  Mg  11.998004
     2  C    6.013414
     3  C    5.978551
     4  C    5.982149
     5  C    6.019781
     6  N    7.001592
     7  C    5.969398
     8  C    6.014911
     9  C    5.985883
    10  C    6.030608
    11  C    5.996928
    12  C    6.006640
    13  C    6.002228
    14  H    0.992750
    15  N    6.988771
    16  C    6.051258
    17  C    6.018436
    18  C    6.009214
    19  C    6.045620
    20  C    5.995858
    21  C    6.013691
    22  O    8.021877
    23  C    5.994119
    24  N    7.004997
    25  C    6.030694
    26  C    5.990338
    27  C    6.011680
    28  C    5.967024
    29  C    5.999517
    30  C    6.003234
    31  C    6.001215
    32  N    7.002916
    33  C    5.960562
    34  C    5.965852
    35  C    5.997422
    36  C    5.968393
    37  C    6.004038
    38  C    5.983517
    39  O    7.970710
    40  C    5.998215
    41  C    5.994799
    42  O    7.995945
    43  O    7.999968
    44  C    6.002328
    45  H    1.009027
    46  H    1.008393
    47  H    0.995732
    48  H    0.999073
    49  H    1.003625
    50  H    1.001120
    51  H    1.014383
    52  H    0.997074
    53  H    1.006386
    54  H    0.991252
    55  H    0.984537
    56  H    1.008189
    57  H    1.021289
    58  H    1.019156
    59  H    1.016472
    60  H    1.013297
    61  H    1.012044
    62  H    1.007425
    63  H    1.000838
    64  H    0.999927
    65  H    0.996000
    66  H    1.010290
    67  H    1.000561
    68  H    1.000995
    69  H    0.989667
    70  H    0.994728
    71  H    1.002250
    72  H    1.002399
    73  H    0.974240
    74  H    0.985891
    75  H    0.974630
    76  H    0.990583
    77  H    0.995440
    78  H    0.998038
    79  H    0.990006
    80  Mg  11.999999
    81  C    5.999702
    82  C    6.000446
    83  C    6.000120
    84  C    5.999613
    85  N    6.999945
    86  C    6.000445
    87  C    5.999889
    88  C    6.000280
    89  C    5.999364
    90  C    6.000002
    91  C    5.999987
    92  C    5.999959
    93  H    1.000083
    94  N    7.000309
    95  C    5.999216
    96  C    5.999791
    97  C    5.999707
    98  C    5.999495
    99  C    6.000054
   100  C    5.999779
   101  O    7.999552
   102  C    6.000093
   103  N    6.999836
   104  C    5.999518
   105  C    6.000132
   106  C    5.999851
   107  C    6.000658
   108  C    6.000083
   109  C    5.999939
   110  C    5.999929
   111  N    6.999944
   112  C    6.000776
   113  C    6.000370
   114  C    6.000062
   115  C    6.000485
   116  C    5.999937
   117  C    6.000253
   118  O    8.000480
   119  C    6.000051
   120  C    6.000077
   121  O    8.000130
   122  O    8.000002
   123  C    5.999943
   124  H    0.999923
   125  H    0.999860
   126  H    1.000151
   127  H    0.999949
   128  H    0.999910
   129  H    0.999949
   130  H    0.999831
   131  H    1.000041
   132  H    1.000128
   133  H    0.999906
   134  H    1.000066
   135  H    0.999934
   136  H    0.999712
   137  H    0.999703
   138  H    0.999747
   139  H    0.999886
   140  H    0.999880
   141  H    0.999752
   142  H    0.999965
   143  H    1.000028
   144  H    0.999996
   145  H    0.999804
   146  H    1.000042
   147  H    1.000144
   148  H    0.999954
   149  H    1.000188
   150  H    1.000077
   151  H    0.999874
   152  H    1.000328
   153  H    1.000307
   154  H    1.000321
   155  H    1.000138
   156  H    1.000030
   157  H    1.000093
   158  H    1.000100
 Sum of Mulliken charges = 624.00000

 Dipole moment (field-independent basis, Debye):
    X=              4.2052    Y=              9.8218    Z=             -1.7735  Tot=             10.8303
 Quadrupole moment (field-independent basis, Debye-Ang):
   XX=            241.3849   YY=              4.2836   ZZ=             -0.9403
   XY=            307.1681   XZ=            -58.8720   YZ=             -2.3028

 Normal termination of Gaussian 16 at Wed Sep 22 18:13:30 2021.
