 Gaussian 16, Revision A.03,
 Gaussian 16:  ES64L-G16RevA.03 25-Dec-2016

 -----------------------------------
 #p cam-b3lyp/Def2SVP td=(nstates=5)
 -----------------------------------

 --------------------------------
 TDDFT excited states in gaussian
 --------------------------------
 Symbolic Z-matrix:
 Charge =  0 Multiplicity = 1

                         Standard orientation:
 ---------------------------------------------------------------------
 Center     Atomic      Atomic             Coordinates (Angstroms)
 Number     Number       Type             X           Y           Z
 ---------------------------------------------------------------------
      1         12           0       12.549999   -0.776966   -0.440525
      2          6           0       14.569004    2.180213   -0.065138
      3          6           0        9.861139    1.153578    0.394266
      4          6           0       10.728850   -3.593337   -0.494705
      5          6           0       15.416078   -2.573998   -0.768290
      6          7           0       12.261685    1.527822    0.071804
      7          6           0       13.250812    2.467640    0.100121
      8          6           0       12.595193    3.787356    0.254559
      9          6           0       11.101301    3.471981    0.542993
     10          6           0       10.995940    1.930274    0.386421
     11          6           0       10.680439    3.912437    1.981162
     12          6           0       12.785747    4.755151   -0.886413
     13          6           0       12.352738    6.201905   -0.712208
     14          1           0       13.329860    7.236877   -1.083685
     15          7           0       10.579722   -1.139751   -0.210909
     16          6           0        9.609017   -0.203825    0.241374
     17          6           0        8.305145   -0.890683    0.180067
     18          6           0        8.593633   -2.242951    0.015606
     19          6           0       10.047638   -2.384167   -0.182084
     20          6           0        7.014449   -0.151898    0.466069
     21          6           0        7.636242   -3.451749   -0.062713
     22          8           0        8.003399   -4.639193    0.014061
     23          6           0        6.206888   -3.156561   -0.270448
     24          7           0       12.994096   -2.846069   -0.544940
     25          6           0       12.125903   -3.836413   -0.568784
     26          6           0       12.789277   -5.237128   -0.673663
     27          6           0       14.230118   -4.843186   -1.006062
     28          6           0       14.209140   -3.344807   -0.808221
     29          6           0       12.669022   -6.033373    0.669432
     30          6           0       14.748157   -5.234121   -2.371780
     31          6           0       16.179063   -5.797597   -2.431904
     32          7           0       14.547510   -0.286644   -0.512674
     33          6           0       15.604947   -1.156410   -0.666298
     34          6           0       16.905846   -0.424423   -0.730468
     35          6           0       16.460538    0.856117   -0.471248
     36          6           0       15.072424    0.905670   -0.295239
     37          6           0       18.250649   -0.943535   -1.126732
     38          6           0       16.950153    2.217091   -0.308457
     39          8           0       18.103188    2.616181   -0.426531
     40          6           0       15.749527    3.152639   -0.038092
     41          6           0       16.086204    3.922828    1.131944
     42          8           0       16.068510    3.531092    2.323729
     43          8           0       16.276440    5.229156    0.797600
     44          6           0       16.352892    6.212829    1.855543
     45          1           0        8.980735    1.773326    0.575215
     46          1           0       10.170493   -4.520379   -0.349868
     47          1           0       16.263132   -3.251789   -0.645114
     48          1           0       13.064750    4.183125    1.154153
     49          1           0       10.428535    3.972589   -0.153555
     50          1           0        9.804624    4.527622    2.189952
     51          1           0       11.539560    4.475125    2.346051
     52          1           0       10.643458    3.109680    2.718072
     53          1           0       12.198824    4.459639   -1.756229
     54          1           0       13.765097    4.648321   -1.352025
     55          1           0       12.099898    6.405242    0.327304
     56          1           0       11.604169    6.369347   -1.486181
     57          1           0        6.340879   -0.673526    1.145683
     58          1           0        6.439811    0.098745   -0.425370
     59          1           0        7.135363    0.798275    0.986895
     60          1           0        6.115253   -2.482659   -1.122364
     61          1           0        5.941159   -2.645126    0.654058
     62          1           0        5.739840   -4.096591   -0.561919
     63          1           0       12.293592   -5.743883   -1.502376
     64          1           0       14.995249   -5.196402   -0.315339
     65          1           0       13.639531   -6.162355    1.147661
     66          1           0       12.296515   -7.043450    0.498810
     67          1           0       12.021770   -5.428195    1.304378
     68          1           0       14.681432   -4.409905   -3.081221
     69          1           0       13.944884   -5.838637   -2.791737
     70          1           0       16.217055   -6.460443   -3.295817
     71          1           0       16.508735   -6.230140   -1.486771
     72          1           0       16.755316   -4.883577   -2.573886
     73          1           0       18.533898   -0.716192   -2.154611
     74          1           0       18.247957   -1.993471   -0.835328
     75          1           0       18.994526   -0.587950   -0.412694
     76          1           0       15.788305    3.879804   -0.849108
     77          1           0       16.135953    5.826984    2.851972
     78          1           0       15.748266    7.086186    1.612584
     79          1           0       17.350839    6.643570    1.941271
     80         12           0      -12.921051   -0.696564    0.344930
     81          6           0      -13.582531    2.615257   -0.921599
     82          6           0      -11.179851    0.851013    2.966104
     83          6           0      -12.409182   -3.695343    1.579925
     84          6           0      -14.428814   -2.039724   -2.508787
     85          7           0      -12.437399    1.547118    0.900688
     86          6           0      -12.978696    2.678230    0.376442
     87          6           0      -12.750491    3.886021    1.270650
     88          6           0      -11.659383    3.365094    2.363010
     89          6           0      -11.732693    1.841341    2.056187
     90          6           0      -10.262559    4.027247    2.259910
     91          6           0      -14.073876    4.419204    1.916364
     92          6           0      -14.367651    5.910918    1.611144
     93          1           0      -14.358914    6.868450    2.937626
     94          7           0      -11.966592   -1.312462    1.990811
     95          6           0      -11.252644   -0.567345    2.989428
     96          6           0      -10.681844   -1.416481    4.061657
     97          6           0      -11.110228   -2.721716    3.652554
     98          6           0      -11.850642   -2.610015    2.384605
     99          6           0       -9.848564   -0.903964    5.238069
    100          6           0      -10.807998   -4.028753    4.280678
    101          8           0      -11.378559   -5.086784    4.038216
    102          6           0       -9.787825   -4.054245    5.435800
    103          7           0      -13.507896   -2.540790   -0.283152
    104          6           0      -13.148196   -3.658893    0.387661
    105          6           0      -13.408450   -4.919261   -0.389557
    106          6           0      -14.099671   -4.433992   -1.687532
    107          6           0      -14.078687   -2.901657   -1.488562
    108          6           0      -12.196616   -5.806415   -0.583330
    109          6           0      -15.638512   -4.996579   -1.768334
    110          6           0      -16.024592   -5.798938   -3.126801
    111          7           0      -13.595609    0.086103   -1.513451
    112          6           0      -14.263528   -0.621069   -2.542060
    113          6           0      -14.741535    0.362290   -3.520660
    114          6           0      -14.605516    1.598363   -2.835602
    115          6           0      -13.811987    1.389683   -1.706558
    116          6           0      -15.325742    0.153022   -4.914483
    117          6           0      -14.739091    3.064538   -3.066385
    118          8           0      -15.152438    3.792263   -4.011375
    119          6           0      -14.180823    3.734613   -1.751765
    120          6           0      -13.162701    4.765889   -2.140015
    121          8           0      -12.310692    4.596797   -2.965774
    122          8           0      -13.436792    5.942389   -1.499573
    123          6           0      -12.696454    7.091226   -2.079768
    124          1           0      -10.539301    1.372123    3.680375
    125          1           0      -12.269481   -4.718558    1.935679
    126          1           0      -14.937425   -2.435399   -3.390112
    127          1           0      -12.264858    4.634501    0.644467
    128          1           0      -12.011628    3.473134    3.389203
    129          1           0       -9.507159    3.297042    1.968135
    130          1           0       -9.987308    4.486064    3.210446
    131          1           0      -10.189753    4.882410    1.587933
    132          1           0      -14.057817    4.328673    3.002790
    133          1           0      -14.945149    3.869538    1.559204
    134          1           0      -15.392718    6.087045    1.284041
    135          1           0      -13.764241    6.350372    0.817487
    136          1           0       -9.912510    0.160739    5.464827
    137          1           0       -8.789951   -1.162051    5.211056
    138          1           0      -10.249514   -1.423541    6.108929
    139          1           0       -8.811739   -3.716650    5.087501
    140          1           0       -9.720505   -5.034772    5.908322
    141          1           0      -10.138786   -3.365287    6.204069
    142          1           0      -14.062479   -5.553224    0.210667
    143          1           0      -13.514278   -4.694608   -2.568797
    144          1           0      -12.222509   -6.715444    0.018210
    145          1           0      -11.247180   -5.365211   -0.280212
    146          1           0      -12.122355   -6.042930   -1.644968
    147          1           0      -16.398779   -4.223137   -1.664316
    148          1           0      -15.869007   -5.696730   -0.965796
    149          1           0      -15.074565   -6.127467   -3.548707
    150          1           0      -16.572946   -5.169205   -3.828614
    151          1           0      -16.538489   -6.733551   -2.903575
    152          1           0      -16.059778    0.916286   -5.172047
    153          1           0      -15.921523   -0.759894   -4.881526
    154          1           0      -14.443312    0.010309   -5.538389
    155          1           0      -15.017112    4.292131   -1.330753
    156          1           0      -11.639024    6.827458   -2.081476
    157          1           0      -12.821635    7.874374   -1.332193
    158          1           0      -12.925205    7.414439   -3.095264
 ---------------------------------------------------------------------

 SCF Done:  E(RCAM-B3LYP) =  -4069.81259867     A.U. after   18 cycles

 Excitation energies and oscillator strengths:

 Excited State   1:      Singlet-A      1.6720 eV  741.52 nm  f=0.3792  <S**2>=0.000
     310 -> 315       -0.18794
     311 -> 313        0.68402
     310 <- 315       -0.11180
 This state for optimization and/or second-order correction.
 Total Energy, E(TD-HF/TD-DFT) =  -4069.75115270
 Copying the excited state density for this state as the 1-particle RhoCI density.

 Excited State   2:      Singlet-A      1.7539 eV  706.89 nm  f=0.3753  <S**2>=0.000
     309 -> 316        0.19887
     312 -> 314        0.68100
     309 <- 316        0.11268

 Excited State   3:      Singlet-A      2.1740 eV  570.30 nm  f=0.1319  <S**2>=0.000
     310 -> 313        0.64727
     311 -> 315        0.27764

 Excited State   4:      Singlet-A      2.3187 eV  534.72 nm  f=0.0715  <S**2>=0.000
     309 -> 314        0.61709
     312 -> 316       -0.33872

 Excited State   5:      Singlet-A      2.8727 eV  431.59 nm  f=0.0000  <S**2>=0.000
     312 -> 313        0.70708

 The electronic state is 1-A.
 Alpha  occ. eigenvalues --  -46.88598 -46.88546 -19.25720 -19.25206 -19.19819
 Alpha  occ. eigenvalues --  -19.19080 -19.19015 -19.18881 -19.18752 -19.18652
 Alpha  occ. eigenvalues --  -14.42675 -14.42002 -14.41952 -14.41148 -14.40783
 Alpha  occ. eigenvalues --  -14.39811 -14.39644 -14.39318 -10.39184 -10.38892
 Alpha  occ. eigenvalues --  -10.35299 -10.35209 -10.35186 -10.34494 -10.32000
 Alpha  occ. eigenvalues --  -10.31898 -10.31643 -10.31556 -10.31358 -10.31260
 Alpha  occ. eigenvalues --  -10.30932 -10.30865 -10.30796 -10.30734 -10.30652
 Alpha  occ. eigenvalues --  -10.30604 -10.30521 -10.30451 -10.30440 -10.30129
 Alpha  occ. eigenvalues --  -10.30046 -10.29167 -10.29114 -10.29083 -10.29062
 Alpha  occ. eigenvalues --  -10.28972 -10.28700 -10.28643 -10.28601 -10.28511
 Alpha  occ. eigenvalues --  -10.28448 -10.28308 -10.28168 -10.28149 -10.28058
 Alpha  occ. eigenvalues --  -10.28034 -10.28028 -10.27996 -10.27899 -10.27648
 Alpha  occ. eigenvalues --  -10.27594 -10.27395 -10.27374 -10.27295 -10.27269
 Alpha  occ. eigenvalues --  -10.27205 -10.27121 -10.27011 -10.26965 -10.26823
 Alpha  occ. eigenvalues --  -10.26679 -10.26327 -10.26257 -10.26191 -10.26175
 Alpha  occ. eigenvalues --  -10.26148 -10.26117 -10.26028 -10.25971 -10.25967
 Alpha  occ. eigenvalues --  -10.25958 -10.25811 -10.25749 -10.25551 -10.25256
 Alpha  occ. eigenvalues --  -10.24650  -3.17242  -3.17152  -1.92139  -1.92060
 Alpha  occ. eigenvalues --   -1.91696  -1.91599  -1.91563  -1.91464  -1.17035
 Alpha  occ. eigenvalues --   -1.16154  -1.10030  -1.09517  -1.09112  -1.08758
 Alpha  occ. eigenvalues --   -1.07132  -1.06001  -1.05812  -1.04624  -1.04065
 Alpha  occ. eigenvalues --   -1.03335  -1.03122  -1.02651  -1.02228  -1.02083
 Alpha  occ. eigenvalues --   -0.93208  -0.91644  -0.90134  -0.89361  -0.88708
 Alpha  occ. eigenvalues --   -0.88558  -0.88523  -0.88199  -0.87637  -0.87478
 Alpha  occ. eigenvalues --   -0.87126  -0.87063  -0.86669  -0.85702  -0.84719
 Alpha  occ. eigenvalues --   -0.84109  -0.84091  -0.83235  -0.82977  -0.82656
 Alpha  occ. eigenvalues --   -0.81880  -0.81459  -0.81287  -0.80923  -0.80743
 Alpha  occ. eigenvalues --   -0.79825  -0.79163  -0.78717  -0.77764  -0.77486
 Alpha  occ. eigenvalues --   -0.77161  -0.76855  -0.76618  -0.76107  -0.75293
 Alpha  occ. eigenvalues --   -0.75293  -0.73035  -0.72623  -0.72000  -0.71487
 Alpha  occ. eigenvalues --   -0.69584  -0.69308  -0.69240  -0.68807  -0.68129
 Alpha  occ. eigenvalues --   -0.67661  -0.67156  -0.66578  -0.66463  -0.65982
 Alpha  occ. eigenvalues --   -0.65704  -0.65456  -0.65153  -0.64604  -0.64455
 Alpha  occ. eigenvalues --   -0.64064  -0.62585  -0.62437  -0.60867  -0.60455
 Alpha  occ. eigenvalues --   -0.59949  -0.59534  -0.59329  -0.58820  -0.58805
 Alpha  occ. eigenvalues --   -0.58438  -0.58414  -0.58026  -0.57656  -0.57206
 Alpha  occ. eigenvalues --   -0.56513  -0.56205  -0.55794  -0.55564  -0.55345
 Alpha  occ. eigenvalues --   -0.55134  -0.54564  -0.54482  -0.54075  -0.53935
 Alpha  occ. eigenvalues --   -0.53846  -0.53539  -0.53464  -0.53212  -0.53013
 Alpha  occ. eigenvalues --   -0.52733  -0.52630  -0.52221  -0.52014  -0.51921
 Alpha  occ. eigenvalues --   -0.51730  -0.51722  -0.51507  -0.51444  -0.51256
 Alpha  occ. eigenvalues --   -0.50917  -0.50831  -0.50535  -0.50525  -0.50337
 Alpha  occ. eigenvalues --   -0.50131  -0.50035  -0.49976  -0.49871  -0.49694
 Alpha  occ. eigenvalues --   -0.49493  -0.49276  -0.49125  -0.48852  -0.48685
 Alpha  occ. eigenvalues --   -0.48424  -0.48387  -0.48311  -0.48184  -0.48071
 Alpha  occ. eigenvalues --   -0.48003  -0.47848  -0.47632  -0.47536  -0.47408
 Alpha  occ. eigenvalues --   -0.47280  -0.47111  -0.47050  -0.46906  -0.46637
 Alpha  occ. eigenvalues --   -0.46583  -0.46276  -0.46270  -0.46085  -0.46009
 Alpha  occ. eigenvalues --   -0.45642  -0.45618  -0.45184  -0.45097  -0.45057
 Alpha  occ. eigenvalues --   -0.44881  -0.44841  -0.44570  -0.44439  -0.44165
 Alpha  occ. eigenvalues --   -0.44003  -0.43945  -0.43903  -0.43852  -0.43749
 Alpha  occ. eigenvalues --   -0.43468  -0.43387  -0.43195  -0.42928  -0.42677
 Alpha  occ. eigenvalues --   -0.42542  -0.42476  -0.42283  -0.42099  -0.42087
 Alpha  occ. eigenvalues --   -0.41794  -0.41724  -0.41613  -0.41607  -0.41380
 Alpha  occ. eigenvalues --   -0.41282  -0.41112  -0.40911  -0.40857  -0.40754
 Alpha  occ. eigenvalues --   -0.40499  -0.40238  -0.40166  -0.39974  -0.39438
 Alpha  occ. eigenvalues --   -0.38855  -0.38669  -0.38300  -0.37956  -0.37554
 Alpha  occ. eigenvalues --   -0.37413  -0.37085  -0.36447  -0.36108  -0.36044
 Alpha  occ. eigenvalues --   -0.35685  -0.35568  -0.34708  -0.34491  -0.33857
 Alpha  occ. eigenvalues --   -0.33577  -0.33086  -0.33052  -0.31700  -0.31610
 Alpha  occ. eigenvalues --   -0.31094  -0.31054  -0.30663  -0.30633  -0.30583
 Alpha  occ. eigenvalues --   -0.30339  -0.30305  -0.29451  -0.24117  -0.23973
 Alpha  occ. eigenvalues --   -0.21372  -0.20956
 Alpha virt. eigenvalues --   -0.09047  -0.08193  -0.01902  -0.01836   0.00065
 Alpha virt. eigenvalues --    0.00703   0.01990   0.02476   0.02978   0.03490
 Alpha virt. eigenvalues --    0.04163   0.04515   0.05144   0.05479   0.05629

 Mulliken charges:
               1
     1  Mg   0.834458
     2  C    0.024654
     3  C   -0.055731
     4  C   -0.051578
     5  C   -0.106174
     6  N   -0.264165
     7  C   -0.113499
     8  C    0.060285
     9  C   -0.062088
    10  C    0.034801
    11  C    0.055147
    12  C    0.051925
    13  C   -0.062198
    14  H    0.017854
    15  N   -0.433191
    16  C    0.174967
    17  C   -0.115187
    18  C   -0.045504
    19  C    0.143457
    20  C    0.083666
    21  C    0.007288
    22  O   -0.223196
    23  C    0.070514
    24  N   -0.254204
    25  C   -0.037035
    26  C   -0.003977
    27  C   -0.057314
    28  C    0.011908
    29  C    0.079530
    30  C    0.047570
    31  C    0.022750
    32  N   -0.327809
    33  C    0.125520
    34  C   -0.201350
    35  C    0.044249
    36  C    0.113403
    37  C    0.151096
    38  C   -0.008609
    39  O   -0.172755
    40  C    0.036401
    41  C    0.195480
    42  O   -0.253706
    43  O   -0.318296
    44  C    0.171983
    45  H   -0.038411
    46  H    0.004197
    47  H   -0.019153
    48  H    0.008442
    49  H    0.010577
    50  H    0.018241
    51  H   -0.002279
    52  H    0.013713
    53  H   -0.010812
    54  H    0.002207
    55  H    0.034817
    56  H    0.034242
    57  H    0.018310
    58  H    0.030422
    59  H    0.016622
    60  H    0.031282
    61  H    0.040703
    62  H    0.035950
    63  H    0.017131
    64  H    0.006259
    65  H    0.011862
    66  H    0.025640
    67  H    0.033285
    68  H   -0.001978
    69  H   -0.015502
    70  H    0.028621
    71  H    0.017468
    72  H    0.021560
    73  H    0.054967
    74  H   -0.004366
    75  H    0.025667
    76  H    0.051023
    77  H    0.049951
    78  H    0.029565
    79  H    0.028438
    80  Mg   0.847796
    81  C   -0.001817
    82  C   -0.070360
    83  C   -0.074572
    84  C   -0.071471
    85  N   -0.234958
    86  C   -0.059628
    87  C   -0.007897
    88  C   -0.060890
    89  C   -0.011778
    90  C    0.063554
    91  C    0.083067
    92  C   -0.087451
    93  H   -0.024345
    94  N   -0.426834
    95  C    0.167353
    96  C   -0.118232
    97  C   -0.023567
    98  C    0.155946
    99  C    0.116634
   100  C   -0.017495
   101  O   -0.205433
   102  C    0.043890
   103  N   -0.341307
   104  C    0.066780
   105  C   -0.028589
   106  C   -0.019898
   107  C    0.079946
   108  C    0.060049
   109  C    0.009223
   110  C   -0.025252
   111  N   -0.337624
   112  C    0.099374
   113  C   -0.169939
   114  C   -0.076832
   115  C    0.107716
   116  C    0.138076
   117  C    0.126503
   118  O   -0.213820
   119  C   -0.017295
   120  C    0.167608
   121  O   -0.185029
   122  O   -0.341737
   123  C    0.175257
   124  H   -0.029386
   125  H   -0.005759
   126  H   -0.030341
   127  H    0.018727
   128  H    0.016929
   129  H    0.026739
   130  H    0.012657
   131  H    0.019468
   132  H    0.025493
   133  H    0.021853
   134  H    0.031777
   135  H    0.040474
   136  H    0.023744
   137  H    0.039791
   138  H    0.023571
   139  H    0.030999
   140  H    0.027066
   141  H    0.018621
   142  H    0.020046
   143  H    0.024831
   144  H    0.018049
   145  H    0.020622
   146  H    0.007164
   147  H    0.019162
   148  H    0.011402
   149  H    0.007530
   150  H    0.031125
   151  H    0.018844
   152  H    0.040545
   153  H    0.005661
   154  H    0.045621
   155  H    0.036875
   156  H    0.032869
   157  H    0.034391
   158  H    0.058114
 Sum of Mulliken charges =  -0.00000

 Dipole moment (field-independent basis, Debye):
    X=             -2.2577    Y=             -0.2198    Z=              2.3573  Tot=              3.2715
 Quadrupole moment (field-independent basis, Debye-Ang):
   XX=           -664.8296   YY=           -491.9222   ZZ=           -516.8890
   XY=             -5.3366   XZ=            -70.7343   YZ=             37.8829

 Normal termination of Gaussian 16 at Thu Sep 16 01:20:50 2021.
