 Gaussian 16, Revision A.03,
 Gaussian 16:  ES64L-G16RevA.03 25-Dec-2016

 -----------------------------------------------------------
 #p cam-b3lyp/Def2SVP td=(nstates=5, root=1) density=current
 -----------------------------------------------------------

 --------------------------------
 TDDFT excited states in gaussian
 --------------------------------
 Symbolic Z-matrix:
 Charge =  0 Multiplicity = 1

                         Standard orientation:
 ---------------------------------------------------------------------
 Center     Atomic      Atomic             Coordinates (Angstroms)
 Number     Number       Type             X           Y           Z
 ---------------------------------------------------------------------
      1         12           0       -0.734409    0.102792    0.108535
      2          6           0        2.703564    0.068530    0.238042
      3          6           0       -0.663842   -3.396207    0.005532
      4          6           0       -4.102072    0.047408   -0.115443
      5          6           0       -0.712200    3.485323   -0.165771
      6          7           0        0.898025   -1.470247   -0.145749
      7          6           0        2.235876   -1.217117    0.181882
      8          6           0        3.018657   -2.514863    0.463516
      9          6           0        1.885824   -3.587078    0.259325
     10          6           0        0.595242   -2.819064    0.070807
     11          6           0        2.165789   -4.539764   -0.896078
     12          6           0        3.760444   -2.689969    1.835796
     13          6           0        5.383536   -2.733943    1.799465
     14          1           0        5.915784   -4.051735    2.370984
     15          7           0       -2.158575   -1.407581   -0.135312
     16          6           0       -1.931234   -2.788545   -0.020422
     17          6           0       -3.191662   -3.529278    0.096272
     18          6           0       -4.299605   -2.527340   -0.017864
     19          6           0       -3.566109   -1.199100   -0.032182
     20          6           0       -3.256505   -5.032877    0.249725
     21          6           0       -5.745945   -2.688236   -0.054034
     22          8           0       -6.469730   -1.701797   -0.254904
     23          6           0       -6.433398   -4.036151    0.075760
     24          7           0       -2.113017    1.529291   -0.185787
     25          6           0       -3.502345    1.316805   -0.116439
     26          6           0       -4.379977    2.632985   -0.094472
     27          6           0       -3.194297    3.728476   -0.145364
     28          6           0       -1.922426    2.850530   -0.147927
     29          6           0       -5.423682    2.760624   -1.310874
     30          6           0       -3.263879    4.715362    1.070399
     31          6           0       -2.923346    6.152479    0.828135
     32          7           0        0.746739    1.505392   -0.056568
     33          6           0        0.599488    2.894428   -0.109720
     34          6           0        1.858384    3.544825    0.021342
     35          6           0        2.742210    2.429124    0.264358
     36          6           0        2.001479    1.248879    0.122576
     37          6           0        2.216239    4.971276    0.055874
     38          6           0        4.119074    2.078851    0.421992
     39          8           0        5.172478    2.710975    0.557496
     40          6           0        4.153369    0.491428    0.261097
     41          6           0        4.943986    0.150931   -0.951301
     42          8           0        4.558757   -0.129080   -2.017743
     43          8           0        6.298978    0.078256   -0.636735
     44          6           0        7.084950   -0.774012   -1.504507
     45          1           0       -0.637150   -4.486368    0.063426
     46          1           0       -5.187309    0.168056   -0.120842
     47          1           0       -0.709688    4.575425   -0.102140
     48          1           0        3.755345   -2.653180   -0.327117
     49          1           0        1.815726   -4.267082    1.108767
     50          1           0        1.420397   -4.374492   -1.673550
     51          1           0        2.019629   -5.517224   -0.437982
     52          1           0        3.181685   -4.523262   -1.290203
     53          1           0        3.402667   -3.613443    2.291776
     54          1           0        3.541747   -1.863250    2.511817
     55          1           0        5.646903   -1.940101    2.498655
     56          1           0        5.745663   -2.580564    0.783127
     57          1           0       -2.997881   -5.455368   -0.722000
     58          1           0       -4.279802   -5.299533    0.509526
     59          1           0       -2.501947   -5.433623    0.926933
     60          1           0       -7.442265   -3.885065   -0.308792
     61          1           0       -6.445243   -4.428669    1.093101
     62          1           0       -6.106782   -4.830890   -0.594629
     63          1           0       -4.854779    2.743209    0.879931
     64          1           0       -3.221787    4.395862   -1.007026
     65          1           0       -5.445283    3.800931   -1.636192
     66          1           0       -6.473942    2.593291   -1.075132
     67          1           0       -5.178279    2.113390   -2.153111
     68          1           0       -2.692819    4.387883    1.939008
     69          1           0       -4.276329    4.828845    1.457439
     70          1           0       -1.996377    6.309406    1.379450
     71          1           0       -3.522652    6.946037    1.274464
     72          1           0       -2.768226    6.319699   -0.238235
     73          1           0        1.358509    5.530679    0.430340
     74          1           0        2.376794    5.227229   -0.991344
     75          1           0        3.178569    5.076563    0.557169
     76          1           0        4.632637    0.038700    1.128745
     77          1           0        7.215394   -0.176627   -2.406203
     78          1           0        6.455940   -1.639721   -1.711240
     79          1           0        8.058457   -1.001649   -1.069321
 ---------------------------------------------------------------------

 SCF Done:  E(RCAM-B3LYP) =  -2034.89297911     A.U. after   19 cycles

 Excitation energies and oscillator strengths:

 Excited State   1:      Singlet-A      1.6721 eV  741.51 nm  f=0.4088  <S**2>=0.000
     155 ->158         0.15732
     156 ->157         0.68849
 This state for optimization and/or second-order correction.
 Total Energy, E(TD-HF/TD-DFT) =  -2034.83153223
 Copying the excited state density for this state as the 1-particle RhoCI density.

 Excited State   2:      Singlet-A      2.1913 eV  565.81 nm  f=0.1267  <S**2>=0.000
     155 ->157         0.64538
     156 ->158        -0.25766

 Excited State   3:      Singlet-A      3.2314 eV  383.69 nm  f=0.0030  <S**2>=0.000
     152 ->157        -0.27944
     153 ->157         0.47334
     154 ->157        -0.41585

 Excited State   4:      Singlet-A      3.3071 eV  374.91 nm  f=0.0027  <S**2>=0.000
     152 ->159        -0.12026
     152 ->161        -0.10733
     153 ->157         0.42547
     153 ->159        -0.10638
     154 ->157         0.46648
     154 ->159        -0.10451

 Excited State   5:      Singlet-A      3.3868 eV  366.08 nm  f=0.0332  <S**2>=0.000
     152 ->157         0.50686
     153 ->157         0.15881
     153 ->159        -0.12510
     154 ->157        -0.23128
     156 ->158        -0.32100

 The electronic state is 1-A.
 Alpha  occ. eigenvalues --  -46.87943 -19.22185 -19.19601 -19.18873 -19.17967
 Alpha  occ. eigenvalues --  -14.42576 -14.42012 -14.40287 -14.38598 -10.38123
 Alpha  occ. eigenvalues --  -10.35349 -10.34220 -10.31844 -10.31302 -10.31065
 Alpha  occ. eigenvalues --  -10.31047 -10.30775 -10.30633 -10.30484 -10.30295
 Alpha  occ. eigenvalues --  -10.29545 -10.29303 -10.29253 -10.28573 -10.28270
 Alpha  occ. eigenvalues --  -10.28266 -10.27876 -10.27767 -10.27728 -10.27626
 Alpha  occ. eigenvalues --  -10.27485 -10.27326 -10.27177 -10.26554 -10.26506
 Alpha  occ. eigenvalues --  -10.26497 -10.26474 -10.26202 -10.25996 -10.25895
 Alpha  occ. eigenvalues --  -10.25839 -10.25339 -10.24503  -3.16705  -1.91574
 Alpha  occ. eigenvalues --   -1.91170  -1.91022  -1.16792  -1.09578  -1.08132
 Alpha  occ. eigenvalues --   -1.07733  -1.04650  -1.03450  -1.02082  -1.00642
 Alpha  occ. eigenvalues --   -0.92606  -0.89204  -0.88636  -0.88517  -0.87366
 Alpha  occ. eigenvalues --   -0.87218  -0.86693  -0.84242  -0.83480  -0.82423
 Alpha  occ. eigenvalues --   -0.81910  -0.80884  -0.80243  -0.78795  -0.77421
 Alpha  occ. eigenvalues --   -0.76711  -0.75279  -0.75250  -0.73085  -0.71707
 Alpha  occ. eigenvalues --   -0.69346  -0.68709  -0.67963  -0.67569  -0.65689
 Alpha  occ. eigenvalues --   -0.65321  -0.65014  -0.63904  -0.60875  -0.60205
 Alpha  occ. eigenvalues --   -0.59419  -0.59018  -0.58478  -0.58312  -0.57713
 Alpha  occ. eigenvalues --   -0.56523  -0.55592  -0.55304  -0.53945  -0.53645
 Alpha  occ. eigenvalues --   -0.53283  -0.53013  -0.52689  -0.52298  -0.52171
 Alpha  occ. eigenvalues --   -0.51620  -0.51381  -0.51206  -0.50772  -0.50575
 Alpha  occ. eigenvalues --   -0.50144  -0.50022  -0.49806  -0.49641  -0.48985
 Alpha  occ. eigenvalues --   -0.48605  -0.48553  -0.48095  -0.48036  -0.47296
 Alpha  occ. eigenvalues --   -0.46968  -0.46849  -0.46507  -0.46160  -0.46011
 Alpha  occ. eigenvalues --   -0.45420  -0.45292  -0.44992  -0.44653  -0.44176
 Alpha  occ. eigenvalues --   -0.43681  -0.43531  -0.43350  -0.43077  -0.42926
 Alpha  occ. eigenvalues --   -0.42527  -0.42000  -0.41669  -0.41435  -0.41193
 Alpha  occ. eigenvalues --   -0.41040  -0.40651  -0.40149  -0.39907  -0.39080
 Alpha  occ. eigenvalues --   -0.38726  -0.37836  -0.37702  -0.37089  -0.36136
 Alpha  occ. eigenvalues --   -0.34935  -0.34473  -0.34100  -0.33201  -0.31563
 Alpha  occ. eigenvalues --   -0.31449  -0.30046  -0.29794  -0.29290  -0.24395
 Alpha  occ. eigenvalues --   -0.21480
 Alpha virt. eigenvalues --   -0.09301  -0.02190  -0.00253   0.01923   0.02399
 Alpha virt. eigenvalues --    0.05104   0.05336   0.06330   0.07420   0.08357
 Alpha virt. eigenvalues --    0.08523   0.08666   0.09135   0.09740   0.10341

 Mulliken charges:
               1
     1  Mg   0.815148
     2  C    0.015388
     3  C   -0.099470
     4  C   -0.065793
     5  C   -0.112885
     6  N   -0.314563
     7  C   -0.060029
     8  C    0.031624
     9  C   -0.090768
    10  C    0.080807
    11  C    0.065636
    12  C    0.033041
    13  C   -0.093290
    14  H    0.021144
    15  N   -0.405680
    16  C    0.186864
    17  C   -0.171054
    18  C    0.011252
    19  C    0.178335
    20  C    0.130895
    21  C   -0.026776
    22  O   -0.231560
    23  C    0.029831
    24  N   -0.344813
    25  C    0.032059
    26  C    0.004319
    27  C   -0.046466
    28  C    0.132247
    29  C    0.047905
    30  C    0.001742
    31  C   -0.001052
    32  N   -0.326486
    33  C    0.122157
    34  C   -0.168349
    35  C    0.004641
    36  C    0.111812
    37  C    0.151716
    38  C    0.018049
    39  O   -0.180337
    40  C   -0.046904
    41  C    0.189126
    42  O   -0.156534
    43  O   -0.359149
    44  C    0.189194
    45  H   -0.038949
    46  H   -0.003150
    47  H   -0.046087
    48  H    0.013468
    49  H    0.009842
    50  H    0.031036
    51  H    0.007285
    52  H    0.023637
    53  H    0.021589
    54  H    0.017751
    55  H    0.052978
    56  H    0.039230
    57  H    0.030354
    58  H    0.010867
    59  H    0.027072
    60  H    0.021227
    61  H    0.047647
    62  H    0.029694
    63  H    0.029260
    64  H    0.020544
    65  H    0.012450
    66  H    0.026664
    67  H    0.038074
    68  H    0.010343
    69  H    0.008364
    70  H    0.006023
    71  H    0.016458
    72  H    0.015926
    73  H    0.021930
    74  H    0.032136
    75  H    0.044865
    76  H    0.024101
    77  H    0.031732
    78  H    0.021429
    79  H    0.041236
 Sum of Mulliken charges =  -0.00000

 Dipole moment (field-independent basis, Debye):
    X=             -2.4009    Y=             -2.3539    Z=              2.3799  Tot=              4.1193
 Quadrupole moment (field-independent basis, Debye-Ang):
   XX=           -281.7711   YY=           -219.7246   ZZ=           -259.1545
   XY=            -26.9971   XZ=             -4.6881   YZ=             -2.6991

 Normal termination of Gaussian 16 at Tue Oct 12 16:13:58 2021.
