 Gaussian 16, Revision A.03,
 Gaussian 16:  ES64L-G16RevA.03 25-Dec-2016

 -----------------------------------------------------
 #p cam-b3lyp/Def2SVP td=(nstates=5) density=(current)
 -----------------------------------------------------

 --------------------------------
 TDDFT excited states in gaussian
 --------------------------------
 Symbolic Z-matrix:
 Charge =  0 Multiplicity = 1

                         Standard orientation:
 ---------------------------------------------------------------------
 Center     Atomic      Atomic             Coordinates (Angstroms)
 Number     Number       Type             X           Y           Z
 ---------------------------------------------------------------------
      1         12           0        0.828030    0.048004   -0.229736
      2          6           0       -2.766931    0.236156   -0.174486
      3          6           0        0.488511   -3.343027   -0.031033
      4          6           0        4.169427   -0.098941    0.025102
      5          6           0        0.912486    3.433046    0.062697
      6          7           0       -1.035705   -1.428429   -0.164230
      7          6           0       -2.348357   -1.056791   -0.199777
      8          6           0       -3.148936   -2.294587   -0.349018
      9          6           0       -2.138858   -3.460992   -0.165684
     10          6           0       -0.756822   -2.760358   -0.058159
     11          6           0       -2.438811   -4.294081    1.120958
     12          6           0       -3.958271   -2.406836   -1.616745
     13          6           0       -4.983692   -3.521623   -1.745988
     14          1           0       -6.331671   -3.135707   -2.190903
     15          7           0        2.129852   -1.489655   -0.144921
     16          6           0        1.788966   -2.859009    0.032427
     17          6           0        3.051816   -3.617536   -0.041468
     18          6           0        4.070353   -2.674139    0.065707
     19          6           0        3.460516   -1.332154    0.047538
     20          6           0        3.060110   -5.131856   -0.025262
     21          6           0        5.600530   -2.876847    0.102995
     22          8           0        6.414398   -1.991188    0.425407
     23          6           0        6.106634   -4.201447   -0.300289
     24          7           0        2.370571    1.467433    0.078649
     25          6           0        3.663445    1.222844    0.139994
     26          6           0        4.524077    2.498415    0.352824
     27          6           0        3.478815    3.588716    0.107117
     28          6           0        2.194712    2.794654    0.034552
     29          6           0        5.131195    2.549479    1.795451
     30          6           0        3.679366    4.467017   -1.107274
     31          6           0        3.427271    5.973511   -0.918754
     32          7           0       -0.611934    1.517597   -0.180065
     33          6           0       -0.401564    2.874576   -0.067742
     34          6           0       -1.688904    3.630714   -0.124936
     35          6           0       -2.574902    2.572431   -0.142939
     36          6           0       -1.918871    1.335694   -0.123022
     37          6           0       -1.901183    5.102178   -0.282190
     38          6           0       -4.001805    2.286892   -0.172762
     39          8           0       -4.924245    3.091488   -0.239357
     40          6           0       -4.205879    0.754702   -0.197218
     41          6           0       -5.150536    0.450937    0.847232
     42          8           0       -4.925656    0.416319    2.081069
     43          8           0       -6.327504    0.026712    0.309416
     44          6           0       -7.308656   -0.583896    1.179588
     45          1           0        0.396988   -4.430697   -0.054228
     46          1           0        5.232039   -0.141459    0.272475
     47          1           0        1.040576    4.466629    0.390375
     48          1           0       -3.816693   -2.251814    0.510434
     49          1           0       -2.149368   -4.156128   -1.005373
     50          1           0       -2.531564   -5.380573    1.126296
     51          1           0       -3.396672   -3.906794    1.467887
     52          1           0       -1.809223   -4.060500    1.979959
     53          1           0       -3.318287   -2.604338   -2.476861
     54          1           0       -4.326231   -1.437660   -1.952358
     55          1           0       -5.129067   -4.023224   -0.790414
     56          1           0       -4.663895   -4.102663   -2.610597
     57          1           0        3.784234   -5.568506    0.662232
     58          1           0        3.231022   -5.585066   -1.001522
     59          1           0        2.137587   -5.591975    0.329634
     60          1           0        5.664383   -4.460144   -1.262470
     61          1           0        5.717013   -4.845761    0.487076
     62          1           0        7.176312   -4.081807   -0.468277
     63          1           0        5.292773    2.475608   -0.420387
     64          1           0        3.316827    4.290590    0.924687
     65          1           0        4.693453    3.353206    2.386747
     66          1           0        6.199826    2.762545    1.767889
     67          1           0        4.887053    1.586100    2.243366
     68          1           0        3.082262    4.129698   -1.953898
     69          1           0        4.649478    4.157769   -1.494957
     70          1           0        4.057187    6.488127   -1.643688
     71          1           0        3.532168    6.298676    0.116774
     72          1           0        2.366235    6.037180   -1.159186
     73          1           0       -2.139216    5.414630   -1.299128
     74          1           0       -1.034890    5.566850    0.187816
     75          1           0       -2.657829    5.431359    0.431091
     76          1           0       -4.764734    0.573282   -1.115254
     77          1           0       -6.966788   -0.755951    2.200536
     78          1           0       -7.716354   -1.486524    0.725277
     79          1           0       -8.198210    0.036666    1.290867
 ---------------------------------------------------------------------

 SCF Done:  E(RCAM-B3LYP) =  -2034.91518922     A.U. after   19 cycles

 Excitation energies and oscillator strengths:

 Excited State   1:      Singlet-A      1.7540 eV  706.87 nm  f=0.3786  <S**2>=0.000
     155 ->158         0.19901
     156 ->157         0.68125
     155 <-158         0.11273
 This state for optimization and/or second-order correction.
 Total Energy, E(TD-HF/TD-DFT) =  -2034.85073148
 Copying the excited state density for this state as the 1-particle RhoCI density.

 Excited State   2:      Singlet-A      2.3187 eV  534.71 nm  f=0.0718  <S**2>=0.000
     155 ->157         0.61700
     156 ->158        -0.33883

 Excited State   3:      Singlet-A      3.5349 eV  350.74 nm  f=0.6567  <S**2>=0.000
     153 ->157        -0.24615
     155 ->157         0.29561
     156 ->158         0.56278
     155 <-157        -0.10503

 Excited State   4:      Singlet-A      3.5637 eV  347.91 nm  f=0.0671  <S**2>=0.000
     152 ->157         0.24875
     152 ->159         0.10955
     153 ->157         0.46697
     153 ->159         0.27460
     153 ->160        -0.20171
     154 ->157        -0.14672
     156 ->158         0.17598

 Excited State   5:      Singlet-A      3.6971 eV  335.36 nm  f=0.0404  <S**2>=0.000
     153 ->157         0.10173
     154 ->157         0.66587

 The electronic state is 1-A.
 Alpha  occ. eigenvalues --  -46.88515 -19.25177 -19.19045 -19.18851 -19.18623
 Alpha  occ. eigenvalues --  -14.41921 -14.41117 -14.39780 -14.39614 -10.39154
 Alpha  occ. eigenvalues --  -10.35263 -10.34465 -10.31231 -10.30765 -10.30622
 Alpha  occ. eigenvalues --  -10.30574 -10.30490 -10.30420 -10.30408 -10.30097
 Alpha  occ. eigenvalues --  -10.29049 -10.28615 -10.28416 -10.28134 -10.28026
 Alpha  occ. eigenvalues --  -10.28006 -10.27967 -10.27618 -10.27552 -10.27341
 Alpha  occ. eigenvalues --  -10.27237 -10.27093 -10.26981 -10.26933 -10.26299
 Alpha  occ. eigenvalues --  -10.26230 -10.26109 -10.25999 -10.25949 -10.25935
 Alpha  occ. eigenvalues --  -10.25780 -10.25710 -10.24619  -3.17121  -1.92030
 Alpha  occ. eigenvalues --   -1.91568  -1.91433  -1.16125  -1.09488  -1.09077
 Alpha  occ. eigenvalues --   -1.05971  -1.05782  -1.04593  -1.03090  -1.02196
 Alpha  occ. eigenvalues --   -0.93178  -0.90106  -0.89331  -0.88491  -0.87604
 Alpha  occ. eigenvalues --   -0.87095  -0.86639  -0.84688  -0.84080  -0.82948
 Alpha  occ. eigenvalues --   -0.82620  -0.81257  -0.80893  -0.78682  -0.77734
 Alpha  occ. eigenvalues --   -0.77456  -0.76588  -0.75260  -0.73004  -0.71968
 Alpha  occ. eigenvalues --   -0.69558  -0.69277  -0.68099  -0.66545  -0.66435
 Alpha  occ. eigenvalues --   -0.65424  -0.65122  -0.64573  -0.62556  -0.60423
 Alpha  occ. eigenvalues --   -0.59918  -0.59503  -0.58790  -0.58408  -0.57625
 Alpha  occ. eigenvalues --   -0.56480  -0.55764  -0.55531  -0.54452  -0.54043
 Alpha  occ. eigenvalues --   -0.53906  -0.53501  -0.53181  -0.52981  -0.51985
 Alpha  occ. eigenvalues --   -0.51894  -0.51701  -0.51223  -0.50803  -0.50499
 Alpha  occ. eigenvalues --   -0.50306  -0.49944  -0.49665  -0.49091  -0.48654
 Alpha  occ. eigenvalues --   -0.48395  -0.48355  -0.47972  -0.47814  -0.47376
 Alpha  occ. eigenvalues --   -0.47247  -0.47018  -0.46553  -0.46243  -0.46056
 Alpha  occ. eigenvalues --   -0.45585  -0.45153  -0.45067  -0.44540  -0.43974
 Alpha  occ. eigenvalues --   -0.43873  -0.43720  -0.43432  -0.43163  -0.42512
 Alpha  occ. eigenvalues --   -0.42447  -0.42055  -0.41765  -0.41694  -0.41576
 Alpha  occ. eigenvalues --   -0.41248  -0.41081  -0.40881  -0.40134  -0.39947
 Alpha  occ. eigenvalues --   -0.38827  -0.37924  -0.37054  -0.36079  -0.36015
 Alpha  occ. eigenvalues --   -0.35655  -0.33826  -0.33546  -0.33021  -0.31578
 Alpha  occ. eigenvalues --   -0.31059  -0.30602  -0.30553  -0.30274  -0.24086
 Alpha  occ. eigenvalues --   -0.20925
 Alpha virt. eigenvalues --   -0.08162  -0.01805   0.00736   0.02507   0.03006
 Alpha virt. eigenvalues --    0.04545   0.05509   0.06115   0.07152   0.07891
 Alpha virt. eigenvalues --    0.08748   0.09027   0.09482   0.10047   0.10599

 Mulliken charges:
               1
     1  Mg   0.824067
     2  C    0.011652
     3  C   -0.062008
     4  C   -0.059413
     5  C   -0.112482
     6  N   -0.278177
     7  C   -0.096437
     8  C    0.056176
     9  C   -0.065251
    10  C    0.048906
    11  C    0.055201
    12  C    0.051088
    13  C   -0.062770
    14  H    0.019521
    15  N   -0.435376
    16  C    0.178923
    17  C   -0.117919
    18  C   -0.045213
    19  C    0.147365
    20  C    0.084577
    21  C    0.002575
    22  O   -0.227762
    23  C    0.071478
    24  N   -0.263228
    25  C   -0.025377
    26  C   -0.006366
    27  C   -0.060670
    28  C    0.026178
    29  C    0.079961
    30  C    0.046900
    31  C    0.022707
    32  N   -0.329589
    33  C    0.131752
    34  C   -0.200129
    35  C    0.044752
    36  C    0.121002
    37  C    0.151498
    38  C   -0.014470
    39  O   -0.176784
    40  C    0.039448
    41  C    0.194057
    42  O   -0.254577
    43  O   -0.318450
    44  C    0.172054
    45  H   -0.039829
    46  H    0.002255
    47  H   -0.019774
    48  H    0.013298
    49  H    0.014415
    50  H    0.020291
    51  H   -0.001371
    52  H    0.015723
    53  H   -0.009317
    54  H    0.004705
    55  H    0.035143
    56  H    0.034802
    57  H    0.017036
    58  H    0.028370
    59  H    0.014614
    60  H    0.029608
    61  H    0.039689
    62  H    0.033836
    63  H    0.020583
    64  H    0.010170
    65  H    0.012415
    66  H    0.027542
    67  H    0.036037
    68  H    0.000062
    69  H   -0.013130
    70  H    0.029634
    71  H    0.018256
    72  H    0.022394
    73  H    0.054768
    74  H   -0.004925
    75  H    0.026310
    76  H    0.050040
    77  H    0.049656
    78  H    0.028894
    79  H    0.028407
 Sum of Mulliken charges =  -0.00000

 Dipole moment (field-independent basis, Debye):
    X=              1.7596    Y=             -2.9242    Z=             -2.2573  Tot=              4.0918
 Quadrupole moment (field-independent basis, Debye-Ang):
   XX=           -275.3640   YY=           -226.0863   ZZ=           -259.0359
   XY=             30.3468   XZ=             -0.6851   YZ=              1.2690

 Normal termination of Gaussian 16 at Fri Oct  8 15:19:16 2021.
