 Gaussian 16, Revision A.03,
 Gaussian 16:  ES64L-G16RevA.03 25-Dec-2016

 ----------------------------------------------------------
 #p cam-b3lyp/Def2SVP td=(nstates=5) density=(transition=1)
 ----------------------------------------------------------

 --------------------------------
 TDDFT excited states in gaussian
 --------------------------------
 Symbolic Z-matrix:
 Charge =  0 Multiplicity = 1

                         Standard orientation:
 ---------------------------------------------------------------------
 Center     Atomic      Atomic             Coordinates (Angstroms)
 Number     Number       Type             X           Y           Z
 ---------------------------------------------------------------------
      1         12           0       -9.280851    0.341808    0.300121
      2          6           0       -7.747239   -2.385950   -1.440212
      3          6           0      -11.304761   -1.900597    1.933925
      4          6           0      -11.093518    2.859625    1.635281
      5          6           0       -7.852818    2.476148   -2.117868
      6          7           0       -9.468476   -1.873584    0.240026
      7          6           0       -8.711193   -2.814394   -0.475495
      8          6           0       -9.133706   -4.201885   -0.065566
      9          6           0      -10.562963   -3.945732    0.574501
     10          6           0      -10.479356   -2.425622    0.900869
     11          6           0      -11.645422   -4.275123   -0.514372
     12          6           0       -8.080155   -4.960666    0.816260
     13          6           0       -7.938493   -6.328215    0.370132
     14          1           0       -6.650029   -7.102524    0.948952
     15          7           0      -10.853828    0.372187    1.742496
     16          6           0      -11.511122   -0.646824    2.308956
     17          6           0      -12.412574   -0.137579    3.296308
     18          6           0      -12.395476    1.239738    3.228636
     19          6           0      -11.342178    1.595830    2.169533
     20          6           0      -13.380844   -1.066121    4.095910
     21          6           0      -13.155857    2.264720    4.095031
     22          8           0      -13.031998    3.439230    3.855978
     23          6           0      -13.972172    1.817181    5.284584
     24          7           0       -9.633842    2.341321   -0.379886
     25          6           0      -10.335014    3.198376    0.461196
     26          6           0      -10.113160    4.623458    0.070881
     27          6           0       -9.049709    4.511392   -1.127658
     28          6           0       -8.765922    3.028959   -1.188069
     29          6           0      -11.377409    5.348626   -0.245465
     30          6           0       -7.692397    5.399815   -1.011693
     31          6           0       -7.432278    6.413212   -2.055104
     32          7           0       -8.010284    0.162714   -1.409561
     33          6           0       -7.545812    1.137991   -2.262986
     34          6           0       -6.607071    0.470323   -3.265894
     35          6           0       -6.565587   -0.893001   -2.911128
     36          6           0       -7.477978   -1.037661   -1.807869
     37          6           0       -5.907396    1.199388   -4.421079
     38          6           0       -6.065909   -2.156809   -3.361220
     39          8           0       -5.290554   -2.432916   -4.304297
     40          6           0       -6.932310   -3.202154   -2.545816
     41          6           0       -5.920679   -4.280014   -2.052738
     42          8           0       -5.501794   -4.270606   -0.880692
     43          8           0       -5.697584   -5.185832   -3.036348
     44          6           0       -4.573004   -6.089232   -2.612923
     45          1           0      -11.791232   -2.602562    2.614939
     46          1           0      -11.653689    3.693336    2.065312
     47          1           0       -7.288734    3.064342   -2.844525
     48          1           0       -9.317944   -4.739995   -0.995126
     49          1           0      -10.735458   -4.578761    1.444191
     50          1           0      -11.718309   -3.522222   -1.298791
     51          1           0      -12.603149   -4.431150   -0.019689
     52          1           0      -11.392206   -5.226755   -0.982258
     53          1           0       -8.531880   -5.069013    1.802604
     54          1           0       -7.141313   -4.411945    0.894656
     55          1           0       -7.720435   -6.373081   -0.697027
     56          1           0       -8.848133   -6.858957    0.652226
     57          1           0      -13.150328   -0.819775    5.132345
     58          1           0      -13.209132   -2.133946    3.961228
     59          1           0      -14.411047   -0.869428    3.799399
     60          1           0      -14.502844    2.661827    5.724113
     61          1           0      -13.132310    1.459067    5.879892
     62          1           0      -14.654462    1.035169    4.951484
     63          1           0       -9.636625    5.038936    0.958993
     64          1           0       -9.565475    4.839467   -2.029785
     65          1           0      -11.497714    6.051692    0.577774
     66          1           0      -12.259964    4.711705   -0.188042
     67          1           0      -11.401863    5.852108   -1.212178
     68          1           0       -6.918448    4.642364   -1.135371
     69          1           0       -7.637701    5.786350    0.005126
     70          1           0       -6.528481    6.177901   -2.616535
     71          1           0       -7.194965    7.230181   -1.374531
     72          1           0       -8.319219    6.673245   -2.634486
     73          1           0       -6.560926    1.075325   -5.283839
     74          1           0       -4.925554    0.782384   -4.644920
     75          1           0       -5.744357    2.238785   -4.136066
     76          1           0       -7.618448   -3.589799   -3.297602
     77          1           0       -3.582182   -5.636730   -2.649631
     78          1           0       -4.514958   -7.031289   -3.157169
     79          1           0       -4.818352   -6.400568   -1.597355
     80         12           0        8.530935    0.947062    0.463623
     81          6           0       11.170369   -1.457549    0.943234
     82          6           0        6.324355   -1.556177    0.320108
     83          6           0        6.355421    3.139306   -0.837128
     84          6           0       11.044872    3.376066    0.173248
     85          7           0        8.750384   -1.214949    0.560383
     86          6           0        9.860606   -1.983759    0.949262
     87          6           0        9.449955   -3.476218    1.246732
     88          6           0        7.916024   -3.463369    0.970225
     89          6           0        7.621084   -1.974292    0.647652
     90          6           0        7.398407   -4.386515   -0.103495
     91          6           0        9.890489   -3.965064    2.728688
     92          6           0       10.701168   -5.266184    2.773809
     93          1           0       10.041837   -6.400632    3.643101
     94          7           0        6.551905    0.835989   -0.043325
     95          6           0        5.800077   -0.269404   -0.050322
     96          6           0        4.438040    0.008063   -0.509631
     97          6           0        4.495324    1.379627   -0.936799
     98          6           0        5.847685    1.857226   -0.630035
     99          6           0        3.368049   -0.997492   -0.523999
    100          6           0        3.329239    2.106830   -1.677232
    101          8           0        3.386670    3.289897   -1.968084
    102          6           0        2.057580    1.418114   -2.057926
    103          7           0        8.693991    2.903430   -0.201574
    104          6           0        7.588688    3.652728   -0.590217
    105          6           0        7.987936    5.139768   -0.864981
    106          6           0        9.408531    5.247425   -0.195170
    107          6           0        9.735605    3.766600   -0.004006
    108          6           0        7.851257    5.674137   -2.327917
    109          6           0        9.417679    6.009127    1.158493
    110          6           0       10.571872    6.930370    1.463235
    111          7           0       10.674081    0.983301    0.485735
    112          6           0       11.531630    2.038495    0.354825
    113          6           0       12.950634    1.551012    0.643990
    114          6           0       12.844966    0.210598    0.926574
    115          6           0       11.454276   -0.105209    0.749052
    116          6           0       14.139558    2.483160    0.698811
    117          6           0       13.541034   -1.017335    1.267406
    118          8           0       14.772900   -1.093494    1.457690
    119          6           0       12.448308   -2.242741    1.202146
    120          6           0       12.679670   -3.240981    0.087007
    121          8           0       12.787671   -2.863244   -1.096422
    122          8           0       12.928129   -4.528500    0.564476
    123          6           0       13.555380   -5.379469   -0.439997
    124          1           0        5.534700   -2.308561    0.369109
    125          1           0        5.566236    3.800672   -1.199850
    126          1           0       11.754443    4.206518    0.188975
    127          1           0       10.027528   -4.028719    0.505876
    128          1           0        7.474491   -3.913885    1.860212
    129          1           0        8.188069   -4.941088   -0.610608
    130          1           0        7.076187   -3.643578   -0.832310
    131          1           0        6.676342   -5.115629    0.265323
    132          1           0        8.934229   -4.056988    3.242929
    133          1           0       10.396778   -3.144089    3.235703
    134          1           0       11.704532   -4.995256    3.102376
    135          1           0       10.783825   -5.670687    1.764214
    136          1           0        2.837758   -1.219521   -1.449536
    137          1           0        2.545157   -0.521259    0.007844
    138          1           0        3.551767   -1.887421    0.078375
    139          1           0        1.622104    1.089038   -1.113674
    140          1           0        2.343984    0.521258   -2.607933
    141          1           0        1.486749    2.150058   -2.627964
    142          1           0        7.281551    5.709080   -0.260778
    143          1           0       10.170651    5.627356   -0.875150
    144          1           0        7.350155    4.865649   -2.859734
    145          1           0        8.791566    5.987976   -2.780253
    146          1           0        7.111124    6.471439   -2.406313
    147          1           0        9.422322    5.137510    1.812704
    148          1           0        8.505044    6.563553    1.378101
    149          1           0       10.124983    7.819921    1.907336
    150          1           0       11.108378    7.254952    0.571076
    151          1           0       11.120292    6.459379    2.279393
    152          1           0       13.774591    3.481958    0.460121
    153          1           0       14.818896    2.211954   -0.108993
    154          1           0       14.638507    2.382928    1.662500
    155          1           0       12.412176   -2.719936    2.181476
    156          1           0       14.592963   -5.645616   -0.243114
    157          1           0       13.508932   -4.981112   -1.453634
    158          1           0       12.977282   -6.303050   -0.455518
 ---------------------------------------------------------------------

 SCF Done:  E(RCAM-B3LYP) =  -4069.76770275     A.U. after   18 cycles

 Excitation energies and oscillator strengths:

 Excited State   1:      Singlet-A      1.6935 eV  732.13 nm  f=0.5775  <S**2>=0.000
     310 -> 316        0.16067
     311 -> 313        0.64230
     312 -> 314       -0.24660
     310 <- 316        0.10050
 This state for optimization and/or second-order correction.
 Total Energy, E(TD-HF/TD-DFT) =  -4069.70546863
 Copying the excited state density for this state as the 1-particle RhoCI density.

 Excited State   2:      Singlet-A      1.7223 eV  719.88 nm  f=0.2183  <S**2>=0.000
     309 -> 315        0.17586
     311 -> 313        0.24764
     312 -> 314        0.63626
     309 <- 315        0.10009

 Excited State   3:      Singlet-A      2.2690 eV  546.42 nm  f=0.0047  <S**2>=0.000
     309 -> 314        0.54881
     312 -> 315       -0.43663

 Excited State   4:      Singlet-A      2.2870 eV  542.11 nm  f=0.0885  <S**2>=0.000
     310 -> 313        0.62971
     311 -> 316       -0.31333

 Excited State   5:      Singlet-A      2.7372 eV  452.97 nm  f=0.0000  <S**2>=0.000
     312 -> 313        0.70683

 The electronic state is 1-A.
 Alpha  occ. eigenvalues --  -46.89517 -46.88241 -19.26588 -19.26321 -19.20736
 Alpha  occ. eigenvalues --  -19.19918 -19.19797 -19.19558 -19.18861 -19.18353
 Alpha  occ. eigenvalues --  -14.42428 -14.42358 -14.41991 -14.41515 -14.39544
 Alpha  occ. eigenvalues --  -14.39449 -14.39243 -14.39220 -10.40719 -10.39873
 Alpha  occ. eigenvalues --  -10.36376 -10.35747 -10.35021 -10.34723 -10.31721
 Alpha  occ. eigenvalues --  -10.31642 -10.31465 -10.31442 -10.31387 -10.31289
 Alpha  occ. eigenvalues --  -10.31022 -10.30824 -10.30553 -10.30499 -10.30193
 Alpha  occ. eigenvalues --  -10.29996 -10.29829 -10.29643 -10.29360 -10.29256
 Alpha  occ. eigenvalues --  -10.29091 -10.29088 -10.28987 -10.28894 -10.28850
 Alpha  occ. eigenvalues --  -10.28755 -10.28716 -10.28713 -10.28428 -10.28240
 Alpha  occ. eigenvalues --  -10.28238 -10.28208 -10.28117 -10.28080 -10.27910
 Alpha  occ. eigenvalues --  -10.27887 -10.27578 -10.27474 -10.27400 -10.27351
 Alpha  occ. eigenvalues --  -10.27247 -10.27169 -10.27073 -10.27055 -10.27000
 Alpha  occ. eigenvalues --  -10.26834 -10.26798 -10.26499 -10.26459 -10.26376
 Alpha  occ. eigenvalues --  -10.26370 -10.26335 -10.26023 -10.26023 -10.25912
 Alpha  occ. eigenvalues --  -10.25873 -10.25817 -10.25579 -10.25422 -10.25409
 Alpha  occ. eigenvalues --  -10.25353 -10.25340 -10.25224 -10.25082 -10.25033
 Alpha  occ. eigenvalues --  -10.25023  -3.17854  -3.16893  -1.92751  -1.92296
 Alpha  occ. eigenvalues --   -1.92156  -1.91775  -1.91333  -1.91221  -1.16231
 Alpha  occ. eigenvalues --   -1.16205  -1.11808  -1.09914  -1.08915  -1.07964
 Alpha  occ. eigenvalues --   -1.07843  -1.07288  -1.04168  -1.03778  -1.03152
 Alpha  occ. eigenvalues --   -1.03120  -1.02778  -1.02509  -1.01745  -1.01520
 Alpha  occ. eigenvalues --   -0.92499  -0.91318  -0.89037  -0.88990  -0.88775
 Alpha  occ. eigenvalues --   -0.88612  -0.88238  -0.87893  -0.87583  -0.87315
 Alpha  occ. eigenvalues --   -0.87186  -0.87062  -0.85983  -0.85556  -0.84486
 Alpha  occ. eigenvalues --   -0.84154  -0.83859  -0.83546  -0.82694  -0.82597
 Alpha  occ. eigenvalues --   -0.82597  -0.81702  -0.81077  -0.80759  -0.80584
 Alpha  occ. eigenvalues --   -0.80090  -0.78293  -0.78253  -0.77610  -0.77489
 Alpha  occ. eigenvalues --   -0.76794  -0.76632  -0.76103  -0.75579  -0.74997
 Alpha  occ. eigenvalues --   -0.74566  -0.72312  -0.72252  -0.71521  -0.70835
 Alpha  occ. eigenvalues --   -0.68880  -0.68877  -0.68281  -0.67912  -0.67791
 Alpha  occ. eigenvalues --   -0.67503  -0.66556  -0.66472  -0.65221  -0.65199
 Alpha  occ. eigenvalues --   -0.65035  -0.64850  -0.64759  -0.64528  -0.64377
 Alpha  occ. eigenvalues --   -0.64224  -0.62466  -0.62163  -0.60126  -0.59998
 Alpha  occ. eigenvalues --   -0.59630  -0.59205  -0.58794  -0.58514  -0.58396
 Alpha  occ. eigenvalues --   -0.58321  -0.58193  -0.57524  -0.57200  -0.57176
 Alpha  occ. eigenvalues --   -0.56100  -0.56054  -0.55675  -0.55307  -0.55142
 Alpha  occ. eigenvalues --   -0.54973  -0.54782  -0.54458  -0.54083  -0.54058
 Alpha  occ. eigenvalues --   -0.53655  -0.53643  -0.53379  -0.53052  -0.53001
 Alpha  occ. eigenvalues --   -0.52783  -0.52683  -0.52549  -0.52445  -0.52238
 Alpha  occ. eigenvalues --   -0.51999  -0.51677  -0.51503  -0.51358  -0.51323
 Alpha  occ. eigenvalues --   -0.51149  -0.50999  -0.50682  -0.50607  -0.50514
 Alpha  occ. eigenvalues --   -0.50290  -0.50183  -0.50066  -0.49589  -0.49483
 Alpha  occ. eigenvalues --   -0.49225  -0.49223  -0.49018  -0.48996  -0.48713
 Alpha  occ. eigenvalues --   -0.48627  -0.48449  -0.48286  -0.48178  -0.48091
 Alpha  occ. eigenvalues --   -0.48018  -0.47932  -0.47829  -0.47525  -0.47105
 Alpha  occ. eigenvalues --   -0.46889  -0.46675  -0.46624  -0.46581  -0.46345
 Alpha  occ. eigenvalues --   -0.46311  -0.46173  -0.45929  -0.45882  -0.45804
 Alpha  occ. eigenvalues --   -0.45536  -0.45443  -0.45241  -0.44724  -0.44665
 Alpha  occ. eigenvalues --   -0.44436  -0.44433  -0.44202  -0.44164  -0.44014
 Alpha  occ. eigenvalues --   -0.43896  -0.43832  -0.43630  -0.43543  -0.43493
 Alpha  occ. eigenvalues --   -0.43233  -0.43108  -0.43082  -0.42942  -0.42861
 Alpha  occ. eigenvalues --   -0.42725  -0.42538  -0.42471  -0.42107  -0.42023
 Alpha  occ. eigenvalues --   -0.41586  -0.41548  -0.41503  -0.41209  -0.40988
 Alpha  occ. eigenvalues --   -0.40839  -0.40677  -0.40451  -0.40321  -0.40041
 Alpha  occ. eigenvalues --   -0.39905  -0.39378  -0.39014  -0.38908  -0.38633
 Alpha  occ. eigenvalues --   -0.38163  -0.37912  -0.37671  -0.37384  -0.37309
 Alpha  occ. eigenvalues --   -0.37297  -0.37196  -0.37047  -0.36291  -0.36226
 Alpha  occ. eigenvalues --   -0.35987  -0.35037  -0.34902  -0.34304  -0.34133
 Alpha  occ. eigenvalues --   -0.33908  -0.33194  -0.32745  -0.31811  -0.31469
 Alpha  occ. eigenvalues --   -0.31422  -0.31255  -0.30740  -0.30498  -0.30248
 Alpha  occ. eigenvalues --   -0.30167  -0.29618  -0.29423  -0.24338  -0.24032
 Alpha  occ. eigenvalues --   -0.20633  -0.20287
 Alpha virt. eigenvalues --   -0.08283  -0.07658  -0.02592  -0.01178  -0.00089
 Alpha virt. eigenvalues --    0.00093   0.01716   0.01918   0.02316   0.02490
 Alpha virt. eigenvalues --    0.02926   0.04650   0.04725   0.05330   0.05674

 Mulliken charges:
               1
     1  Mg  11.998326
     2  C    6.008064
     3  C    5.996004
     4  C    5.988984
     5  C    6.004959
     6  N    7.004959
     7  C    5.987691
     8  C    6.002270
     9  C    5.994709
    10  C    6.013248
    11  C    5.998192
    12  C    6.001839
    13  C    5.999784
    14  H    0.999953
    15  N    6.993429
    16  C    6.013308
    17  C    6.006299
    18  C    6.005071
    19  C    6.017022
    20  C    5.999499
    21  C    6.004113
    22  O    8.008711
    23  C    5.999477
    24  N    6.998123
    25  C    6.016557
    26  C    5.994728
    27  C    6.005808
    28  C    5.987877
    29  C    5.999189
    30  C    6.000894
    31  C    6.000939
    32  N    7.002460
    33  C    5.984799
    34  C    5.986142
    35  C    5.999962
    36  C    5.986908
    37  C    6.001161
    38  C    5.993290
    39  O    7.989022
    40  C    6.001179
    41  C    5.998157
    42  O    7.996253
    43  O    8.000739
    44  C    6.001039
    45  H    1.004444
    46  H    1.002124
    47  H    0.996774
    48  H    1.001545
    49  H    1.002033
    50  H    1.003409
    51  H    1.000322
    52  H    1.005169
    53  H    0.996084
    54  H    1.000658
    55  H    1.001674
    56  H    0.998534
    57  H    1.005381
    58  H    1.006131
    59  H    1.006442
    60  H    1.005515
    61  H    1.001946
    62  H    1.002175
    63  H    1.000322
    64  H    0.998375
    65  H    1.000574
    66  H    0.999022
    67  H    1.004585
    68  H    1.000891
    69  H    0.996216
    70  H    1.000128
    71  H    0.998160
    72  H    0.999308
    73  H    0.993448
    74  H    0.991503
    75  H    0.992584
    76  H    0.997853
    77  H    0.997868
    78  H    0.999114
    79  H    0.998552
    80  Mg  12.002654
    81  C    6.026675
    82  C    5.979362
    83  C    5.982048
    84  C    6.023094
    85  N    7.006017
    86  C    5.962053
    87  C    6.009925
    88  C    5.987273
    89  C    6.032398
    90  C    5.999255
    91  C    6.004488
    92  C    6.002908
    93  H    0.989904
    94  N    6.992450
    95  C    6.042280
    96  C    6.022280
    97  C    6.011128
    98  C    6.041140
    99  C    5.992008
   100  C    6.011918
   101  O    8.022113
   102  C    5.998143
   103  N    7.000491
   104  C    6.029481
   105  C    5.992183
   106  C    6.009254
   107  C    5.968772
   108  C    6.001661
   109  C    6.001531
   110  C    6.002179
   111  N    7.002292
   112  C    5.955092
   113  C    5.970905
   114  C    5.997584
   115  C    5.963773
   116  C    6.004558
   117  C    5.984456
   118  O    7.972437
   119  C    5.994065
   120  C    5.994886
   121  O    7.996742
   122  O    7.997243
   123  C    6.003562
   124  H    1.007771
   125  H    1.007664
   126  H    0.991233
   127  H    0.998288
   128  H    1.005403
   129  H    1.011821
   130  H    0.993774
   131  H    1.002192
   132  H    0.988882
   133  H    1.004027
   134  H    1.003402
   135  H    0.998219
   136  H    1.023463
   137  H    1.019575
   138  H    1.018858
   139  H    1.005460
   140  H    1.004934
   141  H    1.014768
   142  H    1.000066
   143  H    1.000558
   144  H    0.995022
   145  H    1.011324
   146  H    1.001751
   147  H    1.000709
   148  H    0.988034
   149  H    0.994948
   150  H    0.998858
   151  H    1.003722
   152  H    0.980823
   153  H    0.979983
   154  H    0.981130
   155  H    0.991510
   156  H    0.997023
   157  H    0.996803
   158  H    0.993341
 Sum of Mulliken charges = 624.00000

 Dipole moment (field-independent basis, Debye):
    X=            -13.3880    Y=              0.3432    Z=              0.6918  Tot=             13.4103
 Quadrupole moment (field-independent basis, Debye-Ang):
   XX=           -127.7709   YY=             -3.4467   ZZ=             -0.0669
   XY=             -6.1027   XZ=            -44.3286   YZ=             -1.2760

 Normal termination of Gaussian 16 at Wed Sep 22 15:02:42 2021.
