 Gaussian 16, Revision A.03,
 Gaussian 16:  ES64L-G16RevA.03 25-Dec-2016

 -----------------------------------
 #p cam-b3lyp/Def2SVP td=(nstates=5)
 -----------------------------------

 --------------------------------
 TDDFT excited states in gaussian
 --------------------------------
 Symbolic Z-matrix:
 Charge =  0 Multiplicity = 1

                         Standard orientation:
 ---------------------------------------------------------------------
 Center     Atomic      Atomic             Coordinates (Angstroms)
 Number     Number       Type             X           Y           Z
 ---------------------------------------------------------------------
      1         12           0      -24.553341   -0.657263   -0.060222
      2          6           0      -23.730755    2.382960   -1.432886
      3          6           0      -24.903985    0.976064    3.081261
      4          6           0      -24.849010   -3.621562    1.538271
      5          6           0      -23.897234   -2.237508   -2.945182
      6          7           0      -24.333382    1.452097    0.726140
      7          6           0      -23.969939    2.511542   -0.061164
      8          6           0      -24.015932    3.823077    0.726047
      9          6           0      -24.204559    3.270018    2.213631
     10          6           0      -24.496819    1.812215    2.009778
     11          6           0      -23.001770    3.586791    3.176259
     12          6           0      -25.202603    4.795457    0.283254
     13          6           0      -25.013262    6.282723    0.105540
     14          1           0      -24.289771    7.035651    1.164890
     15          7           0      -24.892894   -1.278303    2.031426
     16          6           0      -25.178372   -0.482783    3.085629
     17          6           0      -25.593498   -1.244230    4.215815
     18          6           0      -25.620344   -2.608402    3.785751
     19          6           0      -25.035582   -2.535179    2.413516
     20          6           0      -25.849318   -0.531601    5.504510
     21          6           0      -25.921726   -3.856282    4.598091
     22          8           0      -25.642861   -4.990326    4.196522
     23          6           0      -26.570557   -3.740308    5.966228
     24          7           0      -24.244215   -2.696638   -0.590671
     25          6           0      -24.560118   -3.738319    0.223041
     26          6           0      -24.524316   -5.056407   -0.548574
     27          6           0      -24.388653   -4.564113   -2.039553
     28          6           0      -24.170239   -3.074507   -1.861993
     29          6           0      -23.544211   -6.199260   -0.150484
     30          6           0      -25.563857   -4.954645   -3.029902
     31          6           0      -26.726971   -4.010667   -3.249940
     32          7           0      -23.851827   -0.110002   -1.795426
     33          6           0      -23.746515   -0.798252   -2.977415
     34          6           0      -23.264241   -0.006365   -4.049588
     35          6           0      -23.286616    1.275201   -3.508333
     36          6           0      -23.671406    1.160013   -2.147724
     37          6           0      -22.909804   -0.316281   -5.498128
     38          6           0      -23.039188    2.629795   -3.744948
     39          8           0      -22.616937    3.151596   -4.760417
     40          6           0      -23.290437    3.484986   -2.379570
     41          6           0      -22.035477    4.134958   -2.022554
     42          8           0      -20.983120    3.557988   -1.683976
     43          8           0      -22.075753    5.488877   -2.137153
     44          6           0      -20.815074    6.239305   -2.119814
     45          1           0      -25.065464    1.595633    3.965439
     46          1           0      -25.215966   -4.561773    1.954669
     47          1           0      -24.033892   -2.642040   -3.949507
     48          1           0      -23.097423    4.376053    0.525323
     49          1           0      -25.047118    3.749626    2.712086
     50          1           0      -23.390242    4.174841    4.007048
     51          1           0      -22.261704    4.070366    2.538406
     52          1           0      -22.579250    2.724992    3.693755
     53          1           0      -25.922237    4.624642    1.084103
     54          1           0      -25.757373    4.377025   -0.555871
     55          1           0      -25.966570    6.753279   -0.134937
     56          1           0      -24.343956    6.387529   -0.747596
     57          1           0      -26.783481   -0.953386    5.873572
     58          1           0      -26.038767    0.527845    5.330151
     59          1           0      -25.072673   -0.615477    6.265465
     60          1           0      -27.380779   -3.012082    6.013129
     61          1           0      -25.797921   -3.673465    6.733397
     62          1           0      -27.053731   -4.706913    6.111951
     63          1           0      -25.487588   -5.506016   -0.306664
     64          1           0      -23.571218   -5.049754   -2.571195
     65          1           0      -22.760409   -6.302711   -0.900714
     66          1           0      -24.136615   -7.113873   -0.131421
     67          1           0      -23.156316   -5.925480    0.830065
     68          1           0      -25.971516   -5.896668   -2.665676
     69          1           0      -25.160464   -5.132861   -4.026960
     70          1           0      -27.686159   -4.506938   -3.100507
     71          1           0      -26.734702   -3.550164   -4.238750
     72          1           0      -26.590777   -3.225773   -2.505947
     73          1           0      -23.114053   -1.369048   -5.696960
     74          1           0      -21.859540   -0.077854   -5.667938
     75          1           0      -23.522642    0.311015   -6.144842
     76          1           0      -23.989274    4.234824   -2.751473
     77          1           0      -20.870665    7.212673   -2.607416
     78          1           0      -19.933030    5.684388   -2.438035
     79          1           0      -20.688692    6.545422   -1.081228
     80         12           0       24.662511   -0.669307    0.137688
     81          6           0       22.381150    1.909979    0.862705
     82          6           0       27.041264    1.791211   -0.477112
     83          6           0       26.677308   -3.117240   -0.850129
     84          6           0       21.914112   -2.972773   -0.037907
     85          7           0       24.698557    1.559350    0.162779
     86          6           0       23.657233    2.379664    0.619072
     87          6           0       24.219709    3.741440    0.982343
     88          6           0       25.617995    3.793669    0.303537
     89          6           0       25.804986    2.281161   -0.022338
     90          6           0       25.772486    4.784886   -0.892439
     91          6           0       24.236833    4.053804    2.518875
     92          6           0       24.058154    5.595796    2.872510
     93          1           0       23.947851    6.587421    1.711252
     94          7           0       26.566034   -0.666919   -0.423024
     95          6           0       27.403853    0.428369   -0.543664
     96          6           0       28.743456    0.012751   -0.844415
     97          6           0       28.650600   -1.395262   -1.086214
     98          6           0       27.288010   -1.769383   -0.751861
     99          6           0       29.933853    1.002020   -1.032835
    100          6           0       29.706284   -2.332519   -1.574509
    101          8           0       29.436986   -3.516094   -1.890115
    102          6           0       31.211475   -2.054614   -1.860352
    103          7           0       24.322670   -2.685276   -0.638449
    104          6           0       25.348753   -3.523602   -0.877712
    105          6           0       24.845583   -4.986674   -0.960805
    106          6           0       23.331065   -4.949058   -0.727171
    107          6           0       23.179704   -3.400133   -0.390989
    108          6           0       25.349348   -5.681780   -2.188815
    109          6           0       22.763968   -5.878150    0.367602
    110          6           0       23.333913   -5.650864    1.789461
    111          7           0       22.531277   -0.605202    0.296637
    112          6           0       21.632633   -1.615361    0.358292
    113          6           0       20.382204   -1.034543    0.844891
    114          6           0       20.582891    0.351162    1.098847
    115          6           0       21.919620    0.591533    0.697866
    116          6           0       19.108181   -1.809353    1.171132
    117          6           0       19.974812    1.561459    1.551460
    118          8           0       18.891234    1.831963    2.062394
    119          6           0       21.165744    2.706693    1.347625
    120          6           0       20.624177    3.843369    0.501272
    121          8           0       20.541627    3.799257   -0.710524
    122          8           0       20.344341    4.943627    1.279472
    123          6           0       19.474467    5.985217    0.742853
    124          1           0       27.735263    2.633078   -0.518457
    125          1           0       27.408583   -3.893063   -1.085126
    126          1           0       21.157355   -3.757641    0.018318
    127          1           0       23.592904    4.517999    0.544211
    128          1           0       26.334415    4.070337    1.076497
    129          1           0       26.115018    4.130301   -1.693166
    130          1           0       26.585633    5.487719   -0.707054
    131          1           0       24.904264    5.335340   -1.254707
    132          1           0       25.200943    3.809819    2.963963
    133          1           0       23.483735    3.436076    3.006427
    134          1           0       24.974823    5.922924    3.363476
    135          1           0       23.186238    5.678603    3.520903
    136          1           0       30.547090    0.624235   -1.851866
    137          1           0       30.577078    1.055648   -0.155139
    138          1           0       29.765739    2.060198   -1.232516
    139          1           0       31.700470   -1.641837   -0.977516
    140          1           0       31.360180   -1.416178   -2.731165
    141          1           0       31.834128   -2.947887   -1.893018
    142          1           0       25.402541   -5.526706   -0.196203
    143          1           0       22.896779   -5.034338   -1.723900
    144          1           0       26.183579   -6.352780   -1.983223
    145          1           0       25.610559   -4.946927   -2.950471
    146          1           0       24.598654   -6.284942   -2.700670
    147          1           0       23.073827   -6.868906    0.034573
    148          1           0       21.675288   -5.819084    0.383917
    149          1           0       22.471015   -5.395947    2.404373
    150          1           0       24.041817   -4.825306    1.715273
    151          1           0       23.923505   -6.482439    2.175734
    152          1           0       18.648114   -1.485731    2.104353
    153          1           0       19.319842   -2.859509    1.370256
    154          1           0       18.453202   -1.763643    0.300634
    155          1           0       21.330576    3.099106    2.351416
    156          1           0       19.749204    6.107447   -0.305180
    157          1           0       19.575379    6.958543    1.223139
    158          1           0       18.458047    5.636675    0.926077
 ---------------------------------------------------------------------

 SCF Done:  E(RCAM-B3LYP) =  -4069.84010904     A.U. after   18 cycles

 Excitation energies and oscillator strengths:

 Excited State   1:      Singlet-A      1.6591 eV  747.31 nm  f=0.4037  <S**2>=0.000
     309 -> 315       -0.16731
     312 -> 313        0.68827
     309 <- 315       -0.10535
 This state for optimization and/or second-order correction.
 Total Energy, E(TD-HF/TD-DFT) =  -4069.77913925
 Copying the excited state density for this state as the 1-particle RhoCI density.

 Excited State   2:      Singlet-A      1.7199 eV  720.87 nm  f=0.4157  <S**2>=0.000
     310 -> 316       -0.17811
     311 -> 314        0.68656
     310 <- 316       -0.10694

 Excited State   3:      Singlet-A      2.1905 eV  566.02 nm  f=0.1501  <S**2>=0.000
     310 -> 314        0.66053
     311 -> 316        0.23671

 Excited State   4:      Singlet-A      2.1919 eV  565.65 nm  f=0.1791  <S**2>=0.000
     309 -> 313        0.65526
     312 -> 315        0.24435

 Excited State   5:      Singlet-A      3.1391 eV  394.96 nm  f=0.0000  <S**2>=0.000
     311 -> 313        0.70710

 The electronic state is 1-A.
 Alpha  occ. eigenvalues --  -46.89095 -46.88882 -19.25066 -19.24228 -19.19331
 Alpha  occ. eigenvalues --  -19.19229 -19.18861 -19.18586 -19.18519 -19.18338
 Alpha  occ. eigenvalues --  -14.42524 -14.42122 -14.41530 -14.41406 -14.40246
 Alpha  occ. eigenvalues --  -14.39567 -14.39489 -14.39352 -10.39090 -10.38930
 Alpha  occ. eigenvalues --  -10.35561 -10.35452 -10.35351 -10.34513 -10.31613
 Alpha  occ. eigenvalues --  -10.31514 -10.31384 -10.31062 -10.30910 -10.30864
 Alpha  occ. eigenvalues --  -10.30773 -10.30704 -10.30442 -10.30415 -10.30325
 Alpha  occ. eigenvalues --  -10.30116 -10.30061 -10.30039 -10.29870 -10.29826
 Alpha  occ. eigenvalues --  -10.29490 -10.29266 -10.29012 -10.28997 -10.28568
 Alpha  occ. eigenvalues --  -10.28443 -10.28346 -10.28261 -10.28217 -10.28175
 Alpha  occ. eigenvalues --  -10.28128 -10.27994 -10.27989 -10.27962 -10.27950
 Alpha  occ. eigenvalues --  -10.27919 -10.27827 -10.27670 -10.27497 -10.27493
 Alpha  occ. eigenvalues --  -10.27487 -10.27450 -10.27446 -10.27429 -10.27302
 Alpha  occ. eigenvalues --  -10.26901 -10.26858 -10.26855 -10.26699 -10.26594
 Alpha  occ. eigenvalues --  -10.26565 -10.26405 -10.26309 -10.26232 -10.26220
 Alpha  occ. eigenvalues --  -10.26167 -10.26053 -10.26045 -10.25699 -10.25590
 Alpha  occ. eigenvalues --  -10.25571 -10.25266 -10.25194 -10.25029 -10.24881
 Alpha  occ. eigenvalues --  -10.24609  -3.17704  -3.17453  -1.92586  -1.92323
 Alpha  occ. eigenvalues --   -1.92119  -1.92053  -1.91908  -1.91766  -1.15849
 Alpha  occ. eigenvalues --   -1.15420  -1.09879  -1.09447  -1.09420  -1.08388
 Alpha  occ. eigenvalues --   -1.07427  -1.05843  -1.05363  -1.04630  -1.04303
 Alpha  occ. eigenvalues --   -1.04143  -1.03468  -1.03442  -1.03190  -1.02088
 Alpha  occ. eigenvalues --   -0.92603  -0.92161  -0.89184  -0.89010  -0.88525
 Alpha  occ. eigenvalues --   -0.88246  -0.88190  -0.88122  -0.87771  -0.87407
 Alpha  occ. eigenvalues --   -0.87342  -0.86775  -0.86411  -0.85289  -0.84274
 Alpha  occ. eigenvalues --   -0.83793  -0.83755  -0.83311  -0.82672  -0.82160
 Alpha  occ. eigenvalues --   -0.81831  -0.81156  -0.81040  -0.80601  -0.80312
 Alpha  occ. eigenvalues --   -0.80015  -0.78683  -0.78379  -0.77468  -0.77089
 Alpha  occ. eigenvalues --   -0.76925  -0.76747  -0.76241  -0.75811  -0.75482
 Alpha  occ. eigenvalues --   -0.74960  -0.73531  -0.72516  -0.71535  -0.71059
 Alpha  occ. eigenvalues --   -0.69900  -0.69623  -0.69203  -0.69111  -0.68309
 Alpha  occ. eigenvalues --   -0.68119  -0.67501  -0.67119  -0.65624  -0.65192
 Alpha  occ. eigenvalues --   -0.65111  -0.64889  -0.64759  -0.64200  -0.64127
 Alpha  occ. eigenvalues --   -0.64108  -0.62233  -0.61608  -0.60882  -0.60169
 Alpha  occ. eigenvalues --   -0.59824  -0.59464  -0.59058  -0.58769  -0.58284
 Alpha  occ. eigenvalues --   -0.58047  -0.57902  -0.57393  -0.57282  -0.56927
 Alpha  occ. eigenvalues --   -0.56233  -0.55873  -0.55737  -0.55395  -0.54971
 Alpha  occ. eigenvalues --   -0.54896  -0.54868  -0.54719  -0.54064  -0.53917
 Alpha  occ. eigenvalues --   -0.53450  -0.53292  -0.53120  -0.53024  -0.52780
 Alpha  occ. eigenvalues --   -0.52752  -0.52586  -0.52520  -0.52325  -0.52213
 Alpha  occ. eigenvalues --   -0.52073  -0.51963  -0.51426  -0.51295  -0.51000
 Alpha  occ. eigenvalues --   -0.50747  -0.50695  -0.50556  -0.50262  -0.49993
 Alpha  occ. eigenvalues --   -0.49833  -0.49529  -0.49491  -0.49254  -0.49221
 Alpha  occ. eigenvalues --   -0.49179  -0.49083  -0.49003  -0.48786  -0.48751
 Alpha  occ. eigenvalues --   -0.48742  -0.48580  -0.48552  -0.48203  -0.48164
 Alpha  occ. eigenvalues --   -0.47849  -0.47814  -0.47727  -0.47536  -0.47391
 Alpha  occ. eigenvalues --   -0.47134  -0.46845  -0.46657  -0.46511  -0.46351
 Alpha  occ. eigenvalues --   -0.46269  -0.46157  -0.45949  -0.45877  -0.45806
 Alpha  occ. eigenvalues --   -0.45437  -0.45305  -0.45178  -0.44979  -0.44694
 Alpha  occ. eigenvalues --   -0.44524  -0.44475  -0.44213  -0.44051  -0.43973
 Alpha  occ. eigenvalues --   -0.43932  -0.43916  -0.43616  -0.43377  -0.43362
 Alpha  occ. eigenvalues --   -0.43202  -0.43110  -0.43019  -0.42954  -0.42614
 Alpha  occ. eigenvalues --   -0.42389  -0.42217  -0.41899  -0.41871  -0.41822
 Alpha  occ. eigenvalues --   -0.41816  -0.41576  -0.41508  -0.41507  -0.41309
 Alpha  occ. eigenvalues --   -0.41103  -0.40709  -0.40612  -0.40579  -0.40074
 Alpha  occ. eigenvalues --   -0.39979  -0.39825  -0.39608  -0.39513  -0.39218
 Alpha  occ. eigenvalues --   -0.38654  -0.38502  -0.38224  -0.37778  -0.37609
 Alpha  occ. eigenvalues --   -0.37332  -0.36797  -0.36598  -0.36285  -0.36019
 Alpha  occ. eigenvalues --   -0.35940  -0.35659  -0.34544  -0.33986  -0.33717
 Alpha  occ. eigenvalues --   -0.33428  -0.33033  -0.32871  -0.31443  -0.31324
 Alpha  occ. eigenvalues --   -0.31210  -0.30879  -0.30767  -0.30712  -0.30407
 Alpha  occ. eigenvalues --   -0.30271  -0.30083  -0.29465  -0.24097  -0.23824
 Alpha  occ. eigenvalues --   -0.21455  -0.21358
 Alpha virt. eigenvalues --   -0.09219  -0.09074  -0.01385  -0.01181  -0.00025
 Alpha virt. eigenvalues --    0.00237   0.01383   0.01853   0.02192   0.02486
 Alpha virt. eigenvalues --    0.04771   0.05234   0.05412   0.06099   0.06162

 Mulliken charges:
               1
     1  Mg   0.838557
     2  C    0.011573
     3  C   -0.053553
     4  C   -0.054118
     5  C   -0.074702
     6  N   -0.258996
     7  C   -0.044590
     8  C   -0.039955
     9  C   -0.067784
    10  C    0.025080
    11  C    0.071342
    12  C    0.050806
    13  C   -0.046909
    14  H    0.016642
    15  N   -0.276129
    16  C    0.108833
    17  C   -0.140187
    18  C   -0.038888
    19  C    0.073817
    20  C    0.126621
    21  C   -0.001532
    22  O   -0.216472
    23  C    0.046162
    24  N   -0.278502
    25  C    0.028276
    26  C   -0.031859
    27  C    0.005491
    28  C    0.043839
    29  C    0.083016
    30  C   -0.011475
    31  C    0.012522
    32  N   -0.385127
    33  C    0.091411
    34  C   -0.180229
    35  C    0.092697
    36  C    0.102465
    37  C    0.138697
    38  C   -0.042509
    39  O   -0.171679
    40  C    0.016080
    41  C    0.193123
    42  O   -0.252888
    43  O   -0.327438
    44  C    0.186361
    45  H   -0.035450
    46  H   -0.008352
    47  H   -0.023983
    48  H    0.024602
    49  H    0.018086
    50  H    0.010033
    51  H    0.028630
    52  H    0.019058
    53  H   -0.011578
    54  H    0.007799
    55  H    0.032225
    56  H    0.033351
    57  H    0.009150
    58  H    0.014674
    59  H    0.039620
    60  H    0.033201
    61  H    0.047639
    62  H    0.024829
    63  H    0.009807
    64  H    0.009943
    65  H    0.015188
    66  H    0.018523
    67  H    0.029858
    68  H    0.004401
    69  H    0.004801
    70  H    0.014789
    71  H    0.015385
    72  H    0.016068
    73  H    0.004401
    74  H    0.043854
    75  H    0.038551
    76  H    0.030555
    77  H    0.035062
    78  H    0.058290
    79  H    0.019101
    80  Mg   0.835557
    81  C    0.031193
    82  C   -0.057080
    83  C   -0.053521
    84  C   -0.058920
    85  N   -0.269290
    86  C   -0.044908
    87  C    0.001985
    88  C   -0.047192
    89  C   -0.014804
    90  C    0.074629
    91  C    0.034730
    92  C   -0.076602
    93  H    0.020631
    94  N   -0.405743
    95  C    0.178228
    96  C   -0.125151
    97  C   -0.000872
    98  C    0.109736
    99  C    0.101757
   100  C   -0.004292
   101  O   -0.244054
   102  C    0.051042
   103  N   -0.270218
   104  C    0.053268
   105  C   -0.078200
   106  C    0.027882
   107  C   -0.007797
   108  C    0.069554
   109  C    0.031245
   110  C    0.009335
   111  N   -0.344288
   112  C    0.135710
   113  C   -0.189173
   114  C    0.048250
   115  C    0.088906
   116  C    0.113941
   117  C    0.043022
   118  O   -0.170919
   119  C   -0.068829
   120  C    0.209041
   121  O   -0.207523
   122  O   -0.347383
   123  C    0.172015
   124  H   -0.027421
   125  H   -0.004065
   126  H   -0.028280
   127  H    0.008163
   128  H    0.006962
   129  H    0.010118
   130  H    0.012662
   131  H    0.036576
   132  H    0.005599
   133  H    0.014516
   134  H    0.032421
   135  H    0.046725
   136  H    0.016008
   137  H    0.027822
   138  H    0.023613
   139  H    0.009445
   140  H    0.052508
   141  H    0.022976
   142  H    0.010391
   143  H    0.010012
   144  H    0.021261
   145  H    0.019815
   146  H   -0.000296
   147  H    0.007283
   148  H    0.015385
   149  H    0.024414
   150  H    0.019919
   151  H    0.019844
   152  H    0.034828
   153  H   -0.002149
   154  H    0.036008
   155  H    0.036125
   156  H    0.043652
   157  H    0.035887
   158  H    0.046375
 Sum of Mulliken charges =  -0.00000

 Dipole moment (field-independent basis, Debye):
    X=              0.6118    Y=              2.0114    Z=              4.5626  Tot=              5.0237
 Quadrupole moment (field-independent basis, Debye-Ang):
   XX=           -130.8405   YY=           -477.1340   ZZ=           -512.4536
   XY=             30.3069   XZ=             11.3069   YZ=             26.5931

 Normal termination of Gaussian 16 at Fri Sep  3 04:12:54 2021.
