 Gaussian 16, Revision A.03,
 Gaussian 16:  ES64L-G16RevA.03 25-Dec-2016

 ----------------------------------------------------------
 #p cam-b3lyp/Def2SVP td=(nstates=5) density=(transition=1)
 ----------------------------------------------------------

 --------------------------------
 TDDFT excited states in gaussian
 --------------------------------
 Symbolic Z-matrix:
 Charge =  0 Multiplicity = 1

                         Standard orientation:
 ---------------------------------------------------------------------
 Center     Atomic      Atomic             Coordinates (Angstroms)
 Number     Number       Type             X           Y           Z
 ---------------------------------------------------------------------
      1         12           0       24.659490   -0.485040    0.131668
      2          6           0       23.639356    2.822206    0.678379
      3          6           0       24.462439    0.140649   -3.347653
      4          6           0       25.306344   -3.770226   -0.432795
      5          6           0       24.094416   -1.139817    3.474270
      6          7           0       24.277811    1.310074   -1.110830
      7          6           0       24.055947    2.596129   -0.609995
      8          6           0       24.304344    3.643856   -1.754212
      9          6           0       24.462649    2.753516   -2.992182
     10          6           0       24.347680    1.281132   -2.463675
     11          6           0       23.361758    3.078886   -4.037366
     12          6           0       25.508482    4.498556   -1.377995
     13          6           0       25.575609    5.916782   -1.920506
     14          1           0       24.608624    6.310571   -3.059919
     15          7           0       24.878600   -1.690406   -1.615480
     16          6           0       24.729614   -1.249596   -2.944224
     17          6           0       24.904795   -2.353723   -3.871379
     18          6           0       25.226547   -3.530228   -3.086560
     19          6           0       25.126021   -3.026104   -1.649977
     20          6           0       24.941266   -2.203957   -5.397643
     21          6           0       25.579581   -4.942373   -3.512531
     22          8           0       25.839316   -5.794034   -2.672939
     23          6           0       25.811558   -5.212727   -4.949491
     24          7           0       24.754223   -2.195313    1.401369
     25          6           0       25.131669   -3.417293    0.932639
     26          6           0       25.339360   -4.392250    2.121063
     27          6           0       25.013057   -3.535759    3.405548
     28          6           0       24.696738   -2.156109    2.772334
     29          6           0       24.445880   -5.634766    1.956857
     30          6           0       26.184848   -3.396031    4.413266
     31          6           0       25.956577   -4.348983    5.582493
     32          7           0       23.900242    0.526002    1.798696
     33          6           0       23.648519    0.153681    3.076974
     34          6           0       22.911135    1.265749    3.724536
     35          6           0       22.975072    2.343518    2.890702
     36          6           0       23.551973    1.818071    1.706350
     37          6           0       22.415575    1.161395    5.157109
     38          6           0       22.690658    3.773644    2.712399
     39          8           0       22.147711    4.556677    3.482405
     40          6           0       23.195079    4.112842    1.323054
     41          6           0       22.082332    4.811618    0.660762
     42          8           0       21.047327    4.363960    0.148803
     43          8           0       22.331264    6.165636    0.754155
     44          6           0       21.318680    7.051505    0.222142
     45          1           0       24.470184    0.393703   -4.409683
     46          1           0       25.616886   -4.782612   -0.699554
     47          1           0       23.857166   -1.450592    4.493945
     48          1           0       23.355991    4.182185   -1.734396
     49          1           0       25.383508    3.079475   -3.475683
     50          1           0       22.617464    2.295254   -4.179972
     51          1           0       23.848850    3.031136   -5.010895
     52          1           0       22.820615    3.993294   -3.794988
     53          1           0       26.366347    3.889372   -1.664331
     54          1           0       25.590680    4.529986   -0.292192
     55          1           0       26.601535    6.124693   -2.221376
     56          1           0       25.377714    6.495327   -1.017478
     57          1           0       24.664894   -1.210530   -5.751454
     58          1           0       24.253922   -2.916072   -5.856266
     59          1           0       25.922373   -2.516988   -5.752818
     60          1           0       26.691712   -4.654383   -5.269340
     61          1           0       24.891485   -5.101920   -5.523279
     62          1           0       26.107105   -6.247306   -5.124117
     63          1           0       26.369591   -4.744959    2.078684
     64          1           0       24.097033   -3.969567    3.808689
     65          1           0       23.752642   -5.848455    2.769889
     66          1           0       25.219189   -6.402582    1.966663
     67          1           0       23.784274   -5.607254    1.091505
     68          1           0       26.120056   -2.441759    4.936319
     69          1           0       27.166149   -3.578076    3.974668
     70          1           0       26.922513   -4.838612    5.705365
     71          1           0       25.297664   -5.186768    5.355634
     72          1           0       25.642223   -3.879887    6.515235
     73          1           0       22.430278    0.158148    5.583785
     74          1           0       21.406621    1.552808    5.281239
     75          1           0       23.137056    1.663549    5.802593
     76          1           0       24.070881    4.750896    1.436649
     77          1           0       20.362051    6.752467    0.651321
     78          1           0       21.237269    7.017492   -0.864503
     79          1           0       21.462963    7.986440    0.762537
     80         12           0      -23.794465   -0.782480    0.055124
     81          6           0      -25.129766    2.398284    0.466955
     82          6           0      -21.861023    0.579193   -2.482064
     83          6           0      -22.850813   -3.958893   -0.710488
     84          6           0      -25.936240   -1.964976    2.498564
     85          7           0      -23.572904    1.249726   -0.929898
     86          6           0      -24.197261    2.435798   -0.574897
     87          6           0      -23.832923    3.653520   -1.512065
     88          6           0      -23.021743    2.895546   -2.633287
     89          6           0      -22.822654    1.462640   -2.015232
     90          6           0      -23.578944    2.753654   -4.052758
     91          6           0      -23.069044    4.738452   -0.731012
     92          6           0      -23.812357    6.010305   -0.417907
     93          1           0      -23.003273    7.318273   -0.474206
     94          7           0      -22.400581   -1.600855   -1.243329
     95          6           0      -21.688722   -0.840394   -2.117762
     96          6           0      -20.842516   -1.790554   -2.865776
     97          6           0      -21.165429   -3.096122   -2.464019
     98          6           0      -22.137719   -2.963361   -1.449688
     99          6           0      -19.775753   -1.311205   -3.764457
    100          6           0      -20.663846   -4.416398   -2.971194
    101          8           0      -20.959082   -5.523187   -2.440662
    102          6           0      -19.830149   -4.563805   -4.122578
    103          7           0      -24.242052   -2.634483    0.819717
    104          6           0      -23.712214   -3.803565    0.366877
    105          6           0      -24.218779   -4.997351    1.076046
    106          6           0      -25.171477   -4.375457    2.159300
    107          6           0      -25.157448   -2.946143    1.766005
    108          6           0      -24.901884   -6.194676    0.351952
    109          6           0      -24.792453   -4.709965    3.686023
    110          6           0      -23.746871   -3.892541    4.501322
    111          7           0      -25.269941   -0.028060    1.235847
    112          6           0      -26.029984   -0.610744    2.208756
    113          6           0      -26.740742    0.364582    2.913578
    114          6           0      -26.459381    1.573079    2.167155
    115          6           0      -25.540216    1.271333    1.182130
    116          6           0      -27.593484    0.184549    4.168111
    117          6           0      -26.690499    2.988583    2.204860
    118          8           0      -27.265132    3.738901    2.967202
    119          6           0      -25.990583    3.549968    0.917774
    120          6           0      -27.008395    3.927903   -0.082667
    121          8           0      -27.209203    3.372528   -1.185158
    122          8           0      -27.793582    4.965157    0.281544
    123          6           0      -28.703130    5.600960   -0.731755
    124          1           0      -21.303308    0.999901   -3.320599
    125          1           0      -22.616542   -5.002544   -0.931254
    126          1           0      -26.510342   -2.228255    3.389936
    127          1           0      -24.684459    3.981044   -2.109402
    128          1           0      -22.052250    3.391921   -2.674515
    129          1           0      -23.849750    1.715822   -4.248294
    130          1           0      -22.734606    2.905160   -4.723630
    131          1           0      -24.418863    3.405311   -4.296015
    132          1           0      -22.246023    5.028951   -1.385017
    133          1           0      -22.630856    4.274500    0.152638
    134          1           0      -24.209343    5.914605    0.593052
    135          1           0      -24.701604    6.196361   -1.020335
    136          1           0      -18.852714   -1.684047   -3.322389
    137          1           0      -19.667451   -0.242196   -3.952231
    138          1           0      -19.893945   -1.769137   -4.746478
    139          1           0      -20.267160   -3.909485   -4.876433
    140          1           0      -19.661537   -5.616312   -4.346710
    141          1           0      -18.853574   -4.107171   -3.961478
    142          1           0      -23.284958   -5.341166    1.519913
    143          1           0      -26.189773   -4.719586    1.982204
    144          1           0      -24.310322   -7.107480    0.422831
    145          1           0      -25.011675   -5.999002   -0.715244
    146          1           0      -25.917491   -6.387614    0.697333
    147          1           0      -24.375252   -5.713379    3.598519
    148          1           0      -25.786367   -4.741878    4.132614
    149          1           0      -23.396805   -2.976195    4.026770
    150          1           0      -22.919525   -4.461632    4.926226
    151          1           0      -24.289925   -3.621801    5.405850
    152          1           0      -28.614449    0.538337    4.020928
    153          1           0      -27.168383    0.818873    4.945774
    154          1           0      -27.586703   -0.824876    4.580190
    155          1           0      -25.546373    4.509221    1.184058
    156          1           0      -28.910816    6.509451   -0.166240
    157          1           0      -29.598801    5.029141   -0.972209
    158          1           0      -28.154012    5.780780   -1.656523
 ---------------------------------------------------------------------

 SCF Done:  E(RCAM-B3LYP) =  -4069.81097947     A.U. after   19 cycles

 Excitation energies and oscillator strengths:

 Excited State   1:      Singlet-A      1.6782 eV  738.80 nm  f=0.3906  <S**2>=0.000
     309 -> 315       -0.17297
     312 -> 313        0.68711
     309 <- 315       -0.10455
 This state for optimization and/or second-order correction.
 Total Energy, E(TD-HF/TD-DFT) =  -4069.74930732
 Copying the excited state density for this state as the 1-particle RhoCI density.

 Excited State   2:      Singlet-A      1.7035 eV  727.83 nm  f=0.3907  <S**2>=0.000
     310 -> 316       -0.17723
     311 -> 314        0.68475
     310 <- 316       -0.10753

 Excited State   3:      Singlet-A      2.1968 eV  564.39 nm  f=0.1187  <S**2>=0.000
     309 -> 313        0.64515
     312 -> 315        0.27389

 Excited State   4:      Singlet-A      2.2075 eV  561.65 nm  f=0.1435  <S**2>=0.000
     310 -> 314        0.65093
     311 -> 316        0.26118

 Excited State   5:      Singlet-A      3.1456 eV  394.15 nm  f=0.0000  <S**2>=0.000
     312 -> 314        0.70711

 The electronic state is 1-A.
 Alpha  occ. eigenvalues --  -46.89124 -46.87512 -19.24463 -19.24048 -19.19801
 Alpha  occ. eigenvalues --  -19.19303 -19.19212 -19.18243 -19.18207 -19.17934
 Alpha  occ. eigenvalues --  -14.42196 -14.41984 -14.41843 -14.41746 -14.40126
 Alpha  occ. eigenvalues --  -14.39514 -14.39209 -14.38341 -10.39369 -10.38523
 Alpha  occ. eigenvalues --  -10.35486 -10.35410 -10.34499 -10.34161 -10.31999
 Alpha  occ. eigenvalues --  -10.31999 -10.31212 -10.31162 -10.30998 -10.30976
 Alpha  occ. eigenvalues --  -10.30940 -10.30786 -10.30656 -10.30575 -10.30449
 Alpha  occ. eigenvalues --  -10.30105 -10.30090 -10.30006 -10.29544 -10.29352
 Alpha  occ. eigenvalues --  -10.29062 -10.28887 -10.28600 -10.28538 -10.28411
 Alpha  occ. eigenvalues --  -10.28347 -10.28275 -10.28177 -10.28130 -10.28052
 Alpha  occ. eigenvalues --  -10.27820 -10.27783 -10.27777 -10.27713 -10.27676
 Alpha  occ. eigenvalues --  -10.27646 -10.27621 -10.27602 -10.27569 -10.27405
 Alpha  occ. eigenvalues --  -10.27360 -10.27238 -10.27234 -10.27125 -10.27074
 Alpha  occ. eigenvalues --  -10.26887 -10.26863 -10.26801 -10.26730 -10.26678
 Alpha  occ. eigenvalues --  -10.26533 -10.26501 -10.26298 -10.26297 -10.26234
 Alpha  occ. eigenvalues --  -10.25982 -10.25896 -10.25872 -10.25700 -10.25648
 Alpha  occ. eigenvalues --  -10.25535 -10.25513 -10.25267 -10.25012 -10.24780
 Alpha  occ. eigenvalues --  -10.24592  -3.17521  -3.16227  -1.92435  -1.91936
 Alpha  occ. eigenvalues --   -1.91853  -1.91137  -1.90686  -1.90531  -1.15800
 Alpha  occ. eigenvalues --   -1.15118  -1.10465  -1.10016  -1.09508  -1.07932
 Alpha  occ. eigenvalues --   -1.06872  -1.05113  -1.04821  -1.04328  -1.04067
 Alpha  occ. eigenvalues --   -1.03220  -1.02794  -1.02644  -1.02209  -1.01633
 Alpha  occ. eigenvalues --   -0.93376  -0.93064  -0.89275  -0.89017  -0.88787
 Alpha  occ. eigenvalues --   -0.88429  -0.88280  -0.87972  -0.87557  -0.87114
 Alpha  occ. eigenvalues --   -0.86989  -0.86861  -0.86079  -0.85604  -0.84360
 Alpha  occ. eigenvalues --   -0.84316  -0.83888  -0.83627  -0.82788  -0.82734
 Alpha  occ. eigenvalues --   -0.82443  -0.82390  -0.80968  -0.80902  -0.80526
 Alpha  occ. eigenvalues --   -0.80027  -0.78536  -0.78104  -0.77491  -0.77267
 Alpha  occ. eigenvalues --   -0.76849  -0.76821  -0.76192  -0.75964  -0.75277
 Alpha  occ. eigenvalues --   -0.74543  -0.73093  -0.72542  -0.71315  -0.71013
 Alpha  occ. eigenvalues --   -0.70085  -0.69068  -0.68755  -0.68495  -0.67983
 Alpha  occ. eigenvalues --   -0.67931  -0.67081  -0.67078  -0.65431  -0.65180
 Alpha  occ. eigenvalues --   -0.65068  -0.64924  -0.64640  -0.64592  -0.64347
 Alpha  occ. eigenvalues --   -0.63903  -0.62134  -0.61473  -0.60130  -0.59941
 Alpha  occ. eigenvalues --   -0.59653  -0.59625  -0.59129  -0.59100  -0.58801
 Alpha  occ. eigenvalues --   -0.58574  -0.58357  -0.57776  -0.57645  -0.57285
 Alpha  occ. eigenvalues --   -0.56150  -0.55893  -0.55773  -0.55618  -0.55095
 Alpha  occ. eigenvalues --   -0.54876  -0.54780  -0.54424  -0.53809  -0.53638
 Alpha  occ. eigenvalues --   -0.53605  -0.53421  -0.53324  -0.53228  -0.52916
 Alpha  occ. eigenvalues --   -0.52891  -0.52824  -0.52508  -0.52419  -0.52056
 Alpha  occ. eigenvalues --   -0.51895  -0.51866  -0.51728  -0.51382  -0.51051
 Alpha  occ. eigenvalues --   -0.50819  -0.50778  -0.50339  -0.50332  -0.50145
 Alpha  occ. eigenvalues --   -0.49834  -0.49742  -0.49625  -0.49618  -0.49407
 Alpha  occ. eigenvalues --   -0.49311  -0.49257  -0.49030  -0.48921  -0.48786
 Alpha  occ. eigenvalues --   -0.48652  -0.48459  -0.48170  -0.48168  -0.47909
 Alpha  occ. eigenvalues --   -0.47867  -0.47746  -0.47405  -0.47208  -0.47137
 Alpha  occ. eigenvalues --   -0.46739  -0.46734  -0.46476  -0.46403  -0.46230
 Alpha  occ. eigenvalues --   -0.46039  -0.45971  -0.45892  -0.45686  -0.45382
 Alpha  occ. eigenvalues --   -0.45245  -0.45240  -0.45152  -0.44996  -0.44783
 Alpha  occ. eigenvalues --   -0.44741  -0.44456  -0.44396  -0.44230  -0.44225
 Alpha  occ. eigenvalues --   -0.43961  -0.43798  -0.43774  -0.43599  -0.43405
 Alpha  occ. eigenvalues --   -0.43396  -0.43183  -0.43044  -0.42874  -0.42810
 Alpha  occ. eigenvalues --   -0.42740  -0.42626  -0.42435  -0.42369  -0.41884
 Alpha  occ. eigenvalues --   -0.41581  -0.41535  -0.41463  -0.41250  -0.41106
 Alpha  occ. eigenvalues --   -0.41077  -0.40774  -0.40441  -0.40313  -0.39982
 Alpha  occ. eigenvalues --   -0.39960  -0.39684  -0.38935  -0.38905  -0.38471
 Alpha  occ. eigenvalues --   -0.38184  -0.38029  -0.37967  -0.37798  -0.37764
 Alpha  occ. eigenvalues --   -0.36892  -0.36485  -0.36454  -0.36369  -0.36316
 Alpha  occ. eigenvalues --   -0.35852  -0.35585  -0.34371  -0.34287  -0.34094
 Alpha  occ. eigenvalues --   -0.33169  -0.32863  -0.32625  -0.31582  -0.31465
 Alpha  occ. eigenvalues --   -0.31282  -0.30974  -0.30594  -0.30283  -0.30014
 Alpha  occ. eigenvalues --   -0.29991  -0.29875  -0.29299  -0.23810  -0.23621
 Alpha  occ. eigenvalues --   -0.21091  -0.20943
 Alpha virt. eigenvalues --   -0.08676  -0.08670  -0.01470  -0.01289   0.00177
 Alpha virt. eigenvalues --    0.00705   0.01817   0.02381   0.02503   0.03587
 Alpha virt. eigenvalues --    0.05066   0.05129   0.05197   0.05661   0.05793

 Mulliken charges:
               1
     1  Mg  11.999571
     2  C    6.029256
     3  C    5.987343
     4  C    5.970290
     5  C    6.011579
     6  N    7.014890
     7  C    5.961792
     8  C    6.005824
     9  C    5.987238
    10  C    6.032705
    11  C    5.997759
    12  C    6.004704
    13  C    6.000019
    14  H    0.992772
    15  N    6.990627
    16  C    6.045780
    17  C    6.017425
    18  C    6.019873
    19  C    6.036329
    20  C    5.996009
    21  C    6.014138
    22  O    8.030913
    23  C    5.991500
    24  N    6.992715
    25  C    6.037839
    26  C    5.991310
    27  C    6.012546
    28  C    5.970353
    29  C    5.997304
    30  C    6.004863
    31  C    6.001995
    32  N    7.004343
    33  C    5.958597
    34  C    5.970379
    35  C    5.997624
    36  C    5.959397
    37  C    6.004809
    38  C    5.981965
    39  O    7.972006
    40  C    5.998914
    41  C    5.996552
    42  O    7.992248
    43  O    7.999448
    44  C    6.001711
    45  H    1.013451
    46  H    1.001372
    47  H    0.988131
    48  H    1.002754
    49  H    1.007335
    50  H    0.998834
    51  H    0.999307
    52  H    1.014132
    53  H    0.989692
    54  H    1.008149
    55  H    0.996518
    56  H    1.004516
    57  H    1.018018
    58  H    1.018835
    59  H    1.018412
    60  H    1.007688
    61  H    1.007930
    62  H    1.016030
    63  H    0.998833
    64  H    0.995898
    65  H    1.009625
    66  H    1.000365
    67  H    0.994870
    68  H    1.005137
    69  H    0.989670
    70  H    0.994069
    71  H    0.994057
    72  H    1.001425
    73  H    0.980276
    74  H    0.979981
    75  H    0.977563
    76  H    0.992492
    77  H    0.999361
    78  H    0.992862
    79  H    0.997157
    80  Mg  12.000016
    81  C    5.999859
    82  C    6.000136
    83  C    6.000136
    84  C    5.999962
    85  N    6.999986
    86  C    6.000170
    87  C    5.999925
    88  C    6.000030
    89  C    5.999834
    90  C    6.000020
    91  C    5.999963
    92  C    5.999971
    93  H    1.000087
    94  N    7.000003
    95  C    5.999738
    96  C    5.999800
    97  C    5.999963
    98  C    5.999766
    99  C    6.000097
   100  C    5.999898
   101  O    7.999839
   102  C    6.000048
   103  N    7.000040
   104  C    5.999782
   105  C    6.000092
   106  C    5.999915
   107  C    6.000199
   108  C    6.000007
   109  C    5.999976
   110  C    5.999981
   111  N    7.000019
   112  C    6.000181
   113  C    6.000179
   114  C    6.000020
   115  C    6.000202
   116  C    5.999956
   117  C    6.000125
   118  O    8.000188
   119  C    6.000009
   120  C    6.000009
   121  O    8.000039
   122  O    7.999998
   123  C    5.999981
   124  H    0.999918
   125  H    0.999927
   126  H    1.000102
   127  H    1.000023
   128  H    1.000008
   129  H    1.000008
   130  H    0.999993
   131  H    0.999914
   132  H    1.000072
   133  H    1.000028
   134  H    0.999980
   135  H    0.999983
   136  H    0.999865
   137  H    0.999859
   138  H    0.999808
   139  H    0.999961
   140  H    0.999875
   141  H    0.999959
   142  H    1.000006
   143  H    0.999991
   144  H    0.999984
   145  H    0.999993
   146  H    0.999921
   147  H    1.000071
   148  H    0.999984
   149  H    1.000004
   150  H    1.000076
   151  H    1.000007
   152  H    1.000121
   153  H    1.000146
   154  H    1.000117
   155  H    1.000079
   156  H    1.000032
   157  H    1.000004
   158  H    1.000034
 Sum of Mulliken charges = 624.00000

 Dipole moment (field-independent basis, Debye):
    X=              2.4351    Y=             -5.6012    Z=             -9.2434  Tot=             11.0790
 Quadrupole moment (field-independent basis, Debye-Ang):
   XX=            120.4499   YY=              5.0399   ZZ=              1.1071
   XY=           -137.0109   XZ=           -225.1141   YZ=              7.3594

 Normal termination of Gaussian 16 at Wed Sep 22 20:30:22 2021.
