 Gaussian 16, Revision A.03,
 Gaussian 16:  ES64L-G16RevA.03 25-Dec-2016

 -----------------------------------------------------------
 #p cam-b3lyp/Def2SVP td=(nstates=5, root=1) density=current
 -----------------------------------------------------------

 --------------------------------
 TDDFT excited states in gaussian
 --------------------------------
 Symbolic Z-matrix:
 Charge =  0 Multiplicity = 1

                         Standard orientation:
 ---------------------------------------------------------------------
 Center     Atomic      Atomic             Coordinates (Angstroms)
 Number     Number       Type             X           Y           Z
 ---------------------------------------------------------------------
      1         12           0       -0.700716    0.024386   -0.461074
      2          6           0        2.808914   -0.123085   -0.356417
      3          6           0       -0.777813   -3.407703   -0.268796
      4          6           0       -3.931510    0.297229    0.197008
      5          6           0       -0.483058    3.569206   -0.392384
      6          7           0        0.818711   -1.531924   -0.075143
      7          6           0        2.229035   -1.376785   -0.070517
      8          6           0        2.945541   -2.653914   -0.230470
      9          6           0        1.752420   -3.701938   -0.300570
     10          6           0        0.503247   -2.836553   -0.248060
     11          6           0        1.884850   -4.674001   -1.497889
     12          6           0        3.809095   -3.037569    0.932289
     13          6           0        3.276416   -2.695260    2.331660
     14          1           0        3.536082   -3.644657    3.565519
     15          7           0       -2.209145   -1.361889   -0.114232
     16          6           0       -2.037040   -2.694494   -0.204814
     17          6           0       -3.327787   -3.328111   -0.102514
     18          6           0       -4.279991   -2.280975   -0.040363
     19          6           0       -3.507510   -1.028557   -0.012620
     20          6           0       -3.581627   -4.810359   -0.041106
     21          6           0       -5.797643   -2.457487   -0.000569
     22          8           0       -6.300650   -3.564000   -0.009443
     23          6           0       -6.835822   -1.387605    0.165763
     24          7           0       -1.975248    1.665937    0.109825
     25          6           0       -3.325768    1.522206    0.285308
     26          6           0       -4.055131    2.905824    0.274121
     27          6           0       -2.862722    3.902552    0.393822
     28          6           0       -1.706229    3.010727   -0.001622
     29          6           0       -4.895379    3.205203   -0.990818
     30          6           0       -2.503217    4.394896    1.874620
     31          6           0       -2.273647    5.851088    2.060222
     32          7           0        0.750702    1.432610   -0.491612
     33          6           0        0.668286    2.760622   -0.649122
     34          6           0        1.992788    3.309382   -1.128114
     35          6           0        2.833033    2.152573   -1.063120
     36          6           0        2.066267    1.076879   -0.532434
     37          6           0        2.390664    4.721528   -1.532843
     38          6           0        4.204183    1.743528   -1.164810
     39          8           0        5.206581    2.383858   -1.439983
     40          6           0        4.227692    0.221838   -0.732847
     41          6           0        5.011573    0.143202    0.560777
     42          8           0        4.699337    0.564889    1.625051
     43          8           0        6.136679   -0.618872    0.328172
     44          6           0        6.839990   -1.019800    1.550847
     45          1           0       -0.793033   -4.490594   -0.407327
     46          1           0       -5.016109    0.410937    0.236982
     47          1           0       -0.509648    4.654945   -0.505934
     48          1           0        3.560840   -2.576397   -1.126844
     49          1           0        1.584285   -4.296442    0.597368
     50          1           0        1.712792   -5.626563   -0.996453
     51          1           0        2.893472   -4.554290   -1.893593
     52          1           0        1.102779   -4.539561   -2.245411
     53          1           0        4.857533   -2.762530    0.814232
     54          1           0        3.984641   -4.108536    1.036197
     55          1           0        2.203802   -2.555107    2.193435
     56          1           0        3.696823   -1.702917    2.495747
     57          1           0       -4.288185   -5.054059    0.752989
     58          1           0       -2.635623   -5.343979    0.049886
     59          1           0       -4.033882   -5.039418   -1.006337
     60          1           0       -6.830671   -0.874827    1.127064
     61          1           0       -7.745959   -1.986544    0.201083
     62          1           0       -6.967270   -0.774127   -0.726206
     63          1           0       -4.726427    2.932387    1.132370
     64          1           0       -2.940163    4.754273   -0.282449
     65          1           0       -4.415370    4.014088   -1.541339
     66          1           0       -5.958929    3.275397   -0.763293
     67          1           0       -4.849522    2.337649   -1.648136
     68          1           0       -1.652591    3.843549    2.274648
     69          1           0       -3.371256    4.096605    2.462773
     70          1           0       -2.919474    6.291128    2.819790
     71          1           0       -2.370462    6.428086    1.140258
     72          1           0       -1.266568    6.058627    2.420900
     73          1           0        3.204986    5.012694   -0.869345
     74          1           0        1.483418    5.326234   -1.562105
     75          1           0        2.846348    4.622410   -2.517964
     76          1           0        4.653534   -0.420593   -1.503265
     77          1           0        6.176178   -1.128368    2.408447
     78          1           0        7.543759   -0.203831    1.715472
     79          1           0        7.455153   -1.874171    1.269793
 ---------------------------------------------------------------------

 SCF Done:  E(RCAM-B3LYP) =  -2034.89527476     A.U. after   19 cycles

 Excitation energies and oscillator strengths:

 Excited State   1:      Singlet-A      1.6651 eV  744.61 nm  f=0.3744  <S**2>=0.000
     155 ->158         0.17258
     156 ->157         0.68782
     155 <-158         0.10781
 This state for optimization and/or second-order correction.
 Total Energy, E(TD-HF/TD-DFT) =  -2034.83408391
 Copying the excited state density for this state as the 1-particle RhoCI density.

 Excited State   2:      Singlet-A      2.2662 eV  547.11 nm  f=0.1012  <S**2>=0.000
     155 ->157         0.62926
     156 ->158        -0.31009

 Excited State   3:      Singlet-A      3.3841 eV  366.37 nm  f=0.0023  <S**2>=0.000
     150 ->157        -0.10175
     153 ->157        -0.23393
     154 ->157         0.64107

 Excited State   4:      Singlet-A      3.4333 eV  361.12 nm  f=0.0562  <S**2>=0.000
     153 ->157         0.57754
     154 ->157         0.20743
     156 ->158         0.29540

 Excited State   5:      Singlet-A      3.5386 eV  350.38 nm  f=0.6248  <S**2>=0.000
     151 ->157         0.16152
     151 ->159        -0.11098
     153 ->157        -0.25592
     155 ->157         0.28732
     156 ->158         0.53090
     156 ->159         0.11547

 The electronic state is 1-A.
 Alpha  occ. eigenvalues --  -46.88586 -19.24610 -19.20433 -19.19129 -19.18254
 Alpha  occ. eigenvalues --  -14.42380 -14.41890 -14.39600 -14.39538 -10.39250
 Alpha  occ. eigenvalues --  -10.34998 -10.34610 -10.31442 -10.31215 -10.30951
 Alpha  occ. eigenvalues --  -10.30822 -10.30662 -10.30587 -10.30473 -10.29954
 Alpha  occ. eigenvalues --  -10.29322 -10.28720 -10.28521 -10.28511 -10.28339
 Alpha  occ. eigenvalues --  -10.28294 -10.28130 -10.28052 -10.27826 -10.27749
 Alpha  occ. eigenvalues --  -10.27440 -10.27046 -10.26756 -10.26626 -10.26567
 Alpha  occ. eigenvalues --  -10.26513 -10.26493 -10.26395 -10.26008 -10.25518
 Alpha  occ. eigenvalues --  -10.25494 -10.25374 -10.25134  -3.17231  -1.92092
 Alpha  occ. eigenvalues --   -1.91691  -1.91549  -1.17271  -1.10414  -1.09956
 Alpha  occ. eigenvalues --   -1.08967  -1.04588  -1.03999  -1.03343  -1.02633
 Alpha  occ. eigenvalues --   -0.93189  -0.89874  -0.89436  -0.88392  -0.87531
 Alpha  occ. eigenvalues --   -0.86340  -0.85811  -0.84750  -0.84174  -0.82719
 Alpha  occ. eigenvalues --   -0.81697  -0.80881  -0.80520  -0.77953  -0.77513
 Alpha  occ. eigenvalues --   -0.76854  -0.76052  -0.75141  -0.72709  -0.71697
 Alpha  occ. eigenvalues --   -0.69636  -0.68816  -0.68690  -0.67092  -0.65872
 Alpha  occ. eigenvalues --   -0.65086  -0.64545  -0.64385  -0.62107  -0.60012
 Alpha  occ. eigenvalues --   -0.59421  -0.59072  -0.58947  -0.58143  -0.57387
 Alpha  occ. eigenvalues --   -0.56567  -0.56110  -0.55425  -0.55106  -0.54610
 Alpha  occ. eigenvalues --   -0.54079  -0.53048  -0.52859  -0.52379  -0.52290
 Alpha  occ. eigenvalues --   -0.52131  -0.51624  -0.51429  -0.51166  -0.50935
 Alpha  occ. eigenvalues --   -0.50139  -0.49611  -0.49411  -0.49258  -0.48944
 Alpha  occ. eigenvalues --   -0.48774  -0.48605  -0.48371  -0.47561  -0.47203
 Alpha  occ. eigenvalues --   -0.47112  -0.46910  -0.46787  -0.46383  -0.46010
 Alpha  occ. eigenvalues --   -0.45887  -0.45509  -0.45234  -0.44681  -0.44378
 Alpha  occ. eigenvalues --   -0.44054  -0.43909  -0.43606  -0.43237  -0.42811
 Alpha  occ. eigenvalues --   -0.42528  -0.42387  -0.42204  -0.42133  -0.41907
 Alpha  occ. eigenvalues --   -0.41124  -0.40778  -0.40406  -0.39829  -0.39160
 Alpha  occ. eigenvalues --   -0.38461  -0.37885  -0.37338  -0.37043  -0.36448
 Alpha  occ. eigenvalues --   -0.35770  -0.35110  -0.34235  -0.33030  -0.31384
 Alpha  occ. eigenvalues --   -0.31107  -0.30542  -0.29909  -0.29659  -0.24315
 Alpha  occ. eigenvalues --   -0.21053
 Alpha virt. eigenvalues --   -0.08785  -0.01794   0.00212   0.01375   0.02518
 Alpha virt. eigenvalues --    0.05046   0.05424   0.05885   0.07546   0.08149
 Alpha virt. eigenvalues --    0.08560   0.08947   0.09454   0.09741   0.10396

 Mulliken charges:
               1
     1  Mg   0.820139
     2  C   -0.074532
     3  C   -0.088607
     4  C   -0.059361
     5  C   -0.094540
     6  N   -0.310558
     7  C   -0.010466
     8  C    0.014222
     9  C   -0.086749
    10  C    0.047200
    11  C    0.085582
    12  C    0.007848
    13  C   -0.057517
    14  H    0.027473
    15  N   -0.352796
    16  C    0.140835
    17  C   -0.185704
    18  C   -0.001173
    19  C    0.144103
    20  C    0.160711
    21  C   -0.034949
    22  O   -0.210886
    23  C    0.059083
    24  N   -0.302982
    25  C    0.029306
    26  C   -0.030269
    27  C   -0.065183
    28  C    0.031189
    29  C    0.090970
    30  C    0.056872
    31  C    0.010094
    32  N   -0.345388
    33  C    0.142668
    34  C   -0.194128
    35  C   -0.002415
    36  C    0.140878
    37  C    0.146247
    38  C    0.046381
    39  O   -0.173123
    40  C    0.008127
    41  C    0.186932
    42  O   -0.182149
    43  O   -0.345936
    44  C    0.175562
    45  H   -0.028914
    46  H   -0.057976
    47  H   -0.026958
    48  H    0.020187
    49  H    0.032165
    50  H    0.017500
    51  H    0.024135
    52  H    0.026363
    53  H   -0.004964
    54  H    0.000343
    55  H    0.031994
    56  H    0.039003
    57  H    0.041198
    58  H   -0.002588
    59  H    0.031116
    60  H    0.042335
    61  H    0.017047
    62  H    0.030011
    63  H    0.009387
    64  H    0.010134
    65  H    0.018774
    66  H    0.024896
    67  H    0.008496
    68  H    0.035588
    69  H    0.001269
    70  H    0.016949
    71  H    0.006008
    72  H    0.014728
    73  H    0.046834
    74  H    0.016345
    75  H    0.034929
    76  H    0.032943
    77  H    0.055872
    78  H    0.035650
    79  H    0.036192
 Sum of Mulliken charges =  -0.00000

 Dipole moment (field-independent basis, Debye):
    X=             -1.2736    Y=              0.8356    Z=             -1.1310  Tot=              1.8972
 Quadrupole moment (field-independent basis, Debye-Ang):
   XX=           -273.3293   YY=           -244.1984   ZZ=           -257.7224
   XY=            -48.9034   XZ=              4.8480   YZ=              2.5446

 Normal termination of Gaussian 16 at Tue Oct 12 13:06:37 2021.
