 Gaussian 16, Revision A.03,
 Gaussian 16:  ES64L-G16RevA.03 25-Dec-2016

 -----------------------------------
 #p cam-b3lyp/Def2SVP td=(nstates=5)
 -----------------------------------

 --------------------------------
 TDDFT excited states in gaussian
 --------------------------------
 Symbolic Z-matrix:
 Charge =  0 Multiplicity = 1

                         Standard orientation:
 ---------------------------------------------------------------------
 Center     Atomic      Atomic             Coordinates (Angstroms)
 Number     Number       Type             X           Y           Z
 ---------------------------------------------------------------------
      1         12           0      -11.786728    0.783841   -0.119858
      2          6           0      -10.016851   -2.024416   -1.144731
      3          6           0      -12.984440   -1.240968    2.577767
      4          6           0      -13.117278    3.462066    1.244705
      5          6           0       -9.924612    2.699150   -2.404993
      6          7           0      -11.420288   -1.337906    0.673377
      7          6           0      -10.712983   -2.301581   -0.009870
      8          6           0      -10.739143   -3.622257    0.764338
      9          6           0      -11.906540   -3.380784    1.760884
     10          6           0      -12.109888   -1.889112    1.717654
     11          6           0      -13.278228   -4.121755    1.509470
     12          6           0       -9.402757   -3.944466    1.453007
     13          6           0       -9.308760   -5.285183    2.074934
     14          1           0       -7.863038   -5.867072    2.312401
     15          7           0      -12.905399    1.099843    1.691715
     16          6           0      -13.311345    0.145842    2.637859
     17          6           0      -14.076583    0.820228    3.649153
     18          6           0      -14.012526    2.231070    3.349926
     19          6           0      -13.331216    2.311954    2.011774
     20          6           0      -14.664013    0.092689    4.889923
     21          6           0      -14.635406    3.298297    4.255487
     22          8           0      -15.346570    3.005581    5.202363
     23          6           0      -14.372825    4.726994    3.966757
     24          7           0      -11.708870    2.769844   -0.683407
     25          6           0      -12.389111    3.673643    0.029962
     26          6           0      -12.039255    5.129859   -0.480711
     27          6           0      -10.968681    4.941363   -1.623315
     28          6           0      -10.798000    3.326747   -1.546997
     29          6           0      -13.221299    6.060268   -0.859874
     30          6           0       -9.660369    5.673702   -1.255892
     31          6           0       -8.836359    6.176264   -2.447585
     32          7           0      -10.261674    0.483660   -1.531823
     33          6           0       -9.697072    1.307830   -2.464613
     34          6           0       -8.862908    0.494836   -3.357745
     35          6           0       -9.040516   -0.794074   -2.931665
     36          6           0       -9.824864   -0.771056   -1.800774
     37          6           0       -8.099796    0.999071   -4.586876
     38          6           0       -8.641502   -2.149388   -3.165211
     39          8           0       -7.951066   -2.654668   -4.015723
     40          6           0       -9.272975   -3.009005   -2.019635
     41          6           0      -10.239260   -3.951853   -2.647151
     42          8           0      -11.102810   -3.687344   -3.436940
     43          8           0      -10.076962   -5.216490   -2.055305
     44          6           0      -10.993942   -6.229479   -2.494557
     45          1           0      -13.369499   -1.959835    3.303362
     46          1           0      -13.510486    4.428932    1.567087
     47          1           0       -9.382247    3.253188   -3.174140
     48          1           0      -11.061108   -4.378045    0.049223
     49          1           0      -11.684403   -3.572663    2.810034
     50          1           0      -13.499094   -4.594463    2.466242
     51          1           0      -13.410840   -4.640251    0.559524
     52          1           0      -14.034525   -3.341689    1.423467
     53          1           0       -9.151252   -3.318611    2.309680
     54          1           0       -8.583097   -3.818901    0.745467
     55          1           0       -9.874459   -5.964221    1.436975
     56          1           0       -9.845570   -5.270999    3.023317
     57          1           0      -13.936486    0.459492    5.614683
     58          1           0      -14.532330   -0.989191    4.916504
     59          1           0      -15.679933    0.247620    5.253715
     60          1           0      -13.291148    4.786664    3.846341
     61          1           0      -14.639831    5.310006    4.848327
     62          1           0      -14.939323    4.907428    3.052848
     63          1           0      -11.573527    5.628824    0.369601
     64          1           0      -11.301256    5.222724   -2.621975
     65          1           0      -13.323590    6.810335   -0.074987
     66          1           0      -14.103484    5.445356   -1.034901
     67          1           0      -12.962780    6.640328   -1.745739
     68          1           0       -9.093638    4.950964   -0.669444
     69          1           0       -9.793333    6.496492   -0.553155
     70          1           0       -8.754325    7.245800   -2.251012
     71          1           0       -9.255211    5.933101   -3.424156
     72          1           0       -7.824672    5.772696   -2.404325
     73          1           0       -7.082476    0.629292   -4.710684
     74          1           0       -8.137194    2.079144   -4.442981
     75          1           0       -8.771704    0.857949   -5.433618
     76          1           0       -8.447014   -3.541156   -1.547567
     77          1           0      -10.412366   -6.929827   -3.094113
     78          1           0      -11.882012   -5.940883   -3.057338
     79          1           0      -11.380559   -6.722844   -1.603217
     80         12           0       11.747858    0.351476    0.323463
     81          6           0        8.899681   -1.619002   -0.323070
     82          6           0       11.661364    1.450467   -2.888302
     83          6           0       14.550660    2.132319    0.965991
     84          6           0       12.011517   -1.166405    3.435546
     85          7           0       10.516618   -0.102972   -1.409122
     86          6           0        9.335859   -0.850591   -1.415445
     87          6           0        8.645363   -0.678222   -2.734944
     88          6           0        9.776482   -0.123395   -3.633001
     89          6           0       10.732893    0.458523   -2.560324
     90          6           0       10.550556   -1.140752   -4.529430
     91          6           0        7.362358    0.235432   -2.725473
     92          6           0        6.182964   -0.346099   -3.437973
     93          1           0        5.410469    0.600340   -4.375785
     94          7           0       12.836380    1.660458   -0.762095
     95          6           0       12.596251    2.077394   -2.081963
     96          6           0       13.536634    3.056431   -2.457622
     97          6           0       14.434748    3.303646   -1.315430
     98          6           0       13.961871    2.381983   -0.322218
     99          6           0       13.695745    3.638996   -3.831531
    100          6           0       15.710879    4.234483   -1.131252
    101          8           0       16.289991    4.290869   -0.072409
    102          6           0       16.176318    5.156416   -2.249275
    103          7           0       13.151555    0.379127    1.934155
    104          6           0       14.233639    1.199851    1.931543
    105          6           0       15.093173    0.985206    3.267765
    106          6           0       14.107525    0.144954    4.192204
    107          6           0       13.001305   -0.258227    3.126687
    108          6           0       16.467419    0.280603    3.097176
    109          6           0       13.515503    0.949883    5.403504
    110          6           0       13.734862    0.244029    6.675253
    111          7           0       10.722814   -1.126433    1.347016
    112          6           0       10.882228   -1.565484    2.660484
    113          6           0        9.852015   -2.513568    2.986762
    114          6           0        9.078834   -2.582807    1.845811
    115          6           0        9.594725   -1.740289    0.912222
    116          6           0        9.720695   -3.151471    4.394380
    117          6           0        7.929336   -3.227985    1.238417
    118          8           0        7.262229   -4.135971    1.683169
    119          6           0        7.776901   -2.626662   -0.246047
    120          6           0        7.877563   -3.728321   -1.220767
    121          8           0        8.865636   -4.501827   -1.323237
    122          8           0        6.718312   -3.774580   -1.938275
    123          6           0        6.509470   -5.044254   -2.683479
    124          1           0       11.595608    1.725844   -3.942922
    125          1           0       15.465472    2.656391    1.249869
    126          1           0       12.149130   -1.684851    4.386190
    127          1           0        8.376118   -1.616804   -3.220884
    128          1           0        9.441502    0.644983   -4.329981
    129          1           0        9.935570   -1.962883   -4.897812
    130          1           0       11.386463   -1.512158   -3.936061
    131          1           0       11.079119   -0.714617   -5.381767
    132          1           0        7.688335    1.181143   -3.158032
    133          1           0        7.071240    0.507518   -1.710498
    134          1           0        5.581113   -0.688584   -2.596053
    135          1           0        6.514592   -1.145083   -4.100981
    136          1           0       13.358892    4.669080   -3.950026
    137          1           0       13.056965    3.094165   -4.525503
    138          1           0       14.686176    3.630847   -4.285802
    139          1           0       16.961549    5.771914   -1.812039
    140          1           0       15.340970    5.686878   -2.707271
    141          1           0       16.458868    4.564228   -3.120158
    142          1           0       15.383870    1.951442    3.680376
    143          1           0       14.638819   -0.742199    4.540066
    144          1           0       16.707016   -0.081674    2.096911
    145          1           0       16.584669   -0.590114    3.742797
    146          1           0       17.227165    1.006214    3.388866
    147          1           0       12.435033    1.024003    5.274735
    148          1           0       13.945207    1.941583    5.543373
    149          1           0       14.594724    0.690754    7.175121
    150          1           0       13.827283   -0.841462    6.670875
    151          1           0       12.846542    0.342186    7.299332
    152          1           0       10.303025   -2.563269    5.104013
    153          1           0        9.932690   -4.221373    4.370587
    154          1           0        8.674038   -3.000090    4.655734
    155          1           0        6.827877   -2.105123   -0.372907
    156          1           0        5.511038   -5.066364   -3.119910
    157          1           0        6.490248   -5.818526   -1.916207
    158          1           0        7.342610   -5.139197   -3.380434
 ---------------------------------------------------------------------

 SCF Done:  E(RCAM-B3LYP) =  -4069.83668458     A.U. after   18 cycles

 Excitation energies and oscillator strengths:

 Excited State   1:      Singlet-A      1.7436 eV  711.10 nm  f=0.4044  <S**2>=0.000
     310 -> 316        0.17830
     312 -> 314        0.68443
     310 <- 316        0.10691
 This state for optimization and/or second-order correction.
 Total Energy, E(TD-HF/TD-DFT) =  -4069.77261016
 Copying the excited state density for this state as the 1-particle RhoCI density.

 Excited State   2:      Singlet-A      1.7656 eV  702.21 nm  f=0.3832  <S**2>=0.000
     309 -> 315       -0.17228
     311 -> 313        0.68728
     309 <- 315       -0.10338

 Excited State   3:      Singlet-A      2.2017 eV  563.13 nm  f=0.1600  <S**2>=0.000
     310 -> 314        0.65403
     312 -> 316       -0.24968

 Excited State   4:      Singlet-A      2.2943 eV  540.41 nm  f=0.1171  <S**2>=0.000
     309 -> 313        0.63736
     311 -> 315        0.29062

 Excited State   5:      Singlet-A      2.9936 eV  414.17 nm  f=0.0000  <S**2>=0.000
     312 -> 313        0.70706

 The electronic state is 1-A.
 Alpha  occ. eigenvalues --  -46.89656 -46.87144 -19.25585 -19.24935 -19.20490
 Alpha  occ. eigenvalues --  -19.19859 -19.19450 -19.18990 -19.18686 -19.18524
 Alpha  occ. eigenvalues --  -14.42654 -14.42338 -14.42023 -14.41468 -14.40221
 Alpha  occ. eigenvalues --  -14.39254 -14.39091 -14.38517 -10.39499 -10.39365
 Alpha  occ. eigenvalues --  -10.36314 -10.34991 -10.34855 -10.34150 -10.32359
 Alpha  occ. eigenvalues --  -10.32089 -10.31590 -10.31214 -10.31172 -10.31112
 Alpha  occ. eigenvalues --  -10.31075 -10.31007 -10.30595 -10.30586 -10.30578
 Alpha  occ. eigenvalues --  -10.30553 -10.30405 -10.29882 -10.29538 -10.29229
 Alpha  occ. eigenvalues --  -10.29063 -10.28906 -10.28589 -10.28551 -10.28342
 Alpha  occ. eigenvalues --  -10.28234 -10.28231 -10.28189 -10.28154 -10.28082
 Alpha  occ. eigenvalues --  -10.28019 -10.27896 -10.27862 -10.27830 -10.27781
 Alpha  occ. eigenvalues --  -10.27741 -10.27735 -10.27714 -10.27706 -10.27615
 Alpha  occ. eigenvalues --  -10.27586 -10.27521 -10.27409 -10.27374 -10.27188
 Alpha  occ. eigenvalues --  -10.26919 -10.26913 -10.26786 -10.26703 -10.26540
 Alpha  occ. eigenvalues --  -10.26490 -10.26442 -10.26377 -10.26318 -10.26248
 Alpha  occ. eigenvalues --  -10.26089 -10.26073 -10.26067 -10.26035 -10.25758
 Alpha  occ. eigenvalues --  -10.25691 -10.25639 -10.25312 -10.24638 -10.24316
 Alpha  occ. eigenvalues --  -10.23980  -3.18077  -3.15873  -1.92984  -1.92535
 Alpha  occ. eigenvalues --   -1.92365  -1.90777  -1.90317  -1.90197  -1.16611
 Alpha  occ. eigenvalues --   -1.15686  -1.11681  -1.10334  -1.10276  -1.10113
 Alpha  occ. eigenvalues --   -1.08821  -1.06269  -1.04901  -1.04589  -1.03785
 Alpha  occ. eigenvalues --   -1.03716  -1.03306  -1.02819  -1.02520  -1.01392
 Alpha  occ. eigenvalues --   -0.93259  -0.92536  -0.89396  -0.89231  -0.89154
 Alpha  occ. eigenvalues --   -0.88839  -0.88633  -0.88089  -0.87998  -0.86992
 Alpha  occ. eigenvalues --   -0.86456  -0.86382  -0.85945  -0.85791  -0.85205
 Alpha  occ. eigenvalues --   -0.84263  -0.84050  -0.83797  -0.83151  -0.82859
 Alpha  occ. eigenvalues --   -0.82585  -0.82081  -0.81296  -0.81151  -0.80846
 Alpha  occ. eigenvalues --   -0.80619  -0.78202  -0.77756  -0.77349  -0.77271
 Alpha  occ. eigenvalues --   -0.77104  -0.76733  -0.76201  -0.75692  -0.75524
 Alpha  occ. eigenvalues --   -0.74848  -0.73245  -0.72845  -0.72041  -0.70890
 Alpha  occ. eigenvalues --   -0.69327  -0.69076  -0.68566  -0.68090  -0.67780
 Alpha  occ. eigenvalues --   -0.67537  -0.66754  -0.66504  -0.66100  -0.65572
 Alpha  occ. eigenvalues --   -0.65471  -0.65149  -0.64973  -0.64610  -0.64533
 Alpha  occ. eigenvalues --   -0.63998  -0.62691  -0.61888  -0.60282  -0.60236
 Alpha  occ. eigenvalues --   -0.60080  -0.59893  -0.59306  -0.59210  -0.58848
 Alpha  occ. eigenvalues --   -0.58455  -0.58163  -0.57646  -0.57581  -0.57571
 Alpha  occ. eigenvalues --   -0.56502  -0.56129  -0.55895  -0.55634  -0.55471
 Alpha  occ. eigenvalues --   -0.55447  -0.54932  -0.54927  -0.54377  -0.54025
 Alpha  occ. eigenvalues --   -0.53817  -0.53565  -0.53522  -0.53383  -0.53313
 Alpha  occ. eigenvalues --   -0.53142  -0.52640  -0.52573  -0.52535  -0.51902
 Alpha  occ. eigenvalues --   -0.51857  -0.51779  -0.51727  -0.51652  -0.51524
 Alpha  occ. eigenvalues --   -0.50989  -0.50851  -0.50840  -0.50733  -0.50432
 Alpha  occ. eigenvalues --   -0.50367  -0.50279  -0.50066  -0.49875  -0.49767
 Alpha  occ. eigenvalues --   -0.49408  -0.49378  -0.49315  -0.49077  -0.49048
 Alpha  occ. eigenvalues --   -0.48856  -0.48666  -0.48287  -0.48100  -0.47903
 Alpha  occ. eigenvalues --   -0.47642  -0.47539  -0.47375  -0.47219  -0.47157
 Alpha  occ. eigenvalues --   -0.47099  -0.46752  -0.46609  -0.46463  -0.46415
 Alpha  occ. eigenvalues --   -0.46397  -0.46135  -0.46109  -0.45807  -0.45803
 Alpha  occ. eigenvalues --   -0.45719  -0.45369  -0.45325  -0.45134  -0.45043
 Alpha  occ. eigenvalues --   -0.44699  -0.44664  -0.44635  -0.44421  -0.44294
 Alpha  occ. eigenvalues --   -0.44161  -0.43908  -0.43691  -0.43359  -0.43327
 Alpha  occ. eigenvalues --   -0.43312  -0.43237  -0.42954  -0.42877  -0.42817
 Alpha  occ. eigenvalues --   -0.42709  -0.42578  -0.42377  -0.42290  -0.42248
 Alpha  occ. eigenvalues --   -0.42029  -0.41895  -0.41856  -0.41830  -0.41540
 Alpha  occ. eigenvalues --   -0.41185  -0.40907  -0.40612  -0.40456  -0.40253
 Alpha  occ. eigenvalues --   -0.40024  -0.39892  -0.39719  -0.39117  -0.38818
 Alpha  occ. eigenvalues --   -0.38795  -0.38320  -0.38040  -0.37801  -0.37788
 Alpha  occ. eigenvalues --   -0.37670  -0.36881  -0.36694  -0.36512  -0.36280
 Alpha  occ. eigenvalues --   -0.36085  -0.35948  -0.35242  -0.34244  -0.34209
 Alpha  occ. eigenvalues --   -0.34080  -0.33720  -0.33117  -0.31759  -0.31735
 Alpha  occ. eigenvalues --   -0.31233  -0.31031  -0.30810  -0.30653  -0.30121
 Alpha  occ. eigenvalues --   -0.29949  -0.29944  -0.29527  -0.24664  -0.23932
 Alpha  occ. eigenvalues --   -0.21659  -0.21492
 Alpha virt. eigenvalues --   -0.09028  -0.08976  -0.01936  -0.01232   0.00776
 Alpha virt. eigenvalues --    0.00923   0.02034   0.02733   0.02832   0.03482
 Alpha virt. eigenvalues --    0.04444   0.04570   0.05407   0.05481   0.05836

 Mulliken charges:
               1
     1  Mg   0.819421
     2  C    0.006900
     3  C   -0.062961
     4  C   -0.089753
     5  C   -0.063174
     6  N   -0.264005
     7  C   -0.106160
     8  C    0.076789
     9  C   -0.101738
    10  C    0.006216
    11  C    0.083469
    12  C    0.079375
    13  C   -0.054299
    14  H    0.025678
    15  N   -0.352390
    16  C    0.164045
    17  C   -0.119899
    18  C   -0.079729
    19  C    0.210377
    20  C    0.108887
    21  C   -0.024715
    22  O   -0.198815
    23  C    0.067336
    24  N   -0.318228
    25  C    0.038809
    26  C   -0.072152
    27  C   -0.046025
    28  C    0.073432
    29  C    0.071539
    30  C    0.009616
    31  C    0.015639
    32  N   -0.337699
    33  C    0.071534
    34  C   -0.219949
    35  C    0.070787
    36  C    0.099087
    37  C    0.148627
    38  C    0.009768
    39  O   -0.147785
    40  C   -0.000578
    41  C    0.189415
    42  O   -0.181813
    43  O   -0.348261
    44  C    0.164115
    45  H   -0.030928
    46  H   -0.042684
    47  H   -0.031502
    48  H   -0.002987
    49  H    0.005926
    50  H    0.021205
    51  H    0.026153
    52  H    0.008077
    53  H    0.004521
    54  H    0.011818
    55  H    0.014217
    56  H    0.018009
    57  H    0.035881
    58  H   -0.003269
    59  H    0.050470
    60  H    0.031127
    61  H    0.030866
    62  H    0.058505
    63  H    0.015114
    64  H    0.017436
    65  H    0.014313
    66  H    0.028269
    67  H    0.012790
    68  H    0.009010
    69  H    0.006482
    70  H    0.015299
    71  H    0.022852
    72  H    0.016333
    73  H    0.047789
    74  H   -0.016119
    75  H    0.034928
    76  H    0.042297
    77  H    0.038390
    78  H    0.044842
    79  H    0.023837
    80  Mg   0.836359
    81  C   -0.017225
    82  C   -0.093345
    83  C   -0.052744
    84  C   -0.080234
    85  N   -0.248988
    86  C   -0.021720
    87  C   -0.040935
    88  C   -0.078633
    89  C    0.007119
    90  C    0.066215
    91  C    0.084196
    92  C   -0.064268
    93  H    0.014627
    94  N   -0.438697
    95  C    0.227506
    96  C   -0.127644
    97  C   -0.044755
    98  C    0.133330
    99  C    0.086874
   100  C    0.029662
   101  O   -0.182127
   102  C    0.052844
   103  N   -0.286404
   104  C    0.051502
   105  C   -0.061414
   106  C   -0.034525
   107  C    0.042344
   108  C    0.054117
   109  C    0.073777
   110  C   -0.018425
   111  N   -0.355010
   112  C    0.116767
   113  C   -0.202387
   114  C    0.059034
   115  C    0.084156
   116  C    0.134353
   117  C    0.027049
   118  O   -0.153311
   119  C    0.027231
   120  C    0.210808
   121  O   -0.254121
   122  O   -0.341418
   123  C    0.182352
   124  H   -0.036317
   125  H   -0.006459
   126  H   -0.029118
   127  H    0.005046
   128  H   -0.000592
   129  H    0.023180
   130  H    0.021791
   131  H    0.010848
   132  H    0.006514
   133  H    0.004854
   134  H    0.043192
   135  H    0.032482
   136  H    0.027864
   137  H   -0.000534
   138  H    0.023482
   139  H    0.045023
   140  H    0.025146
   141  H    0.027633
   142  H    0.011430
   143  H    0.015229
   144  H    0.022298
   145  H    0.008713
   146  H    0.015369
   147  H    0.011033
   148  H    0.012687
   149  H    0.016409
   150  H    0.008636
   151  H    0.004000
   152  H    0.010912
   153  H    0.043402
   154  H    0.026479
   155  H    0.026465
   156  H    0.042401
   157  H    0.046507
   158  H    0.050100
 Sum of Mulliken charges =  -0.00000

 Dipole moment (field-independent basis, Debye):
    X=             -0.8603    Y=              5.0993    Z=             -1.4809  Tot=              5.3793
 Quadrupole moment (field-independent basis, Debye-Ang):
   XX=           -500.2651   YY=           -491.9934   ZZ=           -506.6172
   XY=             24.5112   XZ=            -19.7778   YZ=            -26.3035

 Normal termination of Gaussian 16 at Thu Sep 16 10:53:15 2021.
