 Gaussian 16, Revision A.03,
 Gaussian 16:  ES64L-G16RevA.03 25-Dec-2016

 ----------------------------------------------------------
 #p cam-b3lyp/Def2SVP td=(nstates=5) density=(transition=1)
 ----------------------------------------------------------

 --------------------------------
 TDDFT excited states in gaussian
 --------------------------------
 Symbolic Z-matrix:
 Charge =  0 Multiplicity = 1

                         Standard orientation:
 ---------------------------------------------------------------------
 Center     Atomic      Atomic             Coordinates (Angstroms)
 Number     Number       Type             X           Y           Z
 ---------------------------------------------------------------------
      1         12           0       21.792221   -0.149691   -0.250007
      2          6           0       19.071666    1.551473    0.990351
      3          6           0       23.637378    0.545510    2.549903
      4          6           0       24.477754   -2.051702   -1.450705
      5          6           0       19.804599   -1.607003   -2.669058
      6          7           0       21.244257    0.765467    1.637718
      7          6           0       20.137819    1.574849    1.909353
      8          6           0       20.206685    2.161520    3.321567
      9          6           0       21.711445    1.935985    3.616270
     10          6           0       22.255252    0.934524    2.576811
     11          6           0       22.507241    3.252951    3.748165
     12          6           0       19.261054    1.438388    4.300967
     13          6           0       18.461272    2.337336    5.305946
     14          1           0       18.153962    1.732986    6.620194
     15          7           0       23.749505   -0.613054    0.426036
     16          6           0       24.352926   -0.162782    1.549851
     17          6           0       25.760460   -0.426860    1.572608
     18          6           0       26.068735   -1.062955    0.358868
     19          6           0       24.720218   -1.254785   -0.319094
     20          6           0       26.716407    0.073077    2.657622
     21          6           0       27.485838   -1.531680   -0.133439
     22          8           0       28.461075   -1.411068    0.651461
     23          6           0       27.776705   -2.073231   -1.598958
     24          7           0       22.022755   -1.852016   -1.655615
     25          6           0       23.229185   -2.325302   -2.052144
     26          6           0       23.146344   -3.182954   -3.288718
     27          6           0       21.653463   -3.099352   -3.673554
     28          6           0       21.119057   -2.102238   -2.642264
     29          6           0       24.150106   -2.792269   -4.423737
     30          6           0       20.934874   -4.530499   -3.737724
     31          6           0       20.660470   -5.045625   -5.155355
     32          7           0       19.856669   -0.032709   -0.805563
     33          6           0       19.136737   -0.656893   -1.847990
     34          6           0       17.817019   -0.023899   -1.971298
     35          6           0       17.805259    0.887101   -0.924263
     36          6           0       19.001944    0.733283   -0.205118
     37          6           0       16.716238   -0.281414   -2.937014
     38          6           0       16.973453    1.897106   -0.254578
     39          8           0       15.929015    2.471837   -0.603124
     40          6           0       17.785660    2.408044    1.002305
     41          6           0       18.082548    3.898313    0.903006
     42          8           0       18.497020    4.521006   -0.079771
     43          8           0       17.715516    4.377010    2.125554
     44          6           0       17.718565    5.821626    2.284341
     45          1           0       24.237938    0.765565    3.434875
     46          1           0       25.255225   -2.615786   -1.970238
     47          1           0       19.124655   -2.020881   -3.416382
     48          1           0       19.914110    3.211715    3.295220
     49          1           0       21.703855    1.460689    4.597107
     50          1           0       21.979596    4.178806    3.977157
     51          1           0       22.939793    3.430392    2.763641
     52          1           0       23.295422    3.184758    4.497613
     53          1           0       19.754136    0.638810    4.853150
     54          1           0       18.602167    0.845967    3.665681
     55          1           0       17.522295    2.637459    4.840892
     56          1           0       19.066920    3.213902    5.540204
     57          1           0       27.471959    0.657790    2.133371
     58          1           0       27.009641   -0.757376    3.299971
     59          1           0       26.124499    0.788073    3.228977
     60          1           0       27.536843   -3.135691   -1.579704
     61          1           0       28.845066   -1.936620   -1.764790
     62          1           0       27.282073   -1.382287   -2.282164
     63          1           0       23.395819   -4.205195   -3.004026
     64          1           0       21.417878   -2.552148   -4.586035
     65          1           0       23.662671   -2.763732   -5.397871
     66          1           0       24.991164   -3.481642   -4.495520
     67          1           0       24.620105   -1.842944   -4.170200
     68          1           0       19.948044   -4.522204   -3.275091
     69          1           0       21.498834   -5.257400   -3.153305
     70          1           0       20.840547   -6.120000   -5.196637
     71          1           0       21.321997   -4.545707   -5.862533
     72          1           0       19.643690   -4.863817   -5.503012
     73          1           0       17.088082   -0.996205   -3.671144
     74          1           0       16.275288    0.662277   -3.258736
     75          1           0       15.964900   -0.848595   -2.386516
     76          1           0       17.279874    2.186126    1.942381
     77          1           0       18.601421    6.310265    1.870199
     78          1           0       17.597803    6.209762    3.295692
     79          1           0       16.854505    6.248056    1.774130
     80         12           0      -21.351482   -0.646701    0.544207
     81          6           0      -22.180918    2.435806   -0.886121
     82          6           0      -18.261189   -0.333248   -0.514841
     83          6           0      -20.805620   -3.956322    1.287340
     84          6           0      -24.769949   -1.207016    1.226590
     85          7           0      -20.375331    0.923123   -0.467777
     86          6           0      -20.835129    2.138634   -0.924767
     87          6           0      -19.696815    3.029306   -1.405554
     88          6           0      -18.512421    2.012613   -1.473953
     89          6           0      -19.028295    0.852525   -0.695848
     90          6           0      -17.898596    1.666485   -2.813330
     91          6           0      -19.453005    4.307913   -0.541864
     92          6           0      -18.327201    5.223486   -1.034876
     93          1           0      -18.688875    6.691071   -1.210604
     94          7           0      -19.683710   -2.041963    0.336364
     95          6           0      -18.440681   -1.639145   -0.000288
     96          6           0      -17.526056   -2.733364    0.173220
     97          6           0      -18.283011   -3.838443    0.599063
     98          6           0      -19.661409   -3.296548    0.744767
     99          6           0      -16.046016   -2.653222   -0.136019
    100          6           0      -17.841458   -5.220417    0.954224
    101          8           0      -18.592127   -6.204116    1.192322
    102          6           0      -16.357769   -5.535063    1.101329
    103          7           0      -22.596731   -2.308926    1.128089
    104          6           0      -22.134136   -3.568885    1.301741
    105          6           0      -23.299463   -4.490145    1.954901
    106          6           0      -24.382497   -3.420829    2.336461
    107          6           0      -23.896184   -2.213891    1.600274
    108          6           0      -23.759442   -5.566188    0.895240
    109          6           0      -24.312716   -3.076805    3.869201
    110          6           0      -22.978054   -2.686978    4.485212
    111          7           0      -23.190883    0.425781    0.297366
    112          6           0      -24.457369    0.036639    0.637451
    113          6           0      -25.309636    1.076352    0.288291
    114          6           0      -24.530197    2.084310   -0.348898
    115          6           0      -23.235108    1.638054   -0.320393
    116          6           0      -26.791389    1.151318    0.402826
    117          6           0      -24.507727    3.394961   -1.037139
    118          8           0      -25.380757    4.185829   -1.375808
    119          6           0      -22.938509    3.712687   -1.321965
    120          6           0      -22.749385    4.202838   -2.713282
    121          8           0      -23.406747    3.799277   -3.718246
    122          8           0      -21.912074    5.229347   -2.650180
    123          6           0      -21.966689    6.108782   -3.802258
    124          1           0      -17.197292   -0.235386   -0.741208
    125          1           0      -20.641337   -5.000929    1.562284
    126          1           0      -25.794528   -1.360251    1.569057
    127          1           0      -20.053339    3.419435   -2.359048
    128          1           0      -17.642984    2.333813   -0.899330
    129          1           0      -18.074642    2.365547   -3.630877
    130          1           0      -18.221455    0.666689   -3.104862
    131          1           0      -16.849369    1.434585   -2.629375
    132          1           0      -19.274628    4.020753    0.494708
    133          1           0      -20.371751    4.892560   -0.508277
    134          1           0      -18.139656    5.083363   -2.099290
    135          1           0      -17.420353    5.090187   -0.444257
    136          1           0      -15.729335   -1.732226   -0.625345
    137          1           0      -15.680751   -3.348599   -0.891359
    138          1           0      -15.411637   -2.778664    0.741976
    139          1           0      -15.906761   -5.484066    0.110713
    140          1           0      -16.183136   -6.590640    1.308327
    141          1           0      -15.866306   -4.942869    1.874103
    142          1           0      -22.896418   -5.039052    2.806007
    143          1           0      -25.312779   -3.803896    1.917065
    144          1           0      -23.079100   -5.662007    0.048858
    145          1           0      -24.730332   -5.361241    0.443870
    146          1           0      -23.790210   -6.580795    1.289783
    147          1           0      -24.675943   -4.023313    4.269693
    148          1           0      -25.005515   -2.301004    4.193781
    149          1           0      -22.166957   -2.900251    3.788651
    150          1           0      -22.770265   -3.078098    5.480586
    151          1           0      -23.113396   -1.622046    4.674327
    152          1           0      -27.174765    0.960371    1.405469
    153          1           0      -27.162552    0.351805   -0.237706
    154          1           0      -27.192964    2.093742    0.031850
    155          1           0      -22.717592    4.535566   -0.642627
    156          1           0      -21.947285    7.150058   -3.478166
    157          1           0      -22.856038    6.031740   -4.427280
    158          1           0      -21.066517    5.897627   -4.380419
 ---------------------------------------------------------------------

 SCF Done:  E(RCAM-B3LYP) =  -4069.83766881     A.U. after   19 cycles

 Excitation energies and oscillator strengths:

 Excited State   1:      Singlet-A      1.7089 eV  725.53 nm  f=0.4436  <S**2>=0.000
     309 -> 315       -0.17311
     312 -> 314        0.68090
     309 <- 315       -0.10438
 This state for optimization and/or second-order correction.
 Total Energy, E(TD-HF/TD-DFT) =  -4069.77486876
 Copying the excited state density for this state as the 1-particle RhoCI density.

 Excited State   2:      Singlet-A      1.7146 eV  723.12 nm  f=0.3145  <S**2>=0.000
     310 -> 316        0.16471
     311 -> 313        0.68380
     310 <- 316        0.10231

 Excited State   3:      Singlet-A      2.1453 eV  577.92 nm  f=0.1692  <S**2>=0.000
     310 -> 313        0.66339
     311 -> 316       -0.22678

 Excited State   4:      Singlet-A      2.2476 eV  551.62 nm  f=0.0931  <S**2>=0.000
     309 -> 314        0.62546
     312 -> 315        0.31553

 Excited State   5:      Singlet-A      2.9775 eV  416.41 nm  f=0.0000  <S**2>=0.000
     312 -> 313        0.70710

 The electronic state is 1-A.
 Alpha  occ. eigenvalues --  -46.89378 -46.89221 -19.26657 -19.26413 -19.20315
 Alpha  occ. eigenvalues --  -19.19727 -19.19107 -19.19046 -19.18496 -19.18450
 Alpha  occ. eigenvalues --  -14.42899 -14.42454 -14.42219 -14.41821 -14.40274
 Alpha  occ. eigenvalues --  -14.39760 -14.39156 -14.38021 -10.40006 -10.39235
 Alpha  occ. eigenvalues --  -10.36719 -10.35754 -10.34823 -10.34802 -10.32247
 Alpha  occ. eigenvalues --  -10.32115 -10.32102 -10.32014 -10.31639 -10.31231
 Alpha  occ. eigenvalues --  -10.31140 -10.31088 -10.31011 -10.30779 -10.30624
 Alpha  occ. eigenvalues --  -10.30525 -10.30447 -10.30094 -10.29761 -10.29721
 Alpha  occ. eigenvalues --  -10.29245 -10.28865 -10.28538 -10.28525 -10.28519
 Alpha  occ. eigenvalues --  -10.28395 -10.28311 -10.28299 -10.28246 -10.28215
 Alpha  occ. eigenvalues --  -10.28202 -10.28169 -10.28065 -10.28063 -10.28022
 Alpha  occ. eigenvalues --  -10.27962 -10.27879 -10.27861 -10.27790 -10.27783
 Alpha  occ. eigenvalues --  -10.27763 -10.27758 -10.27700 -10.27657 -10.27512
 Alpha  occ. eigenvalues --  -10.27340 -10.27065 -10.27034 -10.26959 -10.26778
 Alpha  occ. eigenvalues --  -10.26619 -10.26495 -10.26485 -10.26476 -10.26469
 Alpha  occ. eigenvalues --  -10.26323 -10.26143 -10.26121 -10.26100 -10.26023
 Alpha  occ. eigenvalues --  -10.25807 -10.25667 -10.25417 -10.24885 -10.24635
 Alpha  occ. eigenvalues --  -10.24270  -3.17766  -3.17753  -1.92674  -1.92619
 Alpha  occ. eigenvalues --   -1.92195  -1.92191  -1.92083  -1.92080  -1.18093
 Alpha  occ. eigenvalues --   -1.16888  -1.08793  -1.08660  -1.08410  -1.08368
 Alpha  occ. eigenvalues --   -1.07802  -1.05917  -1.05409  -1.04721  -1.04359
 Alpha  occ. eigenvalues --   -1.04050  -1.03566  -1.03335  -1.02457  -1.02198
 Alpha  occ. eigenvalues --   -0.91852  -0.91467  -0.89595  -0.89282  -0.88921
 Alpha  occ. eigenvalues --   -0.88883  -0.88743  -0.88402  -0.87983  -0.87326
 Alpha  occ. eigenvalues --   -0.87137  -0.87033  -0.86438  -0.85679  -0.84800
 Alpha  occ. eigenvalues --   -0.84360  -0.83942  -0.83760  -0.82908  -0.82555
 Alpha  occ. eigenvalues --   -0.81854  -0.81683  -0.81333  -0.81167  -0.80667
 Alpha  occ. eigenvalues --   -0.80238  -0.78878  -0.77983  -0.77584  -0.77523
 Alpha  occ. eigenvalues --   -0.77353  -0.76791  -0.76122  -0.75936  -0.75339
 Alpha  occ. eigenvalues --   -0.75233  -0.72753  -0.72748  -0.71771  -0.71745
 Alpha  occ. eigenvalues --   -0.69907  -0.69242  -0.69180  -0.69016  -0.68347
 Alpha  occ. eigenvalues --   -0.67933  -0.67681  -0.67297  -0.66174  -0.65527
 Alpha  occ. eigenvalues --   -0.65199  -0.65125  -0.65041  -0.64675  -0.64603
 Alpha  occ. eigenvalues --   -0.64561  -0.62737  -0.62735  -0.61014  -0.59992
 Alpha  occ. eigenvalues --   -0.59775  -0.59642  -0.59246  -0.58968  -0.58652
 Alpha  occ. eigenvalues --   -0.58531  -0.57777  -0.57609  -0.57282  -0.57225
 Alpha  occ. eigenvalues --   -0.56206  -0.56031  -0.56011  -0.55807  -0.55798
 Alpha  occ. eigenvalues --   -0.55463  -0.55394  -0.55316  -0.55063  -0.54392
 Alpha  occ. eigenvalues --   -0.53811  -0.53417  -0.53271  -0.53185  -0.53137
 Alpha  occ. eigenvalues --   -0.52923  -0.52838  -0.52642  -0.52534  -0.52058
 Alpha  occ. eigenvalues --   -0.51715  -0.51634  -0.51573  -0.51402  -0.51225
 Alpha  occ. eigenvalues --   -0.51146  -0.50974  -0.50918  -0.50562  -0.50447
 Alpha  occ. eigenvalues --   -0.50109  -0.49988  -0.49523  -0.49509  -0.49376
 Alpha  occ. eigenvalues --   -0.49104  -0.49100  -0.48852  -0.48579  -0.48556
 Alpha  occ. eigenvalues --   -0.48486  -0.48356  -0.48311  -0.48193  -0.48102
 Alpha  occ. eigenvalues --   -0.47893  -0.47729  -0.47518  -0.47238  -0.47226
 Alpha  occ. eigenvalues --   -0.47199  -0.46907  -0.46761  -0.46624  -0.46492
 Alpha  occ. eigenvalues --   -0.46433  -0.46381  -0.46048  -0.45958  -0.45854
 Alpha  occ. eigenvalues --   -0.45615  -0.45440  -0.45300  -0.45179  -0.44818
 Alpha  occ. eigenvalues --   -0.44731  -0.44480  -0.44454  -0.44279  -0.44164
 Alpha  occ. eigenvalues --   -0.43857  -0.43838  -0.43818  -0.43723  -0.43527
 Alpha  occ. eigenvalues --   -0.43416  -0.43326  -0.43203  -0.42988  -0.42874
 Alpha  occ. eigenvalues --   -0.42582  -0.42517  -0.42496  -0.42353  -0.42168
 Alpha  occ. eigenvalues --   -0.42071  -0.42003  -0.41766  -0.41628  -0.41436
 Alpha  occ. eigenvalues --   -0.41233  -0.41196  -0.40862  -0.40842  -0.40649
 Alpha  occ. eigenvalues --   -0.40496  -0.39760  -0.39605  -0.39406  -0.39251
 Alpha  occ. eigenvalues --   -0.38730  -0.38670  -0.38431  -0.38201  -0.37895
 Alpha  occ. eigenvalues --   -0.37431  -0.37304  -0.36918  -0.36901  -0.36572
 Alpha  occ. eigenvalues --   -0.36461  -0.36295  -0.34917  -0.34843  -0.34078
 Alpha  occ. eigenvalues --   -0.33949  -0.33079  -0.32903  -0.31948  -0.31625
 Alpha  occ. eigenvalues --   -0.31243  -0.31152  -0.30789  -0.30539  -0.30502
 Alpha  occ. eigenvalues --   -0.30102  -0.29883  -0.28507  -0.24246  -0.24066
 Alpha  occ. eigenvalues --   -0.21770  -0.21129
 Alpha virt. eigenvalues --   -0.09370  -0.08627  -0.02068  -0.01287  -0.00027
 Alpha virt. eigenvalues --    0.00126   0.01592   0.01798   0.01933   0.02504
 Alpha virt. eigenvalues --    0.04445   0.04661   0.04938   0.05001   0.05684

 Mulliken charges:
               1
     1  Mg  11.997982
     2  C    6.032442
     3  C    5.981666
     4  C    5.968077
     5  C    6.005030
     6  N    7.016079
     7  C    5.961670
     8  C    6.007667
     9  C    5.990567
    10  C    6.034074
    11  C    5.996847
    12  C    5.999668
    13  C    6.001435
    14  H    0.995905
    15  N    6.990293
    16  C    6.041539
    17  C    6.019174
    18  C    6.013225
    19  C    6.047634
    20  C    5.996767
    21  C    6.009637
    22  O    8.020348
    23  C    6.001315
    24  N    6.992152
    25  C    6.040598
    26  C    5.986628
    27  C    6.008748
    28  C    5.967668
    29  C    5.999388
    30  C    6.003445
    31  C    6.000866
    32  N    7.002378
    33  C    5.956827
    34  C    5.976558
    35  C    5.994577
    36  C    5.969073
    37  C    6.003653
    38  C    5.984151
    39  O    7.968288
    40  C    5.998464
    41  C    5.994746
    42  O    7.997879
    43  O    7.998321
    44  C    6.002106
    45  H    1.010111
    46  H    1.005370
    47  H    0.986167
    48  H    1.001724
    49  H    1.005914
    50  H    1.013902
    51  H    1.000893
    52  H    0.999446
    53  H    0.990651
    54  H    1.007813
    55  H    1.004949
    56  H    0.995701
    57  H    1.015406
    58  H    1.017851
    59  H    1.016667
    60  H    1.010168
    61  H    1.011254
    62  H    1.008284
    63  H    1.002180
    64  H    1.003223
    65  H    1.011019
    66  H    0.998282
    67  H    0.996889
    68  H    1.003664
    69  H    0.987983
    70  H    0.994416
    71  H    0.994254
    72  H    1.002385
    73  H    0.983469
    74  H    0.983150
    75  H    0.979752
    76  H    0.992415
    77  H    0.994920
    78  H    0.994587
    79  H    0.999583
    80  Mg  11.999222
    81  C    6.003350
    82  C    5.998673
    83  C    5.996510
    84  C    6.000579
    85  N    7.002212
    86  C    5.995254
    87  C    6.001184
    88  C    5.998831
    89  C    6.004582
    90  C    5.999748
    91  C    6.000365
    92  C    5.999656
    93  H    1.000333
    94  N    6.998718
    95  C    6.005350
    96  C    6.002012
    97  C    6.002593
    98  C    6.004461
    99  C    5.999193
   100  C    6.001232
   101  O    8.004135
   102  C    5.999193
   103  N    6.999011
   104  C    6.003900
   105  C    5.999420
   106  C    6.001571
   107  C    5.996346
   108  C    5.999758
   109  C    6.001333
   110  C    6.000325
   111  N    7.000621
   112  C    5.995537
   113  C    5.996170
   114  C    6.000017
   115  C    5.995179
   116  C    6.000282
   117  C    5.998343
   118  O    7.996675
   119  C    5.999282
   120  C    5.999272
   121  O    7.999810
   122  O    7.999736
   123  C    6.000269
   124  H    1.001374
   125  H    1.000188
   126  H    0.998075
   127  H    1.000260
   128  H    1.000428
   129  H    1.001930
   130  H    0.999962
   131  H    0.999995
   132  H    0.999235
   133  H    1.000864
   134  H    0.999658
   135  H    0.999366
   136  H    1.002294
   137  H    1.002506
   138  H    1.002495
   139  H    1.000983
   140  H    1.001894
   141  H    1.001132
   142  H    0.999734
   143  H    0.999569
   144  H    0.999205
   145  H    1.001313
   146  H    0.999971
   147  H    0.998462
   148  H    1.000251
   149  H    0.998031
   150  H    0.999256
   151  H    1.000638
   152  H    0.997303
   153  H    0.997297
   154  H    0.997958
   155  H    0.999422
   156  H    0.999588
   157  H    0.999887
   158  H    0.999234
 Sum of Mulliken charges = 624.00000

 Dipole moment (field-independent basis, Debye):
    X=             11.0571    Y=             -1.6132    Z=              3.4690  Tot=             11.7003
 Quadrupole moment (field-independent basis, Debye-Ang):
   XX=            380.5951   YY=             -1.9750   ZZ=             -1.5459
   XY=             -8.0361   XZ=             73.6946   YZ=             -1.4355

 Normal termination of Gaussian 16 at Thu Sep 23 11:08:00 2021.
