 Gaussian 16, Revision A.03,
 Gaussian 16:  ES64L-G16RevA.03 25-Dec-2016

 -----------------------------------
 #p cam-b3lyp/Def2SVP td=(nstates=5)
 -----------------------------------

 --------------------------------
 TDDFT excited states in gaussian
 --------------------------------
 Symbolic Z-matrix:
 Charge =  0 Multiplicity = 1

                         Standard orientation:
 ---------------------------------------------------------------------
 Center     Atomic      Atomic             Coordinates (Angstroms)
 Number     Number       Type             X           Y           Z
 ---------------------------------------------------------------------
      1         12           0      -29.769349    0.282782   -0.622659
      2          6           0      -29.070548   -2.274774    1.702153
      3          6           0      -29.347232    2.579160    1.899221
      4          6           0      -30.501460    2.771649   -2.755750
      5          6           0      -30.746467   -2.102214   -2.989138
      6          7           0      -29.142966    0.084792    1.462941
      7          6           0      -28.894477   -0.957822    2.250341
      8          6           0      -28.489342   -0.642167    3.705262
      9          6           0      -28.908033    0.907243    3.689820
     10          6           0      -29.201424    1.208857    2.240474
     11          6           0      -30.084613    1.227358    4.579494
     12          6           0      -26.908876   -0.865139    4.024602
     13          6           0      -26.631670   -1.174582    5.498661
     14          1           0      -25.973800   -2.556993    5.743644
     15          7           0      -29.754401    2.437472   -0.517689
     16          6           0      -29.593664    3.178761    0.679075
     17          6           0      -29.442594    4.563511    0.292586
     18          6           0      -29.749573    4.652612   -1.062190
     19          6           0      -30.005430    3.255952   -1.535132
     20          6           0      -29.234353    5.698465    1.277450
     21          6           0      -29.780016    5.830775   -2.008639
     22          8           0      -29.998212    5.652995   -3.171442
     23          6           0      -29.470135    7.222661   -1.555687
     24          7           0      -30.698753    0.357179   -2.508330
     25          6           0      -30.828542    1.508270   -3.229346
     26          6           0      -31.351634    1.088709   -4.631167
     27          6           0      -30.885323   -0.340170   -4.845138
     28          6           0      -30.779210   -0.783703   -3.367035
     29          6           0      -32.879162    1.127394   -4.633151
     30          6           0      -29.626880   -0.473612   -5.620071
     31          6           0      -28.451499    0.403998   -5.267418
     32          7           0      -29.874020   -1.772639   -0.706422
     33          6           0      -30.293181   -2.625347   -1.710252
     34          6           0      -30.146364   -4.013177   -1.244972
     35          6           0      -29.650096   -3.901977    0.065536
     36          6           0      -29.506894   -2.567989    0.333767
     37          6           0      -30.503489   -5.225337   -1.991346
     38          6           0      -29.099924   -4.622096    1.182513
     39          8           0      -28.914623   -5.862105    1.358606
     40          6           0      -28.673540   -3.538580    2.282167
     41          6           0      -29.493525   -3.835417    3.510922
     42          8           0      -30.673667   -4.021573    3.474701
     43          8           0      -28.781677   -3.821621    4.740966
     44          6           0      -29.634744   -3.790836    5.967811
     45          1           0      -29.268567    3.319926    2.696950
     46          1           0      -30.845018    3.545826   -3.445532
     47          1           0      -30.866588   -2.896250   -3.729450
     48          1           0      -29.027147   -1.296254    4.392717
     49          1           0      -28.015346    1.420491    4.049419
     50          1           0      -29.664435    1.610626    5.509224
     51          1           0      -30.768976    0.386752    4.696018
     52          1           0      -30.531159    2.105316    4.112822
     53          1           0      -26.349587    0.035575    3.769702
     54          1           0      -26.495284   -1.646909    3.387196
     55          1           0      -27.626389   -1.067087    5.931678
     56          1           0      -26.046078   -0.391378    5.979711
     57          1           0      -28.864427    5.206618    2.176286
     58          1           0      -30.252215    6.032956    1.475847
     59          1           0      -28.508573    6.430472    0.922590
     60          1           0      -28.396204    7.121872   -1.397863
     61          1           0      -29.939418    7.509654   -0.615060
     62          1           0      -29.713673    7.939851   -2.340292
     63          1           0      -31.053709    1.739388   -5.452605
     64          1           0      -31.572734   -0.976820   -5.401145
     65          1           0      -33.444279    0.199165   -4.548072
     66          1           0      -33.188782    1.621145   -5.554205
     67          1           0      -33.198344    1.780535   -3.820177
     68          1           0      -29.798361   -0.383174   -6.692953
     69          1           0      -29.324551   -1.506390   -5.447672
     70          1           0      -27.699492   -0.266714   -4.850817
     71          1           0      -28.509065    1.241703   -4.571776
     72          1           0      -28.029614    0.790455   -6.195058
     73          1           0      -31.590238   -5.272056   -2.060491
     74          1           0      -30.045981   -6.027995   -1.413073
     75          1           0      -30.140424   -5.183289   -3.019123
     76          1           0      -27.595023   -3.662619    2.381447
     77          1           0      -30.036704   -4.782834    6.173652
     78          1           0      -30.462278   -3.083360    5.898211
     79          1           0      -29.119801   -3.566668    6.901548
     80         12           0       30.052090   -0.772124    0.457920
     81          6           0       27.816783    1.965417    0.786151
     82          6           0       27.382909   -2.602095   -0.843542
     83          6           0       32.311593   -2.752875   -0.886480
     84          6           0       32.674318    1.535011    1.555654
     85          7           0       27.849243   -0.237386   -0.210913
     86          6           0       27.154479    0.818817    0.279853
     87          6           0       25.669516    0.586382    0.066039
     88          6           0       25.519399   -0.933808    0.126949
     89          6           0       27.000162   -1.304592   -0.395411
     90          6           0       25.276243   -1.589913    1.487369
     91          6           0       25.204188    1.307064   -1.273709
     92          6           0       23.936310    2.047524   -1.103020
     93          1           0       22.898434    1.956647   -2.238591
     94          7           0       29.910880   -2.473353   -0.778309
     95          6           0       28.699834   -3.117160   -1.134504
     96          6           0       29.069656   -4.298356   -1.872865
     97          6           0       30.480411   -4.460142   -1.852221
     98          6           0       30.996207   -3.212241   -1.184714
     99          6           0       28.001625   -5.198123   -2.486595
    100          6           0       31.244939   -5.548647   -2.495811
    101          8           0       30.634147   -6.420057   -3.102200
    102          6           0       32.730451   -5.678534   -2.579050
    103          7           0       32.269315   -0.531397    0.285200
    104          6           0       32.897920   -1.640892   -0.151426
    105          6           0       34.416966   -1.528777    0.071674
    106          6           0       34.559911   -0.202773    1.010534
    107          6           0       33.093529    0.301445    1.007407
    108          6           0       35.108759   -2.862644    0.606267
    109          6           0       35.612649    0.847271    0.535942
    110          6           0       35.094283    2.086430   -0.270679
    111          7           0       30.249631    1.233735    1.038746
    112          6           0       31.362904    1.984380    1.513102
    113          6           0       30.849968    3.307975    2.077696
    114          6           0       29.505016    3.297035    1.744204
    115          6           0       29.198577    2.024456    1.141894
    116          6           0       31.552706    4.479247    2.790792
    117          6           0       28.285704    4.034180    1.846634
    118          8           0       28.046234    5.107540    2.402192
    119          6           0       27.274056    3.238928    1.101392
    120          6           0       27.049869    4.075638   -0.178941
    121          8           0       27.772933    4.125577   -1.171742
    122          8           0       25.875089    4.850905    0.027289
    123          6           0       25.519131    5.794306   -0.953337
    124          1           0       26.574958   -3.259938   -1.170920
    125          1           0       32.972323   -3.556836   -1.216796
    126          1           0       33.357381    2.237275    2.036616
    127          1           0       25.053372    0.948957    0.888707
    128          1           0       24.760840   -1.438498   -0.470262
    129          1           0       24.902961   -0.903222    2.246570
    130          1           0       26.108686   -2.230785    1.778956
    131          1           0       24.441681   -2.258229    1.272170
    132          1           0       25.026465    0.545559   -2.033144
    133          1           0       25.982841    1.895399   -1.759277
    134          1           0       24.296808    3.065016   -0.956151
    135          1           0       23.450563    1.687024   -0.196397
    136          1           0       27.858210   -6.125627   -1.932619
    137          1           0       28.243379   -5.359666   -3.536082
    138          1           0       27.034396   -4.695406   -2.479282
    139          1           0       33.110545   -5.877645   -1.576758
    140          1           0       33.260813   -4.821302   -2.995550
    141          1           0       33.024953   -6.609917   -3.061151
    142          1           0       34.788207   -1.269411   -0.919566
    143          1           0       34.746651   -0.523734    2.034777
    144          1           0       34.522363   -3.742210    0.340911
    145          1           0       35.430461   -2.912916    1.647176
    146          1           0       36.102156   -2.804209    0.158717
    147          1           0       36.418908    0.395385   -0.041282
    148          1           0       36.003871    1.218308    1.482933
    149          1           0       35.991364    2.199352   -0.879894
    150          1           0       34.907897    3.012584    0.273451
    151          1           0       34.247969    1.755458   -0.872952
    152          1           0       31.118198    4.655390    3.774185
    153          1           0       31.154773    5.269574    2.155006
    154          1           0       32.626980    4.335083    2.677745
    155          1           0       26.345032    3.208214    1.670777
    156          1           0       24.616472    6.364292   -0.729792
    157          1           0       25.347054    5.249174   -1.880553
    158          1           0       26.374775    6.467091   -1.017656
 ---------------------------------------------------------------------

 SCF Done:  E(RCAM-B3LYP) =  -4069.75734360     A.U. after   18 cycles

 Excitation energies and oscillator strengths:

 Excited State   1:      Singlet-A      1.6842 eV  736.15 nm  f=0.3462  <S**2>=0.000
     310 -> 315       -0.19724
     312 -> 314        0.68016
     310 <- 315       -0.11212
 This state for optimization and/or second-order correction.
 Total Energy, E(TD-HF/TD-DFT) =  -4069.69544930
 Copying the excited state density for this state as the 1-particle RhoCI density.

 Excited State   2:      Singlet-A      1.6958 eV  731.13 nm  f=0.3781  <S**2>=0.000
     309 -> 316       -0.17409
     311 -> 313        0.68764
     309 <- 316       -0.10609

 Excited State   3:      Singlet-A      2.1842 eV  567.65 nm  f=0.1187  <S**2>=0.000
     309 -> 313        0.64719
     311 -> 316        0.27033

 Excited State   4:      Singlet-A      2.1915 eV  565.74 nm  f=0.0562  <S**2>=0.000
     310 -> 314        0.61452
     312 -> 315        0.33942

 Excited State   5:      Singlet-A      3.1328 eV  395.76 nm  f=0.0000  <S**2>=0.000
     312 -> 313        0.70711

 The electronic state is 1-A.
 Alpha  occ. eigenvalues --  -46.91319 -46.88629 -19.24730 -19.24504 -19.21422
 Alpha  occ. eigenvalues --  -19.20049 -19.19088 -19.18932 -19.18246 -19.17590
 Alpha  occ. eigenvalues --  -14.43420 -14.42425 -14.41961 -14.41346 -14.40261
 Alpha  occ. eigenvalues --  -14.39779 -14.39712 -14.39062 -10.40613 -10.39404
 Alpha  occ. eigenvalues --  -10.35192 -10.34747 -10.34581 -10.34143 -10.31856
 Alpha  occ. eigenvalues --  -10.31848 -10.31689 -10.31446 -10.31421 -10.31325
 Alpha  occ. eigenvalues --  -10.31277 -10.31126 -10.31074 -10.30992 -10.30954
 Alpha  occ. eigenvalues --  -10.30849 -10.30614 -10.30524 -10.30099 -10.29485
 Alpha  occ. eigenvalues --  -10.29443 -10.29410 -10.29394 -10.28862 -10.28811
 Alpha  occ. eigenvalues --  -10.28798 -10.28538 -10.28431 -10.28392 -10.28392
 Alpha  occ. eigenvalues --  -10.28372 -10.28315 -10.28248 -10.28221 -10.28205
 Alpha  occ. eigenvalues --  -10.28164 -10.28133 -10.27927 -10.27682 -10.27625
 Alpha  occ. eigenvalues --  -10.27574 -10.27534 -10.27373 -10.27231 -10.27182
 Alpha  occ. eigenvalues --  -10.27132 -10.27124 -10.27124 -10.27112 -10.26797
 Alpha  occ. eigenvalues --  -10.26698 -10.26656 -10.26595 -10.26422 -10.26381
 Alpha  occ. eigenvalues --  -10.26254 -10.25786 -10.25685 -10.25626 -10.25401
 Alpha  occ. eigenvalues --  -10.25289 -10.25122 -10.25111 -10.24995 -10.24467
 Alpha  occ. eigenvalues --  -10.24431  -3.19519  -3.17124  -1.94360  -1.94026
 Alpha  occ. eigenvalues --   -1.93775  -1.92046  -1.91555  -1.91440  -1.15840
 Alpha  occ. eigenvalues --   -1.15619  -1.12123  -1.09620  -1.09374  -1.08671
 Alpha  occ. eigenvalues --   -1.07387  -1.06660  -1.05303  -1.04220  -1.03544
 Alpha  occ. eigenvalues --   -1.03467  -1.02941  -1.02855  -1.01774  -1.01293
 Alpha  occ. eigenvalues --   -0.94397  -0.92957  -0.90054  -0.89445  -0.89189
 Alpha  occ. eigenvalues --   -0.88839  -0.88739  -0.87854  -0.87818  -0.87285
 Alpha  occ. eigenvalues --   -0.86941  -0.86866  -0.86226  -0.85590  -0.84796
 Alpha  occ. eigenvalues --   -0.84713  -0.83679  -0.83578  -0.82720  -0.82636
 Alpha  occ. eigenvalues --   -0.82480  -0.81659  -0.81119  -0.80874  -0.80290
 Alpha  occ. eigenvalues --   -0.79929  -0.78918  -0.78054  -0.77353  -0.77289
 Alpha  occ. eigenvalues --   -0.77113  -0.76895  -0.76291  -0.76021  -0.75223
 Alpha  occ. eigenvalues --   -0.74996  -0.72764  -0.72464  -0.71857  -0.71339
 Alpha  occ. eigenvalues --   -0.69934  -0.69710  -0.68856  -0.68731  -0.67849
 Alpha  occ. eigenvalues --   -0.67336  -0.67130  -0.66885  -0.65836  -0.65360
 Alpha  occ. eigenvalues --   -0.64986  -0.64946  -0.64729  -0.64561  -0.64210
 Alpha  occ. eigenvalues --   -0.63415  -0.62231  -0.61775  -0.60390  -0.59948
 Alpha  occ. eigenvalues --   -0.59946  -0.59785  -0.59289  -0.59152  -0.58988
 Alpha  occ. eigenvalues --   -0.58918  -0.58616  -0.58277  -0.57601  -0.57052
 Alpha  occ. eigenvalues --   -0.56402  -0.56218  -0.55976  -0.55768  -0.55656
 Alpha  occ. eigenvalues --   -0.54965  -0.54793  -0.54576  -0.54548  -0.54097
 Alpha  occ. eigenvalues --   -0.53988  -0.53725  -0.53694  -0.53622  -0.53408
 Alpha  occ. eigenvalues --   -0.53051  -0.53051  -0.52658  -0.52442  -0.52197
 Alpha  occ. eigenvalues --   -0.51978  -0.51888  -0.51686  -0.51640  -0.51536
 Alpha  occ. eigenvalues --   -0.51408  -0.51322  -0.50848  -0.50740  -0.50569
 Alpha  occ. eigenvalues --   -0.50210  -0.50199  -0.50017  -0.49984  -0.49699
 Alpha  occ. eigenvalues --   -0.49593  -0.49420  -0.49243  -0.49216  -0.49082
 Alpha  occ. eigenvalues --   -0.48965  -0.48493  -0.48308  -0.48280  -0.48228
 Alpha  occ. eigenvalues --   -0.47774  -0.47741  -0.47657  -0.47486  -0.47183
 Alpha  occ. eigenvalues --   -0.47183  -0.46865  -0.46716  -0.46362  -0.46109
 Alpha  occ. eigenvalues --   -0.45961  -0.45918  -0.45885  -0.45884  -0.45565
 Alpha  occ. eigenvalues --   -0.45452  -0.45412  -0.45317  -0.45227  -0.45161
 Alpha  occ. eigenvalues --   -0.44964  -0.44585  -0.44464  -0.44327  -0.44177
 Alpha  occ. eigenvalues --   -0.44153  -0.43809  -0.43739  -0.43510  -0.43491
 Alpha  occ. eigenvalues --   -0.43321  -0.43163  -0.43114  -0.43019  -0.42859
 Alpha  occ. eigenvalues --   -0.42532  -0.42473  -0.42347  -0.42056  -0.41830
 Alpha  occ. eigenvalues --   -0.41616  -0.41565  -0.41313  -0.41050  -0.41028
 Alpha  occ. eigenvalues --   -0.40993  -0.40937  -0.40442  -0.40387  -0.40279
 Alpha  occ. eigenvalues --   -0.40100  -0.39754  -0.39531  -0.39187  -0.38575
 Alpha  occ. eigenvalues --   -0.38351  -0.38283  -0.37940  -0.37723  -0.37652
 Alpha  occ. eigenvalues --   -0.37292  -0.37136  -0.36533  -0.36438  -0.36342
 Alpha  occ. eigenvalues --   -0.36201  -0.35787  -0.35234  -0.34690  -0.34526
 Alpha  occ. eigenvalues --   -0.34233  -0.33362  -0.33213  -0.31720  -0.31481
 Alpha  occ. eigenvalues --   -0.31376  -0.30826  -0.30583  -0.30322  -0.30230
 Alpha  occ. eigenvalues --   -0.30017  -0.29494  -0.29336  -0.24150  -0.24066
 Alpha  occ. eigenvalues --   -0.21394  -0.21054
 Alpha virt. eigenvalues --   -0.08968  -0.08547  -0.02631  -0.01746  -0.00621
 Alpha virt. eigenvalues --    0.00117   0.00430   0.02154   0.02166   0.03254
 Alpha virt. eigenvalues --    0.04646   0.04689   0.05150   0.05293   0.05611

 Mulliken charges:
               1
     1  Mg   0.813750
     2  C   -0.040351
     3  C   -0.100319
     4  C   -0.056109
     5  C   -0.065195
     6  N   -0.248685
     7  C   -0.044785
     8  C   -0.042260
     9  C   -0.088341
    10  C    0.097189
    11  C    0.104630
    12  C    0.047557
    13  C   -0.047312
    14  H    0.045012
    15  N   -0.365821
    16  C    0.130085
    17  C   -0.165508
    18  C   -0.010035
    19  C    0.116009
    20  C    0.118463
    21  C   -0.027544
    22  O   -0.177935
    23  C    0.053329
    24  N   -0.336417
    25  C    0.059181
    26  C   -0.036051
    27  C    0.001076
    28  C    0.092584
    29  C    0.078993
    30  C    0.053803
    31  C   -0.013975
    32  N   -0.352954
    33  C    0.068138
    34  C   -0.192103
    35  C    0.046568
    36  C    0.100694
    37  C    0.125865
    38  C    0.023005
    39  O   -0.217221
    40  C    0.037664
    41  C    0.193548
    42  O   -0.181812
    43  O   -0.372699
    44  C    0.178958
    45  H   -0.015779
    46  H   -0.006735
    47  H   -0.026806
    48  H    0.020221
    49  H    0.010232
    50  H    0.008605
    51  H    0.034974
    52  H    0.001628
    53  H    0.003178
    54  H    0.019049
    55  H    0.008182
    56  H    0.020930
    57  H    0.008445
    58  H    0.052491
    59  H    0.037125
    60  H    0.038114
    61  H    0.030882
    62  H    0.035326
    63  H   -0.003200
    64  H   -0.009954
    65  H    0.023921
    66  H    0.009695
    67  H    0.009330
    68  H    0.006478
    69  H   -0.008903
    70  H    0.008037
    71  H    0.038119
    72  H    0.006347
    73  H    0.030657
    74  H    0.042264
    75  H    0.013583
    76  H    0.046813
    77  H    0.037694
    78  H    0.032995
    79  H    0.033394
    80  Mg   0.808507
    81  C    0.026469
    82  C   -0.060756
    83  C   -0.021875
    84  C   -0.054819
    85  N   -0.238527
    86  C   -0.066695
    87  C   -0.007312
    88  C   -0.085906
    89  C    0.025308
    90  C    0.085421
    91  C    0.072662
    92  C   -0.063552
    93  H    0.018160
    94  N   -0.411434
    95  C    0.127361
    96  C   -0.147933
    97  C    0.024187
    98  C    0.084043
    99  C    0.141737
   100  C   -0.053921
   101  O   -0.216875
   102  C    0.078831
   103  N   -0.260287
   104  C    0.038674
   105  C   -0.046174
   106  C    0.025433
   107  C   -0.014261
   108  C    0.052462
   109  C    0.002695
   110  C    0.007460
   111  N   -0.333228
   112  C    0.096746
   113  C   -0.206562
   114  C    0.019525
   115  C    0.125941
   116  C    0.134626
   117  C    0.005910
   118  O   -0.180167
   119  C    0.016446
   120  C    0.215307
   121  O   -0.202557
   122  O   -0.345893
   123  C    0.186836
   124  H   -0.020643
   125  H   -0.066429
   126  H   -0.026115
   127  H   -0.009649
   128  H    0.002558
   129  H    0.020027
   130  H    0.025900
   131  H    0.005831
   132  H    0.007759
   133  H    0.031964
   134  H    0.024939
   135  H    0.024292
   136  H    0.034557
   137  H    0.037895
   138  H   -0.012201
   139  H    0.019235
   140  H    0.050496
   141  H    0.019681
   142  H    0.023826
   143  H    0.010337
   144  H    0.032479
   145  H    0.011785
   146  H    0.010051
   147  H    0.015639
   148  H    0.005369
   149  H    0.012272
   150  H    0.025454
   151  H    0.040069
   152  H    0.049508
   153  H    0.045726
   154  H    0.017034
   155  H    0.029886
   156  H    0.038697
   157  H    0.024813
   158  H    0.034943
 Sum of Mulliken charges =  -0.00000

 Dipole moment (field-independent basis, Debye):
    X=              3.0082    Y=              5.8818    Z=              4.9193  Tot=              8.2368
 Quadrupole moment (field-independent basis, Debye-Ang):
   XX=           -422.5345   YY=           -570.3325   ZZ=           -496.1206
   XY=           -216.2171   XZ=             64.6842   YZ=              5.8314

 Normal termination of Gaussian 16 at Tue Sep 14 16:17:48 2021.
