 Gaussian 16, Revision A.03,
 Gaussian 16:  ES64L-G16RevA.03 25-Dec-2016

 -----------------------------------
 #p cam-b3lyp/Def2SVP td=(nstates=5)
 -----------------------------------

 --------------------------------
 TDDFT excited states in gaussian
 --------------------------------
 Symbolic Z-matrix:
 Charge =  0 Multiplicity = 1

                         Standard orientation:
 ---------------------------------------------------------------------
 Center     Atomic      Atomic             Coordinates (Angstroms)
 Number     Number       Type             X           Y           Z
 ---------------------------------------------------------------------
      1         12           0       30.443664   -0.176388   -0.163900
      2          6           0       27.316943    0.377841    1.333675
      3          6           0       29.285222   -3.176162   -1.260121
      4          6           0       33.231481   -0.355896   -1.864560
      5          6           0       31.017949    3.331765    0.410086
      6          7           0       28.563466   -1.259853    0.087774
      7          6           0       27.419495   -0.849114    0.711840
      8          6           0       26.287981   -1.811905    0.321897
      9          6           0       27.057062   -3.094749    0.026068
     10          6           0       28.353813   -2.452908   -0.503476
     11          6           0       27.314528   -3.947290    1.289999
     12          6           0       25.493325   -1.287409   -0.930820
     13          6           0       23.960284   -0.846819   -0.733695
     14          1           0       23.556218    0.606933   -1.032701
     15          7           0       31.138866   -1.544058   -1.438641
     16          6           0       30.526105   -2.735861   -1.750801
     17          6           0       31.433890   -3.510424   -2.537830
     18          6           0       32.673593   -2.800205   -2.662351
     19          6           0       32.407143   -1.497504   -1.986294
     20          6           0       31.085034   -4.927681   -3.108434
     21          6           0       33.968454   -3.365168   -3.351367
     22          8           0       33.997274   -4.493947   -3.734935
     23          6           0       35.197339   -2.586813   -3.254866
     24          7           0       31.772864    1.370787   -0.928474
     25          6           0       32.995563    0.895918   -1.265363
     26          6           0       34.117196    1.885351   -0.997246
     27          6           0       33.373796    3.161991   -0.635077
     28          6           0       31.934239    2.601980   -0.363957
     29          6           0       35.087905    1.417006    0.149159
     30          6           0       33.366222    4.390396   -1.661780
     31          6           0       34.148506    5.650185   -1.403833
     32          7           0       29.527803    1.458760    0.847731
     33          6           0       29.866034    2.809563    1.000014
     34          6           0       28.834015    3.542788    1.700684
     35          6           0       27.836270    2.614597    1.870227
     36          6           0       28.253888    1.355143    1.326930
     37          6           0       28.879782    4.975385    2.036071
     38          6           0       26.497196    2.423046    2.405844
     39          8           0       25.784596    3.206357    3.045658
     40          6           0       26.156156    0.964705    2.182803
     41          6           0       25.956451    0.331905    3.555656
     42          8           0       26.855088    0.347178    4.393749
     43          8           0       24.635848   -0.108338    3.734935
     44          6           0       24.367759   -0.686648    5.024509
     45          1           0       28.938956   -4.191898   -1.460634
     46          1           0       34.257173   -0.579664   -2.161815
     47          1           0       31.248707    4.365348    0.677152
     48          1           0       25.569640   -1.798280    1.141975
     49          1           0       26.495794   -3.660525   -0.716512
     50          1           0       26.963395   -4.906704    0.911696
     51          1           0       26.669871   -3.509882    2.052875
     52          1           0       28.341468   -3.993266    1.652663
     53          1           0       25.462035   -2.100965   -1.655457
     54          1           0       26.088004   -0.499245   -1.391935
     55          1           0       23.764436   -0.965103    0.332291
     56          1           0       23.235638   -1.483376   -1.240015
     57          1           0       31.269924   -5.113079   -4.166068
     58          1           0       30.019352   -5.063261   -2.921079
     59          1           0       31.600137   -5.731362   -2.581948
     60          1           0       35.128486   -1.582888   -3.674351
     61          1           0       35.988881   -3.130742   -3.770260
     62          1           0       35.585067   -2.623018   -2.237724
     63          1           0       34.779420    2.010628   -1.854557
     64          1           0       33.721789    3.541895    0.325497
     65          1           0       36.002931    0.955693   -0.221957
     66          1           0       34.534874    0.817420    0.872160
     67          1           0       35.397783    2.313135    0.688688
     68          1           0       32.412218    4.692333   -2.092651
     69          1           0       33.877124    3.854071   -2.461871
     70          1           0       34.968384    5.804025   -2.104715
     71          1           0       34.583683    5.610956   -0.404951
     72          1           0       33.407632    6.446023   -1.476789
     73          1           0       29.543914    5.461936    1.321203
     74          1           0       29.350447    5.028838    3.018172
     75          1           0       27.880088    5.403352    2.094924
     76          1           0       25.202409    1.025190    1.660331
     77          1           0       24.741688   -1.702747    5.153098
     78          1           0       23.299004   -0.719725    5.234219
     79          1           0       24.771122   -0.120543    5.863670
     80         12           0      -29.646669    0.555283   -0.699700
     81          6           0      -28.693847   -2.234714    1.252990
     82          6           0      -29.141934    2.531000    2.051820
     83          6           0      -31.145701    3.026158   -2.316952
     84          6           0      -30.567619   -1.664418   -3.244545
     85          7           0      -29.145699    0.157040    1.463303
     86          6           0      -28.690779   -1.061954    1.973051
     87          6           0      -28.037088   -0.842540    3.359697
     88          6           0      -28.213741    0.701175    3.600894
     89          6           0      -28.844592    1.223544    2.280423
     90          6           0      -28.836851    1.130132    4.917798
     91          6           0      -26.581998   -1.311675    3.514210
     92          6           0      -26.358867   -2.294168    4.696583
     93          1           0      -25.312264   -1.872499    5.703952
     94          7           0      -29.995949    2.539000   -0.202620
     95          6           0      -29.759327    3.182975    0.976247
     96          6           0      -30.029394    4.586104    0.771131
     97          6           0      -30.768837    4.727005   -0.480275
     98          6           0      -30.660293    3.378845   -1.016294
     99          6           0      -29.807499    5.691146    1.928790
    100          6           0      -31.663685    5.780295   -0.975304
    101          8           0      -32.231498    5.818774   -2.029515
    102          6           0      -31.903743    6.950584   -0.026190
    103          7           0      -30.901568    0.596679   -2.458976
    104          6           0      -31.343920    1.773068   -2.944397
    105          6           0      -31.872702    1.605603   -4.370815
    106          6           0      -31.353119    0.213540   -4.764418
    107          6           0      -30.869905   -0.332315   -3.439309
    108          6           0      -33.467063    1.692765   -4.416019
    109          6           0      -30.112103    0.398957   -5.777843
    110          6           0      -28.794140    0.918706   -5.141399
    111          7           0      -29.560186   -1.525015   -1.080371
    112          6           0      -29.953625   -2.247864   -2.141455
    113          6           0      -29.660755   -3.630668   -1.875735
    114          6           0      -29.130159   -3.659033   -0.599689
    115          6           0      -29.136516   -2.354610   -0.098062
    116          6           0      -29.892507   -4.844595   -2.755197
    117          6           0      -28.648873   -4.616427    0.399840
    118          8           0      -28.569899   -5.804249    0.540580
    119          6           0      -28.270765   -3.729322    1.615353
    120          6           0      -29.088836   -4.234247    2.745918
    121          8           0      -30.288569   -4.318722    2.665556
    122          8           0      -28.334344   -4.665271    3.825216
    123          6           0      -29.061493   -5.457748    4.872585
    124          1           0      -28.781390    3.170825    2.860109
    125          1           0      -31.544524    3.827868   -2.942600
    126          1           0      -30.622701   -2.397713   -4.051861
    127          1           0      -28.656086   -1.325119    4.116329
    128          1           0      -27.220836    1.137077    3.713197
    129          1           0      -29.343448    0.297480    5.403558
    130          1           0      -29.525809    1.970046    4.824964
    131          1           0      -28.002234    1.380779    5.572058
    132          1           0      -25.818729   -0.557756    3.706969
    133          1           0      -26.234984   -1.797676    2.602633
    134          1           0      -26.209750   -3.315016    4.344977
    135          1           0      -27.280989   -2.322395    5.275699
    136          1           0      -29.266249    6.528738    1.488941
    137          1           0      -29.198213    5.384324    2.778086
    138          1           0      -30.678011    6.073735    2.461593
    139          1           0      -30.909881    7.382565    0.093304
    140          1           0      -32.271689    6.491285    0.890741
    141          1           0      -32.546769    7.736158   -0.424251
    142          1           0      -31.438980    2.309345   -5.082055
    143          1           0      -32.036644   -0.538474   -5.159213
    144          1           0      -33.733396    2.078047   -5.400610
    145          1           0      -33.975402    2.337624   -3.698388
    146          1           0      -33.789129    0.655232   -4.328497
    147          1           0      -30.353374    1.035998   -6.628540
    148          1           0      -29.773728   -0.579092   -6.120205
    149          1           0      -28.014864    1.205607   -5.846662
    150          1           0      -28.389227    0.114553   -4.526794
    151          1           0      -29.051622    1.758251   -4.494844
    152          1           0      -29.329122   -4.838105   -3.688010
    153          1           0      -30.954761   -4.788296   -2.991559
    154          1           0      -29.756010   -5.784402   -2.220221
    155          1           0      -27.223157   -3.976704    1.785940
    156          1           0      -28.642430   -4.981132    5.758769
    157          1           0      -28.799780   -6.515682    4.866221
    158          1           0      -30.150671   -5.455246    4.906673
 ---------------------------------------------------------------------

 SCF Done:  E(RCAM-B3LYP) =  -4069.82452061     A.U. after   19 cycles

 Excitation energies and oscillator strengths:

 Excited State   1:      Singlet-A      1.7037 eV  727.75 nm  f=0.3982  <S**2>=0.000
     310 -> 316        0.17557
     311 -> 313        0.68731
     310 <- 316        0.10763
 This state for optimization and/or second-order correction.
 Total Energy, E(TD-HF/TD-DFT) =  -4069.76191186
 Copying the excited state density for this state as the 1-particle RhoCI density.

 Excited State   2:      Singlet-A      1.7237 eV  719.29 nm  f=0.3664  <S**2>=0.000
     309 -> 315        0.19172
     312 -> 314        0.68303
     309 <- 315        0.11116

 Excited State   3:      Singlet-A      2.1918 eV  565.68 nm  f=0.1391  <S**2>=0.000
     310 -> 313        0.65684
     311 -> 316       -0.24837

 Excited State   4:      Singlet-A      2.2830 eV  543.07 nm  f=0.0523  <S**2>=0.000
     309 -> 314        0.60481
     312 -> 315       -0.35603

 Excited State   5:      Singlet-A      3.0633 eV  404.74 nm  f=0.0000  <S**2>=0.000
     312 -> 313        0.70711

 The electronic state is 1-A.
 Alpha  occ. eigenvalues --  -46.89556 -46.88707 -19.26045 -19.25154 -19.20600
 Alpha  occ. eigenvalues --  -19.19618 -19.19290 -19.19111 -19.18781 -19.18412
 Alpha  occ. eigenvalues --  -14.42157 -14.42123 -14.42098 -14.41934 -14.39784
 Alpha  occ. eigenvalues --  -14.39404 -14.39369 -14.39242 -10.40270 -10.38805
 Alpha  occ. eigenvalues --  -10.35167 -10.35073 -10.34586 -10.34387 -10.31819
 Alpha  occ. eigenvalues --  -10.31540 -10.31527 -10.31154 -10.31148 -10.30855
 Alpha  occ. eigenvalues --  -10.30787 -10.30771 -10.30767 -10.30676 -10.30570
 Alpha  occ. eigenvalues --  -10.30252 -10.29975 -10.29812 -10.29640 -10.29558
 Alpha  occ. eigenvalues --  -10.29365 -10.29314 -10.29173 -10.28688 -10.28634
 Alpha  occ. eigenvalues --  -10.28431 -10.28198 -10.28181 -10.28097 -10.28043
 Alpha  occ. eigenvalues --  -10.28038 -10.28009 -10.27908 -10.27903 -10.27895
 Alpha  occ. eigenvalues --  -10.27838 -10.27835 -10.27777 -10.27563 -10.27520
 Alpha  occ. eigenvalues --  -10.27405 -10.27275 -10.27042 -10.27000 -10.26948
 Alpha  occ. eigenvalues --  -10.26919 -10.26894 -10.26884 -10.26871 -10.26659
 Alpha  occ. eigenvalues --  -10.26565 -10.26521 -10.26454 -10.26285 -10.26252
 Alpha  occ. eigenvalues --  -10.26249 -10.26186 -10.26019 -10.25975 -10.25967
 Alpha  occ. eigenvalues --  -10.25714 -10.25621 -10.25527 -10.25156 -10.25074
 Alpha  occ. eigenvalues --  -10.25054  -3.17958  -3.17316  -1.92841  -1.92427
 Alpha  occ. eigenvalues --   -1.92252  -1.92191  -1.91787  -1.91616  -1.15985
 Alpha  occ. eigenvalues --   -1.15701  -1.11929  -1.11682  -1.11080  -1.09125
 Alpha  occ. eigenvalues --   -1.08243  -1.07633  -1.05199  -1.04803  -1.04302
 Alpha  occ. eigenvalues --   -1.04295  -1.03846  -1.02879  -1.02095  -1.02010
 Alpha  occ. eigenvalues --   -0.93067  -0.92373  -0.89172  -0.88992  -0.88891
 Alpha  occ. eigenvalues --   -0.88824  -0.88528  -0.88231  -0.87754  -0.87634
 Alpha  occ. eigenvalues --   -0.87126  -0.86556  -0.86343  -0.85018  -0.84628
 Alpha  occ. eigenvalues --   -0.84424  -0.84257  -0.83510  -0.82607  -0.82541
 Alpha  occ. eigenvalues --   -0.82519  -0.81223  -0.81058  -0.80876  -0.80876
 Alpha  occ. eigenvalues --   -0.80179  -0.78391  -0.78023  -0.77433  -0.77248
 Alpha  occ. eigenvalues --   -0.76775  -0.76420  -0.76333  -0.76177  -0.75236
 Alpha  occ. eigenvalues --   -0.75127  -0.73116  -0.72908  -0.72143  -0.71777
 Alpha  occ. eigenvalues --   -0.69379  -0.69210  -0.69050  -0.68639  -0.68176
 Alpha  occ. eigenvalues --   -0.68090  -0.67313  -0.66796  -0.65892  -0.65619
 Alpha  occ. eigenvalues --   -0.65496  -0.65334  -0.65169  -0.64886  -0.64477
 Alpha  occ. eigenvalues --   -0.64453  -0.62741  -0.62291  -0.60425  -0.60270
 Alpha  occ. eigenvalues --   -0.60068  -0.59732  -0.59297  -0.59139  -0.58909
 Alpha  occ. eigenvalues --   -0.58764  -0.58520  -0.58138  -0.57700  -0.57549
 Alpha  occ. eigenvalues --   -0.56258  -0.56094  -0.55999  -0.55382  -0.55310
 Alpha  occ. eigenvalues --   -0.55236  -0.54996  -0.54590  -0.54209  -0.53971
 Alpha  occ. eigenvalues --   -0.53560  -0.53438  -0.53216  -0.53018  -0.52955
 Alpha  occ. eigenvalues --   -0.52803  -0.52699  -0.52684  -0.52452  -0.52210
 Alpha  occ. eigenvalues --   -0.52140  -0.51898  -0.51767  -0.51506  -0.51273
 Alpha  occ. eigenvalues --   -0.51033  -0.50912  -0.50776  -0.50479  -0.50159
 Alpha  occ. eigenvalues --   -0.50044  -0.49846  -0.49810  -0.49666  -0.49519
 Alpha  occ. eigenvalues --   -0.49394  -0.49332  -0.49317  -0.49103  -0.49046
 Alpha  occ. eigenvalues --   -0.48702  -0.48419  -0.48356  -0.48301  -0.48109
 Alpha  occ. eigenvalues --   -0.47952  -0.47588  -0.47535  -0.47482  -0.47145
 Alpha  occ. eigenvalues --   -0.47020  -0.46612  -0.46444  -0.46367  -0.46312
 Alpha  occ. eigenvalues --   -0.46156  -0.46145  -0.46111  -0.45987  -0.45909
 Alpha  occ. eigenvalues --   -0.45607  -0.45445  -0.45360  -0.45319  -0.45115
 Alpha  occ. eigenvalues --   -0.44530  -0.44460  -0.44327  -0.44174  -0.44068
 Alpha  occ. eigenvalues --   -0.43876  -0.43698  -0.43580  -0.43398  -0.43343
 Alpha  occ. eigenvalues --   -0.43313  -0.43085  -0.43068  -0.42911  -0.42597
 Alpha  occ. eigenvalues --   -0.42449  -0.42424  -0.42322  -0.42155  -0.42084
 Alpha  occ. eigenvalues --   -0.41999  -0.41987  -0.41748  -0.41613  -0.41475
 Alpha  occ. eigenvalues --   -0.41381  -0.41097  -0.40935  -0.40887  -0.40739
 Alpha  occ. eigenvalues --   -0.40393  -0.40328  -0.40054  -0.39745  -0.39095
 Alpha  occ. eigenvalues --   -0.38986  -0.38339  -0.38077  -0.38008  -0.37851
 Alpha  occ. eigenvalues --   -0.37484  -0.37163  -0.37035  -0.36704  -0.36545
 Alpha  occ. eigenvalues --   -0.36375  -0.36247  -0.34866  -0.34730  -0.34415
 Alpha  occ. eigenvalues --   -0.34094  -0.33501  -0.33409  -0.31629  -0.31424
 Alpha  occ. eigenvalues --   -0.31232  -0.31230  -0.30965  -0.30403  -0.30313
 Alpha  occ. eigenvalues --   -0.30167  -0.30163  -0.29670  -0.24412  -0.24189
 Alpha  occ. eigenvalues --   -0.21593  -0.21013
 Alpha virt. eigenvalues --   -0.09184  -0.08337  -0.02245  -0.01441   0.00481
 Alpha virt. eigenvalues --    0.00546   0.01675   0.01811   0.02499   0.02723
 Alpha virt. eigenvalues --    0.04182   0.04995   0.05297   0.05660   0.05856

 Mulliken charges:
               1
     1  Mg   0.819041
     2  C   -0.027519
     3  C   -0.090349
     4  C   -0.046303
     5  C   -0.087359
     6  N   -0.261358
     7  C   -0.073441
     8  C   -0.067302
     9  C   -0.064266
    10  C    0.017936
    11  C    0.108024
    12  C    0.065031
    13  C   -0.081516
    14  H    0.029379
    15  N   -0.432486
    16  C    0.196342
    17  C   -0.155243
    18  C   -0.066217
    19  C    0.129226
    20  C    0.128365
    21  C    0.011635
    22  O   -0.165209
    23  C    0.046950
    24  N   -0.260879
    25  C    0.045624
    26  C   -0.043787
    27  C   -0.029934
    28  C    0.049922
    29  C    0.066780
    30  C    0.022707
    31  C    0.021380
    32  N   -0.342421
    33  C    0.111613
    34  C   -0.193836
    35  C    0.033642
    36  C    0.152514
    37  C    0.142366
    38  C    0.016919
    39  O   -0.185167
    40  C    0.043549
    41  C    0.222884
    42  O   -0.215996
    43  O   -0.330703
    44  C    0.180773
    45  H   -0.024256
    46  H   -0.052550
    47  H   -0.027317
    48  H   -0.005476
    49  H   -0.002408
    50  H    0.020560
    51  H    0.016879
    52  H    0.032979
    53  H    0.008333
    54  H    0.031377
    55  H    0.028579
    56  H    0.035469
    57  H    0.032233
    58  H   -0.009172
    59  H    0.027825
    60  H    0.050343
    61  H    0.014691
    62  H    0.046906
    63  H    0.006570
    64  H    0.001279
    65  H    0.023844
    66  H    0.019668
    67  H    0.008317
    68  H    0.019309
    69  H   -0.007795
    70  H    0.021970
    71  H    0.005696
    72  H    0.020185
    73  H    0.016090
    74  H    0.034084
    75  H    0.041568
    76  H    0.030804
    77  H    0.024053
    78  H    0.031495
    79  H    0.036555
    80  Mg   0.813079
    81  C   -0.023655
    82  C   -0.077257
    83  C   -0.062021
    84  C   -0.064318
    85  N   -0.302477
    86  C   -0.035113
    87  C    0.006897
    88  C   -0.058624
    89  C    0.050785
    90  C    0.068885
    91  C    0.056688
    92  C   -0.088699
    93  H    0.008350
    94  N   -0.363099
    95  C    0.161205
    96  C   -0.116982
    97  C   -0.041638
    98  C    0.130637
    99  C    0.062495
   100  C   -0.022267
   101  O   -0.176335
   102  C    0.054555
   103  N   -0.263237
   104  C    0.030060
   105  C   -0.035223
   106  C   -0.014426
   107  C    0.032479
   108  C    0.066529
   109  C    0.004395
   110  C   -0.014667
   111  N   -0.320755
   112  C    0.065143
   113  C   -0.162611
   114  C   -0.035080
   115  C    0.140059
   116  C    0.116966
   117  C    0.069099
   118  O   -0.136692
   119  C    0.003813
   120  C    0.181204
   121  O   -0.201510
   122  O   -0.351212
   123  C    0.165231
   124  H   -0.034084
   125  H   -0.000971
   126  H   -0.031192
   127  H    0.018634
   128  H    0.008124
   129  H    0.008572
   130  H    0.022445
   131  H    0.009358
   132  H    0.019156
   133  H    0.009141
   134  H    0.046117
   135  H    0.015642
   136  H    0.027191
   137  H    0.003890
   138  H    0.033298
   139  H    0.021870
   140  H    0.036832
   141  H    0.022628
   142  H    0.016584
   143  H    0.012836
   144  H    0.017351
   145  H    0.035560
   146  H    0.016225
   147  H    0.020201
   148  H    0.002067
   149  H    0.023669
   150  H    0.021703
   151  H    0.021066
   152  H    0.029128
   153  H    0.019752
   154  H    0.036351
   155  H    0.033836
   156  H    0.035894
   157  H    0.044045
   158  H    0.056421
 Sum of Mulliken charges =  -0.00000

 Dipole moment (field-independent basis, Debye):
    X=              4.5321    Y=              1.9813    Z=              0.4380  Tot=              4.9656
 Quadrupole moment (field-independent basis, Debye-Ang):
   XX=           -508.5042   YY=           -533.9868   ZZ=           -497.1764
   XY=            -20.7704   XZ=            -13.5000   YZ=             -9.2753

 Normal termination of Gaussian 16 at Thu Sep 16 12:20:24 2021.
