 Gaussian 16, Revision A.03,
 Gaussian 16:  ES64L-G16RevA.03 25-Dec-2016

 ----------------------------------------------------------
 #p cam-b3lyp/Def2SVP td=(nstates=5) density=(transition=1)
 ----------------------------------------------------------

 --------------------------------
 TDDFT excited states in gaussian
 --------------------------------
 Symbolic Z-matrix:
 Charge =  0 Multiplicity = 1

                         Standard orientation:
 ---------------------------------------------------------------------
 Center     Atomic      Atomic             Coordinates (Angstroms)
 Number     Number       Type             X           Y           Z
 ---------------------------------------------------------------------
      1         12           0      -17.769712   -0.855618    0.173791
      2          6           0      -17.764451    2.660185   -0.384040
      3          6           0      -16.695688   -0.261555    3.385666
      4          6           0      -17.774410   -4.145129    0.486808
      5          6           0      -18.398494   -1.348593   -3.330626
      6          7           0      -17.199964    1.040965    1.395761
      7          6           0      -17.401636    2.328047    0.932015
      8          6           0      -17.056679    3.279926    2.128258
      9          6           0      -16.658642    2.319337    3.371571
     10          6           0      -16.845998    0.966086    2.678103
     11          6           0      -15.281702    2.579155    4.017337
     12          6           0      -18.103758    4.419766    2.467641
     13          6           0      -17.577959    5.824518    2.408851
     14          1           0      -16.138330    6.188565    2.659329
     15          7           0      -17.402349   -2.088184    1.834607
     16          6           0      -16.966701   -1.640744    3.042002
     17          6           0      -16.994690   -2.783299    3.918551
     18          6           0      -17.197329   -3.914398    3.098689
     19          6           0      -17.457250   -3.449070    1.697529
     20          6           0      -16.649906   -2.618924    5.408372
     21          6           0      -17.047714   -5.353403    3.489913
     22          8           0      -17.136955   -6.275754    2.645191
     23          6           0      -16.729604   -5.695107    4.898276
     24          7           0      -17.996481   -2.498002   -1.305840
     25          6           0      -18.032864   -3.716459   -0.891505
     26          6           0      -18.381466   -4.856179   -1.989997
     27          6           0      -18.557200   -3.936867   -3.208248
     28          6           0      -18.321008   -2.561795   -2.633122
     29          6           0      -17.190811   -5.879243   -2.083913
     30          6           0      -19.926478   -4.023276   -3.969754
     31          6           0      -21.155468   -3.412889   -3.255095
     32          7           0      -17.897266    0.345653   -1.475959
     33          6           0      -18.129552   -0.023484   -2.821841
     34          6           0      -18.282043    1.209911   -3.605556
     35          6           0      -18.154982    2.280830   -2.688578
     36          6           0      -17.962853    1.702226   -1.388571
     37          6           0      -18.572081    1.279287   -5.134827
     38          6           0      -18.193072    3.644896   -2.622185
     39          8           0      -18.308510    4.501429   -3.474954
     40          6           0      -18.004765    4.009975   -1.123207
     41          6           0      -16.908785    4.944927   -1.014496
     42          8           0      -15.720331    4.627951   -0.890898
     43          8           0      -17.360933    6.237401   -1.305910
     44          6           0      -16.283378    7.252274   -1.410758
     45          1           0      -16.127664   -0.228937    4.318138
     46          1           0      -17.611220   -5.221732    0.569950
     47          1           0      -18.593616   -1.441778   -4.400954
     48          1           0      -16.236456    3.821246    1.658537
     49          1           0      -17.353462    2.500918    4.190338
     50          1           0      -15.386405    2.761615    5.087610
     51          1           0      -14.680683    3.380174    3.587270
     52          1           0      -14.738453    1.648723    3.852161
     53          1           0      -18.538178    4.245910    3.452293
     54          1           0      -18.864939    4.348551    1.690665
     55          1           0      -17.965539    6.332445    3.292682
     56          1           0      -17.905674    6.262739    1.466824
     57          1           0      -16.709061   -1.579311    5.731381
     58          1           0      -15.646773   -2.999360    5.596645
     59          1           0      -17.397255   -3.219335    5.926102
     60          1           0      -17.523968   -5.271309    5.512702
     61          1           0      -15.796434   -5.230776    5.219468
     62          1           0      -16.595950   -6.770121    5.012127
     63          1           0      -19.314635   -5.366469   -1.750186
     64          1           0      -17.700486   -4.047393   -3.873418
     65          1           0      -16.274338   -5.344993   -1.833556
     66          1           0      -17.106276   -6.205597   -3.121070
     67          1           0      -17.233333   -6.773067   -1.460988
     68          1           0      -20.084474   -5.039201   -4.330358
     69          1           0      -19.802382   -3.503724   -4.919379
     70          1           0      -21.165282   -3.461972   -2.166759
     71          1           0      -22.053063   -3.845625   -3.698316
     72          1           0      -21.169346   -2.368725   -3.567166
     73          1           0      -19.400337    1.942536   -5.384425
     74          1           0      -18.742088    0.302452   -5.586182
     75          1           0      -17.791930    1.870197   -5.615371
     76          1           0      -18.954262    4.494259   -0.897497
     77          1           0      -15.678358    7.078210   -2.300197
     78          1           0      -15.574674    7.245291   -0.583429
     79          1           0      -16.766256    8.223044   -1.297485
     80         12           0       17.868877   -0.581550    0.138719
     81          6           0       16.026901    2.332970    0.566701
     82          6           0       20.709068    1.343197    0.181286
     83          6           0       19.697320   -3.427684   -0.547732
     84          6           0       14.951466   -2.393368   -0.458445
     85          7           0       18.294080    1.574520    0.448207
     86          6           0       17.422673    2.562903    0.712742
     87          6           0       18.069906    3.917556    1.083734
     88          6           0       19.589645    3.635812    0.716472
     89          6           0       19.564087    2.069478    0.374089
     90          6           0       20.012390    4.574255   -0.469521
     91          6           0       17.791629    4.159871    2.655387
     92          6           0       17.120576    5.510448    3.042983
     93          1           0       17.273464    6.636170    1.957111
     94          7           0       19.891904   -1.022814   -0.220859
     95          6           0       20.923256   -0.073631   -0.065730
     96          6           0       22.196198   -0.761530   -0.102310
     97          6           0       21.937299   -2.113694   -0.359881
     98          6           0       20.436789   -2.273801   -0.310822
     99          6           0       23.517960    0.014725   -0.189206
    100          6           0       22.961427   -3.254228   -0.601210
    101          8           0       22.669850   -4.444795   -0.820618
    102          6           0       24.458981   -2.920182   -0.489953
    103          7           0       17.341866   -2.589287   -0.498643
    104          6           0       18.343647   -3.595343   -0.653281
    105          6           0       17.718801   -4.894223   -1.204004
    106          6           0       16.172271   -4.627172   -0.894313
    107          6           0       16.150199   -3.114554   -0.550935
    108          6           0       18.131707   -5.080131   -2.654755
    109          6           0       15.669680   -5.486467    0.341432
    110          6           0       16.350460   -5.526991    1.751923
    111          7           0       15.912736   -0.159150   -0.016771
    112          6           0       14.811687   -0.979453   -0.281198
    113          6           0       13.622259   -0.192819   -0.230134
    114          6           0       14.026718    1.078620    0.134722
    115          6           0       15.443196    1.099303    0.157189
    116          6           0       12.211639   -0.633772   -0.563419
    117          6           0       13.557967    2.373237    0.434501
    118          8           0       12.438921    2.769495    0.355745
    119          6           0       14.856002    3.265086    0.611026
    120          6           0       14.853462    4.233098   -0.539683
    121          8           0       15.590037    4.147565   -1.500014
    122          8           0       13.890879    5.132581   -0.304349
    123          6           0       13.474547    5.834158   -1.493922
    124          1           0       21.622571    1.933832    0.274221
    125          1           0       20.270113   -4.243441   -0.992225
    126          1           0       14.028727   -2.944382   -0.654500
    127          1           0       17.669542    4.782477    0.555196
    128          1           0       20.291805    3.765089    1.540419
    129          1           0       20.601895    4.094699   -1.251296
    130          1           0       20.593333    5.301279    0.097260
    131          1           0       19.106874    5.076747   -0.808749
    132          1           0       18.727069    3.964990    3.179442
    133          1           0       17.131494    3.355414    2.980614
    134          1           0       17.660501    5.751959    3.957903
    135          1           0       16.058997    5.446099    3.279911
    136          1           0       24.030090   -0.328662   -1.088399
    137          1           0       24.157306   -0.267506    0.648344
    138          1           0       23.318919    1.085908   -0.198731
    139          1           0       24.717953   -2.340079   -1.376648
    140          1           0       24.978775   -3.871554   -0.601872
    141          1           0       24.679818   -2.567423    0.517168
    142          1           0       18.056923   -5.672523   -0.519262
    143          1           0       15.563465   -4.973864   -1.728552
    144          1           0       19.098641   -4.632770   -2.885569
    145          1           0       17.390453   -4.642919   -3.323312
    146          1           0       18.265214   -6.136706   -2.886064
    147          1           0       15.548058   -6.514235   -0.000769
    148          1           0       14.705177   -5.030793    0.565620
    149          1           0       17.114441   -6.304467    1.739030
    150          1           0       15.552265   -5.785681    2.448655
    151          1           0       16.716934   -4.574675    2.136520
    152          1           0       11.871559   -1.448112    0.076598
    153          1           0       12.288591   -0.989854   -1.590536
    154          1           0       11.427764    0.098298   -0.364213
    155          1           0       14.934890    3.875535    1.510778
    156          1           0       12.428504    6.139516   -1.483887
    157          1           0       13.727858    5.472447   -2.490366
    158          1           0       13.971892    6.795223   -1.626477
 ---------------------------------------------------------------------

 SCF Done:  E(RCAM-B3LYP) =  -4069.81295295     A.U. after   19 cycles

 Excitation energies and oscillator strengths:

 Excited State   1:      Singlet-A      1.7043 eV  727.46 nm  f=0.3914  <S**2>=0.000
     310 -> 316       -0.17575
     312 -> 313        0.68646
     310 <- 316       -0.10652
 This state for optimization and/or second-order correction.
 Total Energy, E(TD-HF/TD-DFT) =  -4069.75031974
 Copying the excited state density for this state as the 1-particle RhoCI density.

 Excited State   2:      Singlet-A      1.7536 eV  707.03 nm  f=0.3725  <S**2>=0.000
     309 -> 315        0.18838
     311 -> 314        0.68193
     309 <- 315        0.10758

 Excited State   3:      Singlet-A      2.2093 eV  561.19 nm  f=0.1059  <S**2>=0.000
     309 -> 314        0.64203
     311 -> 315       -0.28087

 Excited State   4:      Singlet-A      2.2267 eV  556.80 nm  f=0.1292  <S**2>=0.000
     310 -> 313        0.64624
     312 -> 316        0.27556

 Excited State   5:      Singlet-A      3.1214 eV  397.21 nm  f=0.0000  <S**2>=0.000
     312 -> 314        0.70710

 The electronic state is 1-A.
 Alpha  occ. eigenvalues --  -46.89801 -46.88057 -19.26127 -19.24251 -19.20041
 Alpha  occ. eigenvalues --  -19.19337 -19.19276 -19.18757 -19.18593 -19.17509
 Alpha  occ. eigenvalues --  -14.42659 -14.42222 -14.41866 -14.41412 -14.39748
 Alpha  occ. eigenvalues --  -14.39661 -14.39534 -14.39037 -10.39300 -10.38594
 Alpha  occ. eigenvalues --  -10.35101 -10.35051 -10.34805 -10.33284 -10.31887
 Alpha  occ. eigenvalues --  -10.31702 -10.31578 -10.31401 -10.31325 -10.31084
 Alpha  occ. eigenvalues --  -10.30881 -10.30771 -10.30645 -10.30326 -10.30185
 Alpha  occ. eigenvalues --  -10.30134 -10.29879 -10.29838 -10.29807 -10.29639
 Alpha  occ. eigenvalues --  -10.29614 -10.29344 -10.28861 -10.28809 -10.28760
 Alpha  occ. eigenvalues --  -10.28498 -10.28377 -10.28360 -10.28120 -10.28115
 Alpha  occ. eigenvalues --  -10.28088 -10.28042 -10.27972 -10.27965 -10.27963
 Alpha  occ. eigenvalues --  -10.27934 -10.27834 -10.27673 -10.27644 -10.27639
 Alpha  occ. eigenvalues --  -10.27572 -10.27389 -10.27319 -10.27212 -10.27119
 Alpha  occ. eigenvalues --  -10.27045 -10.27009 -10.26988 -10.26710 -10.26692
 Alpha  occ. eigenvalues --  -10.26665 -10.26583 -10.26510 -10.26340 -10.26313
 Alpha  occ. eigenvalues --  -10.26229 -10.25985 -10.25956 -10.25856 -10.25793
 Alpha  occ. eigenvalues --  -10.25768 -10.25590 -10.25237 -10.25182 -10.24659
 Alpha  occ. eigenvalues --  -10.23880  -3.18137  -3.16659  -1.93051  -1.92627
 Alpha  occ. eigenvalues --   -1.92393  -1.91559  -1.91093  -1.90981  -1.18133
 Alpha  occ. eigenvalues --   -1.14337  -1.11992  -1.09230  -1.09057  -1.08448
 Alpha  occ. eigenvalues --   -1.08313  -1.06294  -1.06094  -1.04132  -1.03682
 Alpha  occ. eigenvalues --   -1.03297  -1.03016  -1.02688  -1.01686  -1.01141
 Alpha  occ. eigenvalues --   -0.92776  -0.92265  -0.89732  -0.88512  -0.88268
 Alpha  occ. eigenvalues --   -0.88110  -0.87809  -0.87733  -0.87236  -0.87056
 Alpha  occ. eigenvalues --   -0.86775  -0.86477  -0.85995  -0.85460  -0.84305
 Alpha  occ. eigenvalues --   -0.83909  -0.83377  -0.83356  -0.82522  -0.82264
 Alpha  occ. eigenvalues --   -0.82208  -0.81175  -0.80887  -0.80657  -0.80031
 Alpha  occ. eigenvalues --   -0.79914  -0.78306  -0.77692  -0.77562  -0.77087
 Alpha  occ. eigenvalues --   -0.76712  -0.76426  -0.75836  -0.75713  -0.74961
 Alpha  occ. eigenvalues --   -0.74936  -0.72936  -0.72506  -0.71541  -0.71160
 Alpha  occ. eigenvalues --   -0.70450  -0.69020  -0.68870  -0.68623  -0.67950
 Alpha  occ. eigenvalues --   -0.67822  -0.66897  -0.66347  -0.65830  -0.65299
 Alpha  occ. eigenvalues --   -0.64889  -0.64626  -0.64525  -0.64457  -0.64218
 Alpha  occ. eigenvalues --   -0.63917  -0.62362  -0.61400  -0.60211  -0.59976
 Alpha  occ. eigenvalues --   -0.59486  -0.59379  -0.58937  -0.58588  -0.58395
 Alpha  occ. eigenvalues --   -0.58113  -0.57977  -0.57922  -0.57507  -0.57231
 Alpha  occ. eigenvalues --   -0.56264  -0.56241  -0.56004  -0.55659  -0.55253
 Alpha  occ. eigenvalues --   -0.54933  -0.54879  -0.54363  -0.53947  -0.53577
 Alpha  occ. eigenvalues --   -0.53345  -0.53223  -0.53102  -0.52998  -0.52821
 Alpha  occ. eigenvalues --   -0.52609  -0.52568  -0.52187  -0.52006  -0.51972
 Alpha  occ. eigenvalues --   -0.51832  -0.51713  -0.51535  -0.51271  -0.50933
 Alpha  occ. eigenvalues --   -0.50790  -0.50592  -0.50438  -0.49881  -0.49833
 Alpha  occ. eigenvalues --   -0.49790  -0.49492  -0.49486  -0.49230  -0.49197
 Alpha  occ. eigenvalues --   -0.49144  -0.48937  -0.48844  -0.48821  -0.48573
 Alpha  occ. eigenvalues --   -0.48555  -0.48308  -0.47962  -0.47925  -0.47911
 Alpha  occ. eigenvalues --   -0.47715  -0.47489  -0.47456  -0.47296  -0.47108
 Alpha  occ. eigenvalues --   -0.46719  -0.46632  -0.46593  -0.46497  -0.46245
 Alpha  occ. eigenvalues --   -0.46148  -0.46145  -0.45804  -0.45702  -0.45552
 Alpha  occ. eigenvalues --   -0.45469  -0.45159  -0.44912  -0.44912  -0.44611
 Alpha  occ. eigenvalues --   -0.44579  -0.44527  -0.44299  -0.44205  -0.43762
 Alpha  occ. eigenvalues --   -0.43729  -0.43729  -0.43580  -0.43427  -0.43387
 Alpha  occ. eigenvalues --   -0.43185  -0.43029  -0.42990  -0.42705  -0.42631
 Alpha  occ. eigenvalues --   -0.42459  -0.42358  -0.42346  -0.41903  -0.41846
 Alpha  occ. eigenvalues --   -0.41805  -0.41728  -0.41563  -0.41357  -0.41295
 Alpha  occ. eigenvalues --   -0.41238  -0.41125  -0.40785  -0.40653  -0.40571
 Alpha  occ. eigenvalues --   -0.40255  -0.40101  -0.39759  -0.39539  -0.39126
 Alpha  occ. eigenvalues --   -0.39100  -0.37657  -0.37437  -0.37069  -0.37038
 Alpha  occ. eigenvalues --   -0.36924  -0.36611  -0.36441  -0.36347  -0.36092
 Alpha  occ. eigenvalues --   -0.36079  -0.35476  -0.34777  -0.34071  -0.33917
 Alpha  occ. eigenvalues --   -0.33653  -0.33029  -0.32642  -0.31622  -0.31297
 Alpha  occ. eigenvalues --   -0.31189  -0.30937  -0.30422  -0.30311  -0.30245
 Alpha  occ. eigenvalues --   -0.29945  -0.29562  -0.29539  -0.23773  -0.23744
 Alpha  occ. eigenvalues --   -0.21226  -0.20953
 Alpha virt. eigenvalues --   -0.08526  -0.08524  -0.01767  -0.01317   0.00159
 Alpha virt. eigenvalues --    0.00584   0.02341   0.02504   0.02584   0.02601
 Alpha virt. eigenvalues --    0.04555   0.05028   0.05556   0.06151   0.06232

 Mulliken charges:
               1
     1  Mg  12.000016
     2  C    6.000039
     3  C    5.999981
     4  C    5.999936
     5  C    6.000024
     6  N    7.000036
     7  C    5.999959
     8  C    6.000021
     9  C    5.999946
    10  C    6.000094
    11  C    5.999956
    12  C    6.000031
    13  C    5.999970
    14  H    1.000157
    15  N    6.999974
    16  C    6.000141
    17  C    6.000023
    18  C    6.000024
    19  C    6.000112
    20  C    5.999989
    21  C    6.000038
    22  O    8.000050
    23  C    5.999980
    24  N    6.999997
    25  C    6.000095
    26  C    5.999966
    27  C    6.000036
    28  C    5.999923
    29  C    5.999980
    30  C    6.000021
    31  C    6.000045
    32  N    6.999998
    33  C    5.999899
    34  C    5.999962
    35  C    5.999987
    36  C    5.999923
    37  C    6.000034
    38  C    5.999957
    39  O    7.999896
    40  C    6.000000
    41  C    5.999989
    42  O    8.000104
    43  O    7.999949
    44  C    5.999978
    45  H    1.000100
    46  H    0.999993
    47  H    0.999937
    48  H    1.000093
    49  H    0.999952
    50  H    0.999996
    51  H    1.000154
    52  H    1.000112
    53  H    0.999909
    54  H    0.999944
    55  H    0.999920
    56  H    0.999978
    57  H    1.000028
    58  H    1.000157
    59  H    0.999956
    60  H    0.999936
    61  H    1.000116
    62  H    1.000003
    63  H    0.999903
    64  H    1.000044
    65  H    1.000121
    66  H    1.000005
    67  H    0.999954
    68  H    0.999909
    69  H    0.999988
    70  H    0.999963
    71  H    0.999865
    72  H    1.000015
    73  H    0.999851
    74  H    0.999904
    75  H    1.000007
    76  H    0.999900
    77  H    1.000072
    78  H    1.000074
    79  H    0.999908
    80  Mg  11.997237
    81  C    6.022969
    82  C    5.982166
    83  C    5.973769
    84  C    6.002692
    85  N    7.006616
    86  C    5.967733
    87  C    6.010123
    88  C    5.990997
    89  C    6.030251
    90  C    5.996224
    91  C    6.004415
    92  C    6.002374
    93  H    0.995603
    94  N    6.991663
    95  C    6.051961
    96  C    6.015263
    97  C    6.017717
    98  C    6.044813
    99  C    5.996604
   100  C    6.012990
   101  O    8.030600
   102  C    5.993686
   103  N    6.989840
   104  C    6.036101
   105  C    5.991042
   106  C    6.011276
   107  C    5.975144
   108  C    5.995465
   109  C    6.007255
   110  C    5.995826
   111  N    7.008053
   112  C    5.962890
   113  C    5.969141
   114  C    5.999745
   115  C    5.962925
   116  C    6.000643
   117  C    5.983317
   118  O    7.971370
   119  C    5.998016
   120  C    5.998226
   121  O    7.990462
   122  O    8.000913
   123  C    6.005495
   124  H    1.011282
   125  H    1.004047
   126  H    0.987452
   127  H    0.999338
   128  H    1.000127
   129  H    0.995962
   130  H    1.005029
   131  H    1.013660
   132  H    0.987365
   133  H    1.004140
   134  H    0.995468
   135  H    1.003575
   136  H    1.017049
   137  H    1.018961
   138  H    1.018489
   139  H    1.008576
   140  H    1.015567
   141  H    1.007652
   142  H    0.998908
   143  H    0.996155
   144  H    0.991386
   145  H    1.012427
   146  H    1.005130
   147  H    0.990219
   148  H    1.006245
   149  H    0.991253
   150  H    1.001239
   151  H    0.998246
   152  H    0.979803
   153  H    0.982756
   154  H    0.985464
   155  H    0.988998
   156  H    0.997219
   157  H    0.996911
   158  H    0.992291
 Sum of Mulliken charges = 624.00000

 Dipole moment (field-independent basis, Debye):
    X=             10.7868    Y=             -2.1498    Z=             -0.3853  Tot=             11.0057
 Quadrupole moment (field-independent basis, Debye-Ang):
   XX=            387.3324   YY=             -0.4858   ZZ=             -0.5384
   XY=            -44.4401   XZ=            -10.5821   YZ=              0.8313

 Normal termination of Gaussian 16 at Wed Sep 22 07:36:06 2021.
