 Gaussian 16, Revision A.03,
 Gaussian 16:  ES64L-G16RevA.03 25-Dec-2016

 -----------------------------------
 #p cam-b3lyp/Def2SVP td=(nstates=5)
 -----------------------------------

 --------------------------------
 TDDFT excited states in gaussian
 --------------------------------
 Symbolic Z-matrix:
 Charge =  0 Multiplicity = 1

                         Standard orientation:
 ---------------------------------------------------------------------
 Center     Atomic      Atomic             Coordinates (Angstroms)
 Number     Number       Type             X           Y           Z
 ---------------------------------------------------------------------
      1         12           0      -23.867768    0.355071    0.196966
      2          6           0      -22.392453   -1.906308   -1.944446
      3          6           0      -22.630413    2.844821   -1.797311
      4          6           0      -25.058256    2.580499    2.440761
      5          6           0      -24.561736   -2.212930    2.435919
      6          7           0      -22.506111    0.372846   -1.621411
      7          6           0      -22.220816   -0.604923   -2.392173
      8          6           0      -21.476328   -0.238830   -3.777848
      9          6           0      -21.308613    1.312652   -3.532107
     10          6           0      -22.130429    1.564790   -2.180325
     11          6           0      -19.788371    1.807722   -3.285412
     12          6           0      -22.280449   -0.598707   -5.101550
     13          6           0      -21.451892   -0.985973   -6.377534
     14          1           0      -19.974863   -0.737479   -6.320435
     15          7           0      -23.920878    2.367853    0.278079
     16          6           0      -23.411715    3.292349   -0.716523
     17          6           0      -23.759659    4.639964   -0.278168
     18          6           0      -24.363734    4.587572    1.002768
     19          6           0      -24.513212    3.140304    1.276070
     20          6           0      -23.452557    5.754038   -1.212927
     21          6           0      -24.906807    5.708817    1.919364
     22          8           0      -25.311763    5.563861    3.034361
     23          6           0      -24.730655    7.138836    1.369740
     24          7           0      -24.613289    0.277329    2.231553
     25          6           0      -25.029861    1.278543    2.940292
     26          6           0      -25.318984    0.862774    4.410591
     27          6           0      -25.268902   -0.683513    4.374342
     28          6           0      -24.801953   -0.927725    2.920010
     29          6           0      -24.300000    1.501281    5.378308
     30          6           0      -26.633806   -1.334963    4.754895
     31          6           0      -27.014158   -1.224692    6.240275
     32          7           0      -23.559254   -1.683378    0.275903
     33          6           0      -23.995486   -2.600133    1.215851
     34          6           0      -23.642457   -3.901730    0.713220
     35          6           0      -22.958493   -3.734791   -0.528085
     36          6           0      -22.996139   -2.326648   -0.719162
     37          6           0      -23.879552   -5.125177    1.387322
     38          6           0      -22.353349   -4.350584   -1.665813
     39          8           0      -22.094650   -5.576762   -1.853276
     40          6           0      -21.861083   -3.153307   -2.568051
     41          6           0      -20.424000   -3.270573   -2.693856
     42          8           0      -19.617583   -2.876323   -1.851830
     43          8           0      -20.176788   -4.020038   -3.815780
     44          6           0      -18.764875   -4.442260   -3.931323
     45          1           0      -22.227107    3.660771   -2.399895
     46          1           0      -25.442691    3.356799    3.106630
     47          1           0      -24.865327   -2.989421    3.141803
     48          1           0      -20.511828   -0.738755   -3.685302
     49          1           0      -21.682056    1.870047   -4.390919
     50          1           0      -19.197041    0.940609   -2.989862
     51          1           0      -19.770261    2.555347   -2.492574
     52          1           0      -19.288555    2.276606   -4.133643
     53          1           0      -22.823430    0.319106   -5.325567
     54          1           0      -23.151299   -1.243554   -4.978758
     55          1           0      -21.800953   -0.504647   -7.291009
     56          1           0      -21.508689   -2.064939   -6.521729
     57          1           0      -22.420453    6.084112   -1.091545
     58          1           0      -24.203641    6.543907   -1.196186
     59          1           0      -23.555240    5.353891   -2.221330
     60          1           0      -25.415418    7.403731    0.563512
     61          1           0      -23.689997    7.115758    1.047903
     62          1           0      -24.782249    7.940470    2.105901
     63          1           0      -26.338514    1.218809    4.556632
     64          1           0      -24.471432   -1.037855    5.027435
     65          1           0      -23.339486    1.775329    4.941399
     66          1           0      -23.943501    0.901287    6.216234
     67          1           0      -24.791485    2.395404    5.761720
     68          1           0      -26.582762   -2.402080    4.543142
     69          1           0      -27.428954   -0.907873    4.142867
     70          1           0      -26.262390   -0.602922    6.726451
     71          1           0      -26.823075   -2.183180    6.723094
     72          1           0      -28.032822   -0.942505    6.505256
     73          1           0      -24.900641   -5.036933    1.758591
     74          1           0      -23.251288   -5.329299    2.254185
     75          1           0      -23.671655   -5.944779    0.698705
     76          1           0      -22.321314   -3.372301   -3.531908
     77          1           0      -18.588389   -5.131354   -3.104948
     78          1           0      -18.089549   -3.590430   -4.004288
     79          1           0      -18.671173   -5.000945   -4.862685
     80         12           0       23.539338    0.570144   -0.450872
     81          6           0       22.352996   -2.689857    0.110543
     82          6           0       20.323357    1.534327   -1.192466
     83          6           0       24.595860    3.696204   -0.212011
     84          6           0       26.762747   -0.499878    0.589575
     85          7           0       21.561822   -0.399450   -0.280521
     86          6           0       21.292906   -1.770499   -0.033510
     87          6           0       19.928373   -2.165154   -0.423794
     88          6           0       19.316238   -0.791962   -0.939971
     89          6           0       20.476259    0.185783   -0.837774
     90          6           0       18.631161   -0.928642   -2.321278
     91          6           0       19.066849   -2.641483    0.705726
     92          6           0       19.238644   -1.927639    2.054827
     93          1           0       18.011353   -1.677721    3.015288
     94          7           0       22.614107    2.413227   -0.704663
     95          6           0       21.342087    2.561719   -1.121289
     96          6           0       21.107204    3.960845   -1.376710
     97          6           0       22.347593    4.614764   -1.174541
     98          6           0       23.282293    3.579723   -0.704352
     99          6           0       19.787463    4.581235   -1.749088
    100          6           0       22.618374    6.101960   -1.400217
    101          8           0       21.736697    6.850003   -1.775106
    102          6           0       23.882549    6.853499   -1.104949
    103          7           0       25.317576    1.488756    0.348545
    104          6           0       25.540653    2.838397    0.284801
    105          6           0       27.045173    3.182735    0.538461
    106          6           0       27.599002    1.833388    1.088163
    107          6           0       26.515667    0.877537    0.638788
    108          6           0       27.843493    3.636375   -0.707576
    109          6           0       27.632027    1.683579    2.682175
    110          6           0       28.881140    1.144670    3.279619
    111          7           0       24.433236   -1.157790    0.102149
    112          6           0       25.728438   -1.442252    0.293854
    113          6           0       25.955926   -2.931674    0.172408
    114          6           0       24.618603   -3.425737    0.046260
    115          6           0       23.726002   -2.322183    0.156278
    116          6           0       27.242543   -3.743261    0.219400
    117          6           0       23.858625   -4.642306    0.036102
    118          8           0       24.221494   -5.806884    0.087361
    119          6           0       22.340849   -4.196275    0.046045
    120          6           0       21.758423   -4.645287    1.370162
    121          8           0       22.012209   -4.230208    2.452425
    122          8           0       20.769887   -5.569292    1.106087
    123          6           0       19.926168   -5.877186    2.265252
    124          1           0       19.349095    1.787941   -1.615044
    125          1           0       25.010298    4.702015   -0.298428
    126          1           0       27.806439   -0.767806    0.766641
    127          1           0       20.014625   -2.955150   -1.169821
    128          1           0       18.617320   -0.296314   -0.266293
    129          1           0       17.685672   -0.424117   -2.121474
    130          1           0       18.533348   -1.995464   -2.522658
    131          1           0       19.146859   -0.380048   -3.109692
    132          1           0       19.041993   -3.725924    0.816061
    133          1           0       17.995444   -2.520098    0.544660
    134          1           0       19.712772   -0.977282    1.807289
    135          1           0       20.004540   -2.536555    2.535487
    136          1           0       19.595236    5.477154   -1.157837
    137          1           0       18.994075    3.838174   -1.669418
    138          1           0       19.915234    4.862171   -2.794757
    139          1           0       24.150653    6.924178   -0.051293
    140          1           0       23.583160    7.870014   -1.360663
    141          1           0       24.685457    6.637685   -1.810644
    142          1           0       27.080496    3.991843    1.267868
    143          1           0       28.561357    1.552921    0.659232
    144          1           0       28.575718    2.865926   -0.948476
    145          1           0       28.170656    4.672607   -0.623789
    146          1           0       27.164222    3.669491   -1.558643
    147          1           0       26.783141    1.100249    3.038107
    148          1           0       27.480739    2.702307    3.039525
    149          1           0       29.315514    1.806399    4.028689
    150          1           0       29.645998    0.899248    2.542467
    151          1           0       28.701904    0.216992    3.822442
    152          1           0       27.132041   -4.445564    1.045650
    153          1           0       28.077454   -3.041455    0.223036
    154          1           0       27.230146   -4.357253   -0.681042
    155          1           0       21.784631   -4.602110   -0.798656
    156          1           0       19.833570   -5.041796    2.959125
    157          1           0       20.444796   -6.710210    2.739903
    158          1           0       19.011268   -6.306338    1.857633
 ---------------------------------------------------------------------

 SCF Done:  E(RCAM-B3LYP) =  -4069.81475182     A.U. after   18 cycles

 Excitation energies and oscillator strengths:

 Excited State   1:      Singlet-A      1.6651 eV  744.61 nm  f=0.3722  <S**2>=0.000
     309 -> 315        0.17252
     312 -> 313        0.68783
     309 <- 315        0.10780
 This state for optimization and/or second-order correction.
 Total Energy, E(TD-HF/TD-DFT) =  -4069.75356133
 Copying the excited state density for this state as the 1-particle RhoCI density.

 Excited State   2:      Singlet-A      1.7724 eV  699.51 nm  f=0.3832  <S**2>=0.000
     310 -> 316        0.19902
     311 -> 314        0.67935
     310 <- 316        0.10974

 Excited State   3:      Singlet-A      2.2144 eV  559.90 nm  f=0.1114  <S**2>=0.000
     310 -> 314        0.64302
     311 -> 316       -0.28129

 Excited State   4:      Singlet-A      2.2662 eV  547.11 nm  f=0.1011  <S**2>=0.000
     309 -> 313        0.62924
     312 -> 315       -0.31016

 Excited State   5:      Singlet-A      3.1879 eV  388.92 nm  f=0.0000  <S**2>=0.000
     311 -> 313        0.70710

 The electronic state is 1-A.
 Alpha  occ. eigenvalues --  -46.88579 -46.88381 -19.24781 -19.24601 -19.20424
 Alpha  occ. eigenvalues --  -19.20148 -19.19291 -19.19122 -19.18249 -19.18223
 Alpha  occ. eigenvalues --  -14.42374 -14.42203 -14.41884 -14.41522 -14.39661
 Alpha  occ. eigenvalues --  -14.39593 -14.39532 -14.38928 -10.39241 -10.38538
 Alpha  occ. eigenvalues --  -10.36257 -10.34990 -10.34744 -10.34605 -10.31823
 Alpha  occ. eigenvalues --  -10.31432 -10.31256 -10.31208 -10.30945 -10.30815
 Alpha  occ. eigenvalues --  -10.30666 -10.30656 -10.30653 -10.30581 -10.30467
 Alpha  occ. eigenvalues --  -10.30459 -10.30408 -10.30321 -10.29947 -10.29418
 Alpha  occ. eigenvalues --  -10.29316 -10.29199 -10.28972 -10.28913 -10.28906
 Alpha  occ. eigenvalues --  -10.28714 -10.28516 -10.28504 -10.28332 -10.28285
 Alpha  occ. eigenvalues --  -10.28171 -10.28122 -10.28077 -10.28047 -10.27819
 Alpha  occ. eigenvalues --  -10.27772 -10.27751 -10.27743 -10.27599 -10.27542
 Alpha  occ. eigenvalues --  -10.27433 -10.27160 -10.27122 -10.27087 -10.27040
 Alpha  occ. eigenvalues --  -10.26903 -10.26750 -10.26664 -10.26619 -10.26562
 Alpha  occ. eigenvalues --  -10.26546 -10.26507 -10.26486 -10.26389 -10.26259
 Alpha  occ. eigenvalues --  -10.26141 -10.25999 -10.25651 -10.25512 -10.25490
 Alpha  occ. eigenvalues --  -10.25379 -10.25369 -10.25313 -10.25128 -10.24636
 Alpha  occ. eigenvalues --  -10.24436  -3.17224  -3.16994  -1.92086  -1.91887
 Alpha  occ. eigenvalues --   -1.91684  -1.91543  -1.91455  -1.91297  -1.17262
 Alpha  occ. eigenvalues --   -1.15507  -1.12501  -1.10409  -1.09949  -1.08958
 Alpha  occ. eigenvalues --   -1.07210  -1.06732  -1.05369  -1.04582  -1.04300
 Alpha  occ. eigenvalues --   -1.03993  -1.03442  -1.03337  -1.02626  -1.00856
 Alpha  occ. eigenvalues --   -0.93182  -0.92508  -0.89866  -0.89430  -0.89305
 Alpha  occ. eigenvalues --   -0.88386  -0.88344  -0.87827  -0.87524  -0.87468
 Alpha  occ. eigenvalues --   -0.86946  -0.86840  -0.86334  -0.85805  -0.84744
 Alpha  occ. eigenvalues --   -0.84168  -0.83897  -0.83466  -0.82712  -0.82310
 Alpha  occ. eigenvalues --   -0.81724  -0.81690  -0.81035  -0.80875  -0.80514
 Alpha  occ. eigenvalues --   -0.80263  -0.78532  -0.77946  -0.77506  -0.77374
 Alpha  occ. eigenvalues --   -0.76847  -0.76369  -0.76045  -0.75738  -0.75135
 Alpha  occ. eigenvalues --   -0.74825  -0.72703  -0.72191  -0.71690  -0.71449
 Alpha  occ. eigenvalues --   -0.69629  -0.69398  -0.68809  -0.68776  -0.68684
 Alpha  occ. eigenvalues --   -0.68168  -0.67085  -0.66976  -0.65866  -0.65806
 Alpha  occ. eigenvalues --   -0.65392  -0.65079  -0.64739  -0.64538  -0.64378
 Alpha  occ. eigenvalues --   -0.64065  -0.62098  -0.61537  -0.60007  -0.60005
 Alpha  occ. eigenvalues --   -0.59415  -0.59353  -0.59117  -0.59064  -0.58941
 Alpha  occ. eigenvalues --   -0.58266  -0.58136  -0.57864  -0.57649  -0.57380
 Alpha  occ. eigenvalues --   -0.56561  -0.56103  -0.55976  -0.55704  -0.55418
 Alpha  occ. eigenvalues --   -0.55144  -0.55099  -0.54604  -0.54536  -0.54072
 Alpha  occ. eigenvalues --   -0.53960  -0.53338  -0.53138  -0.53041  -0.52936
 Alpha  occ. eigenvalues --   -0.52853  -0.52710  -0.52374  -0.52283  -0.52125
 Alpha  occ. eigenvalues --   -0.52054  -0.51892  -0.51617  -0.51421  -0.51357
 Alpha  occ. eigenvalues --   -0.51161  -0.51100  -0.50928  -0.50926  -0.50701
 Alpha  occ. eigenvalues --   -0.50369  -0.50133  -0.49604  -0.49417  -0.49403
 Alpha  occ. eigenvalues --   -0.49251  -0.49127  -0.48941  -0.48937  -0.48767
 Alpha  occ. eigenvalues --   -0.48599  -0.48514  -0.48447  -0.48364  -0.48178
 Alpha  occ. eigenvalues --   -0.47819  -0.47772  -0.47555  -0.47196  -0.47106
 Alpha  occ. eigenvalues --   -0.47020  -0.46904  -0.46781  -0.46613  -0.46437
 Alpha  occ. eigenvalues --   -0.46376  -0.46219  -0.46017  -0.46004  -0.45880
 Alpha  occ. eigenvalues --   -0.45588  -0.45502  -0.45227  -0.45105  -0.44842
 Alpha  occ. eigenvalues --   -0.44675  -0.44391  -0.44371  -0.44267  -0.44151
 Alpha  occ. eigenvalues --   -0.44048  -0.43902  -0.43724  -0.43599  -0.43506
 Alpha  occ. eigenvalues --   -0.43230  -0.43190  -0.42906  -0.42804  -0.42759
 Alpha  occ. eigenvalues --   -0.42650  -0.42522  -0.42380  -0.42250  -0.42198
 Alpha  occ. eigenvalues --   -0.42126  -0.41902  -0.41696  -0.41652  -0.41449
 Alpha  occ. eigenvalues --   -0.41172  -0.41118  -0.40772  -0.40638  -0.40399
 Alpha  occ. eigenvalues --   -0.40189  -0.39823  -0.39794  -0.39377  -0.39154
 Alpha  occ. eigenvalues --   -0.38453  -0.38203  -0.37966  -0.37878  -0.37603
 Alpha  occ. eigenvalues --   -0.37331  -0.37037  -0.36866  -0.36543  -0.36441
 Alpha  occ. eigenvalues --   -0.36305  -0.35762  -0.35102  -0.34294  -0.34228
 Alpha  occ. eigenvalues --   -0.33879  -0.33422  -0.33024  -0.31739  -0.31377
 Alpha  occ. eigenvalues --   -0.31182  -0.31100  -0.30538  -0.30369  -0.30130
 Alpha  occ. eigenvalues --   -0.29903  -0.29653  -0.29153  -0.24309  -0.23653
 Alpha  occ. eigenvalues --   -0.21225  -0.21046
 Alpha virt. eigenvalues --   -0.08779  -0.08406  -0.01788  -0.01678  -0.00018
 Alpha virt. eigenvalues --    0.00218   0.01379   0.02107   0.02524   0.02618
 Alpha virt. eigenvalues --    0.05055   0.05431   0.05482   0.05893   0.05954

 Mulliken charges:
               1
     1  Mg   0.834082
     2  C    0.046699
     3  C   -0.061059
     4  C   -0.071281
     5  C   -0.093684
     6  N   -0.207346
     7  C   -0.140044
     8  C    0.027011
     9  C   -0.087871
    10  C    0.045293
    11  C    0.043953
    12  C    0.065415
    13  C   -0.077251
    14  H    0.020423
    15  N   -0.449214
    16  C    0.144348
    17  C   -0.127412
    18  C   -0.063070
    19  C    0.122871
    20  C    0.101059
    21  C    0.037205
    22  O   -0.159071
    23  C    0.015511
    24  N   -0.261522
    25  C    0.011081
    26  C    0.001199
    27  C   -0.019819
    28  C    0.031454
    29  C    0.063928
    30  C    0.026418
    31  C    0.015649
    32  N   -0.333842
    33  C    0.151058
    34  C   -0.160996
    35  C    0.054034
    36  C    0.083178
    37  C    0.103578
    38  C    0.016003
    39  O   -0.220086
    40  C   -0.011467
    41  C    0.205062
    42  O   -0.233918
    43  O   -0.336055
    44  C    0.186344
    45  H   -0.027689
    46  H   -0.015361
    47  H   -0.031261
    48  H    0.025829
    49  H    0.014656
    50  H    0.026787
    51  H    0.017640
    52  H    0.017610
    53  H   -0.007409
    54  H    0.015267
    55  H    0.035041
    56  H    0.042413
    57  H    0.043217
    58  H    0.020471
    59  H    0.020683
    60  H    0.049375
    61  H    0.033205
    62  H    0.022837
    63  H    0.011378
    64  H    0.008399
    65  H    0.021642
    66  H    0.013252
    67  H    0.028447
    68  H    0.004142
    69  H    0.007208
    70  H    0.004350
    71  H    0.003664
    72  H    0.027906
    73  H    0.017363
    74  H    0.026277
    75  H    0.033196
    76  H    0.032835
    77  H    0.049815
    78  H    0.038651
    79  H    0.030318
    80  Mg   0.832729
    81  C   -0.065584
    82  C   -0.081997
    83  C   -0.051844
    84  C   -0.084118
    85  N   -0.298288
    86  C   -0.025754
    87  C    0.018465
    88  C   -0.084325
    89  C    0.035860
    90  C    0.085086
    91  C    0.008032
    92  C   -0.055364
    93  H    0.025514
    94  N   -0.351570
    95  C    0.137569
    96  C   -0.183559
    97  C   -0.001208
    98  C    0.138285
    99  C    0.160174
   100  C   -0.032220
   101  O   -0.208009
   102  C    0.057959
   103  N   -0.289627
   104  C    0.015897
   105  C   -0.027183
   106  C   -0.062488
   107  C    0.016096
   108  C    0.089649
   109  C    0.056714
   110  C    0.010158
   111  N   -0.344917
   112  C    0.137325
   113  C   -0.195325
   114  C   -0.004421
   115  C    0.133838
   116  C    0.146233
   117  C    0.051141
   118  O   -0.169706
   119  C    0.007089
   120  C    0.187118
   121  O   -0.181076
   122  O   -0.345674
   123  C    0.175646
   124  H   -0.026735
   125  H   -0.055807
   126  H   -0.024804
   127  H    0.014645
   128  H    0.028495
   129  H    0.016095
   130  H    0.023447
   131  H    0.024294
   132  H   -0.006914
   133  H   -0.001121
   134  H    0.031136
   135  H    0.037568
   136  H    0.042131
   137  H   -0.001152
   138  H    0.032060
   139  H    0.043736
   140  H    0.018220
   141  H    0.031562
   142  H    0.006924
   143  H    0.007277
   144  H    0.018878
   145  H    0.023704
   146  H    0.006578
   147  H    0.033390
   148  H   -0.000399
   149  H    0.016111
   150  H    0.005062
   151  H    0.013770
   152  H    0.046479
   153  H    0.016169
   154  H    0.034360
   155  H    0.034148
   156  H    0.056369
   157  H    0.035438
   158  H    0.036563
 Sum of Mulliken charges =  -0.00000

 Dipole moment (field-independent basis, Debye):
    X=              0.1038    Y=              5.1994    Z=             -3.1298  Tot=              6.0696
 Quadrupole moment (field-independent basis, Debye-Ang):
   XX=           -360.0038   YY=           -560.1527   ZZ=           -491.1814
   XY=            -32.8571   XZ=              8.9915   YZ=            -12.9246

 Normal termination of Gaussian 16 at Thu Sep 16 05:11:43 2021.
