 Gaussian 16, Revision A.03,
 Gaussian 16:  ES64L-G16RevA.03 25-Dec-2016

 -----------------------------------
 #p cam-b3lyp/Def2SVP td=(nstates=5)
 -----------------------------------

 --------------------------------
 TDDFT excited states in gaussian
 --------------------------------
 Symbolic Z-matrix:
 Charge =  0 Multiplicity = 1

                         Standard orientation:
 ---------------------------------------------------------------------
 Center     Atomic      Atomic             Coordinates (Angstroms)
 Number     Number       Type             X           Y           Z
 ---------------------------------------------------------------------
      1         12           0      -23.460913   -0.618368   -0.037046
      2          6           0      -22.640448    2.572472   -0.993684
      3          6           0      -23.255611    0.378282    3.237395
      4          6           0      -24.178149   -3.864568    0.950834
      5          6           0      -23.219876   -1.671474   -3.331471
      6          7           0      -22.944622    1.275609    1.049811
      7          6           0      -22.737190    2.455581    0.394017
      8          6           0      -22.541685    3.546256    1.332089
      9          6           0      -22.512769    2.898510    2.707448
     10          6           0      -22.896374    1.395171    2.354480
     11          6           0      -21.200793    2.996531    3.560120
     12          6           0      -23.642171    4.650249    1.175052
     13          6           0      -23.212565    6.130621    1.461248
     14          1           0      -22.064104    6.349023    2.465725
     15          7           0      -23.793153   -1.554814    1.858121
     16          6           0      -23.668479   -0.934312    3.089320
     17          6           0      -23.954488   -1.919857    4.151574
     18          6           0      -24.238166   -3.190106    3.486903
     19          6           0      -24.102896   -2.912660    2.046331
     20          6           0      -23.904389   -1.624268    5.641686
     21          6           0      -24.707186   -4.478065    4.122506
     22          8           0      -24.980392   -5.446960    3.392409
     23          6           0      -24.839880   -4.700945    5.582566
     24          7           0      -23.596496   -2.526426   -1.024693
     25          6           0      -23.950796   -3.655144   -0.403709
     26          6           0      -24.181948   -4.786700   -1.419028
     27          6           0      -24.127889   -4.051040   -2.866996
     28          6           0      -23.694413   -2.627269   -2.369257
     29          6           0      -23.147415   -5.938881   -1.231440
     30          6           0      -25.478046   -3.979898   -3.631736
     31          6           0      -25.563158   -4.823767   -4.912371
     32          7           0      -22.954410    0.220919   -1.837969
     33          6           0      -22.880330   -0.329272   -3.119699
     34          6           0      -22.497917    0.711580   -4.099561
     35          6           0      -22.386556    1.846314   -3.261826
     36          6           0      -22.661327    1.496503   -1.912688
     37          6           0      -22.353146    0.589613   -5.536109
     38          6           0      -22.181030    3.309325   -3.284298
     39          8           0      -22.011599    4.078571   -4.192755
     40          6           0      -22.297772    3.816797   -1.802906
     41          6           0      -21.080809    4.576319   -1.474425
     42          8           0      -19.998863    3.988237   -1.316056
     43          8           0      -21.279596    5.900968   -1.231618
     44          6           0      -20.172229    6.690594   -0.702105
     45          1           0      -23.183243    0.728033    4.269338
     46          1           0      -24.367147   -4.887539    1.283630
     47          1           0      -23.281830   -2.020342   -4.364285
     48          1           0      -21.568014    3.992423    1.126694
     49          1           0      -23.371594    3.202114    3.307199
     50          1           0      -20.323556    3.539428    3.206745
     51          1           0      -20.873894    1.981923    3.786412
     52          1           0      -21.364701    3.383731    4.566062
     53          1           0      -24.522002    4.374627    1.756579
     54          1           0      -24.101656    4.548969    0.192014
     55          1           0      -24.070442    6.707250    1.808298
     56          1           0      -22.787397    6.625273    0.588449
     57          1           0      -23.762058   -0.568128    5.868016
     58          1           0      -23.064341   -2.133663    6.114685
     59          1           0      -24.883827   -1.793013    6.088908
     60          1           0      -25.281216   -5.689971    5.701895
     61          1           0      -25.454032   -3.951794    6.083967
     62          1           0      -23.866063   -4.580683    6.057553
     63          1           0      -25.218873   -5.103364   -1.305979
     64          1           0      -23.342498   -4.449837   -3.508946
     65          1           0      -23.602702   -6.928188   -1.183884
     66          1           0      -22.586148   -5.809190   -0.305694
     67          1           0      -22.461039   -5.813463   -2.069190
     68          1           0      -25.752203   -2.968181   -3.928334
     69          1           0      -26.315570   -4.290127   -3.006522
     70          1           0      -24.897143   -5.682327   -4.825590
     71          1           0      -25.220626   -4.207420   -5.742972
     72          1           0      -26.618874   -5.038808   -5.072455
     73          1           0      -22.403477    1.549947   -6.048784
     74          1           0      -23.093470   -0.069065   -5.989738
     75          1           0      -21.319209    0.310531   -5.739580
     76          1           0      -23.192644    4.436520   -1.869246
     77          1           0      -19.333923    6.805211   -1.389820
     78          1           0      -19.859790    6.319776    0.274054
     79          1           0      -20.505458    7.714641   -0.534351
     80         12           0       23.583260   -0.723584    0.347316
     81          6           0       21.370120    1.880051    1.069873
     82          6           0       25.851297    1.735295   -0.703565
     83          6           0       25.590283   -3.088927   -0.908068
     84          6           0       20.932662   -2.916987    0.428655
     85          7           0       23.670640    1.616987    0.288027
     86          6           0       22.582348    2.371998    0.594636
     87          6           0       22.891466    3.905616    0.372671
     88          6           0       24.273930    3.807735   -0.449721
     89          6           0       24.622307    2.313839   -0.339600
     90          6           0       23.945130    4.116907   -1.953485
     91          6           0       23.121760    4.547033    1.790272
     92          6           0       23.574843    6.031701    1.838121
     93          1           0       24.637399    6.666481    2.685107
     94          7           0       25.510525   -0.667335   -0.463793
     95          6           0       26.329115    0.424313   -0.798318
     96          6           0       27.516081   -0.081735   -1.347815
     97          6           0       27.540750   -1.466014   -1.242898
     98          6           0       26.181931   -1.798137   -0.847578
     99          6           0       28.610708    0.848904   -1.756099
    100          6           0       28.646761   -2.503139   -1.627990
    101          8           0       28.554955   -3.716117   -1.472443
    102          6           0       30.055209   -2.071796   -2.045789
    103          7           0       23.244426   -2.675977   -0.266104
    104          6           0       24.276928   -3.477513   -0.610661
    105          6           0       23.903626   -4.971266   -0.679333
    106          6           0       22.378781   -4.900003   -0.388581
    107          6           0       22.159910   -3.467004    0.062423
    108          6           0       24.392042   -5.704946   -1.972307
    109          6           0       21.790856   -5.956940    0.586108
    110          6           0       22.070641   -5.758892    2.015403
    111          7           0       21.576656   -0.623941    0.765155
    112          6           0       20.646724   -1.550667    0.765708
    113          6           0       19.360420   -1.037057    1.247642
    114          6           0       19.653049    0.357961    1.380228
    115          6           0       20.976880    0.565850    1.045726
    116          6           0       18.250517   -1.760388    1.854259
    117          6           0       19.057476    1.621630    1.777788
    118          8           0       17.970153    1.868499    2.248156
    119          6           0       20.159687    2.653230    1.508426
    120          6           0       19.689790    3.748516    0.545379
    121          8           0       19.614257    3.616182   -0.648493
    122          8           0       19.305643    4.853675    1.266557
    123          6           0       18.845051    5.963686    0.400929
    124          1           0       26.593744    2.509473   -0.903977
    125          1           0       26.275985   -3.915550   -1.106768
    126          1           0       20.321897   -3.817517    0.513067
    127          1           0       22.140105    4.398614   -0.244711
    128          1           0       25.063581    4.469595   -0.091882
    129          1           0       23.937249    3.266991   -2.635140
    130          1           0       24.764964    4.645428   -2.440561
    131          1           0       23.006349    4.650566   -2.100416
    132          1           0       23.841356    3.918742    2.314488
    133          1           0       22.196794    4.412528    2.351680
    134          1           0       22.640708    6.582460    1.952215
    135          1           0       23.969912    6.146851    0.829541
    136          1           0       28.388530    1.911881   -1.658460
    137          1           0       28.970899    0.529989   -2.735146
    138          1           0       29.399682    0.647297   -1.031026
    139          1           0       30.090288   -1.555446   -3.005150
    140          1           0       30.804636   -2.862287   -2.002894
    141          1           0       30.411156   -1.400564   -1.263995
    142          1           0       24.487841   -5.297487    0.180664
    143          1           0       21.919673   -4.990158   -1.373059
    144          1           0       25.304732   -5.251290   -2.357275
    145          1           0       23.622578   -5.626921   -2.740830
    146          1           0       24.636013   -6.752858   -1.796558
    147          1           0       22.273391   -6.866278    0.229210
    148          1           0       20.726690   -6.086882    0.388265
    149          1           0       21.349159   -5.056261    2.432084
    150          1           0       23.102314   -5.445378    2.173769
    151          1           0       21.905107   -6.669260    2.592303
    152          1           0       18.699853   -2.669013    2.255702
    153          1           0       17.450043   -2.152052    1.226413
    154          1           0       17.829305   -1.100050    2.611567
    155          1           0       20.439961    3.094285    2.465559
    156          1           0       18.042339    6.490124    0.916936
    157          1           0       18.319896    5.676119   -0.510152
    158          1           0       19.643947    6.685264    0.233193
 ---------------------------------------------------------------------

 SCF Done:  E(RCAM-B3LYP) =  -4069.86328163     A.U. after   19 cycles

 Excitation energies and oscillator strengths:

 Excited State   1:      Singlet-A      1.7299 eV  716.71 nm  f=0.3890  <S**2>=0.000
     309 -> 315       -0.18860
     312 -> 314        0.68241
     309 <- 315       -0.10885
 This state for optimization and/or second-order correction.
 Total Energy, E(TD-HF/TD-DFT) =  -4069.79970904
 Copying the excited state density for this state as the 1-particle RhoCI density.

 Excited State   2:      Singlet-A      1.7450 eV  710.50 nm  f=0.3910  <S**2>=0.000
     310 -> 316       -0.18611
     311 -> 313        0.68384
     310 <- 316       -0.10700

 Excited State   3:      Singlet-A      2.2550 eV  549.82 nm  f=0.0829  <S**2>=0.000
     309 -> 314        0.62545
     312 -> 315        0.31647

 Excited State   4:      Singlet-A      2.2617 eV  548.20 nm  f=0.1175  <S**2>=0.000
     310 -> 313        0.64500
     311 -> 316        0.27671

 Excited State   5:      Singlet-A      3.1770 eV  390.26 nm  f=0.0000  <S**2>=0.000
     312 -> 313        0.70710

 The electronic state is 1-A.
 Alpha  occ. eigenvalues --  -46.88868 -46.88699 -19.25952 -19.25778 -19.20407
 Alpha  occ. eigenvalues --  -19.19426 -19.19279 -19.19025 -19.18827 -19.18349
 Alpha  occ. eigenvalues --  -14.42237 -14.41811 -14.41703 -14.41053 -14.39473
 Alpha  occ. eigenvalues --  -14.39227 -14.39138 -14.39131 -10.39773 -10.39539
 Alpha  occ. eigenvalues --  -10.36161 -10.34945 -10.34833 -10.34502 -10.32296
 Alpha  occ. eigenvalues --  -10.31806 -10.31070 -10.30896 -10.30630 -10.30624
 Alpha  occ. eigenvalues --  -10.30592 -10.30568 -10.30396 -10.30352 -10.30088
 Alpha  occ. eigenvalues --  -10.29999 -10.29954 -10.29902 -10.29642 -10.29610
 Alpha  occ. eigenvalues --  -10.29287 -10.29135 -10.28692 -10.28676 -10.28669
 Alpha  occ. eigenvalues --  -10.28551 -10.28387 -10.28377 -10.28262 -10.27983
 Alpha  occ. eigenvalues --  -10.27955 -10.27884 -10.27749 -10.27731 -10.27637
 Alpha  occ. eigenvalues --  -10.27591 -10.27508 -10.27498 -10.27440 -10.27418
 Alpha  occ. eigenvalues --  -10.27373 -10.27361 -10.27267 -10.27199 -10.27093
 Alpha  occ. eigenvalues --  -10.27028 -10.26970 -10.26953 -10.26466 -10.26345
 Alpha  occ. eigenvalues --  -10.26185 -10.26086 -10.26050 -10.26046 -10.25998
 Alpha  occ. eigenvalues --  -10.25994 -10.25983 -10.25982 -10.25827 -10.25492
 Alpha  occ. eigenvalues --  -10.25339 -10.25281 -10.25264 -10.25233 -10.25122
 Alpha  occ. eigenvalues --  -10.24288  -3.17291  -3.17262  -1.92212  -1.92150
 Alpha  occ. eigenvalues --   -1.91732  -1.91730  -1.91598  -1.91550  -1.16825
 Alpha  occ. eigenvalues --   -1.16417  -1.10929  -1.10392  -1.10292  -1.08902
 Alpha  occ. eigenvalues --   -1.08762  -1.07105  -1.05102  -1.04964  -1.04033
 Alpha  occ. eigenvalues --   -1.03776  -1.03357  -1.03341  -1.02434  -1.00938
 Alpha  occ. eigenvalues --   -0.93815  -0.92468  -0.89428  -0.89108  -0.88557
 Alpha  occ. eigenvalues --   -0.88262  -0.88240  -0.87690  -0.87477  -0.87215
 Alpha  occ. eigenvalues --   -0.87175  -0.86714  -0.86240  -0.86192  -0.84060
 Alpha  occ. eigenvalues --   -0.83926  -0.83618  -0.83547  -0.82398  -0.82307
 Alpha  occ. eigenvalues --   -0.81855  -0.81532  -0.81196  -0.80919  -0.80532
 Alpha  occ. eigenvalues --   -0.80405  -0.78505  -0.78418  -0.77588  -0.77536
 Alpha  occ. eigenvalues --   -0.77290  -0.76577  -0.76217  -0.76146  -0.74872
 Alpha  occ. eigenvalues --   -0.74855  -0.72577  -0.72475  -0.71793  -0.71489
 Alpha  occ. eigenvalues --   -0.70044  -0.69221  -0.69156  -0.68349  -0.68338
 Alpha  occ. eigenvalues --   -0.68010  -0.66999  -0.66901  -0.65817  -0.65427
 Alpha  occ. eigenvalues --   -0.65364  -0.65008  -0.64821  -0.64434  -0.64309
 Alpha  occ. eigenvalues --   -0.64003  -0.62705  -0.62482  -0.60064  -0.59831
 Alpha  occ. eigenvalues --   -0.59569  -0.59441  -0.59371  -0.59200  -0.58731
 Alpha  occ. eigenvalues --   -0.58627  -0.58235  -0.58204  -0.57343  -0.57269
 Alpha  occ. eigenvalues --   -0.56545  -0.56032  -0.55945  -0.55721  -0.55498
 Alpha  occ. eigenvalues --   -0.55323  -0.55228  -0.54700  -0.54590  -0.54007
 Alpha  occ. eigenvalues --   -0.53955  -0.53428  -0.53242  -0.53132  -0.52904
 Alpha  occ. eigenvalues --   -0.52764  -0.52682  -0.52540  -0.52395  -0.52196
 Alpha  occ. eigenvalues --   -0.52088  -0.51644  -0.51485  -0.51259  -0.51148
 Alpha  occ. eigenvalues --   -0.51125  -0.51008  -0.50593  -0.50278  -0.50188
 Alpha  occ. eigenvalues --   -0.49942  -0.49915  -0.49823  -0.49621  -0.49448
 Alpha  occ. eigenvalues --   -0.49348  -0.49212  -0.48972  -0.48967  -0.48814
 Alpha  occ. eigenvalues --   -0.48518  -0.48489  -0.48453  -0.48092  -0.47930
 Alpha  occ. eigenvalues --   -0.47895  -0.47492  -0.47450  -0.47178  -0.47088
 Alpha  occ. eigenvalues --   -0.47085  -0.46677  -0.46652  -0.46268  -0.46109
 Alpha  occ. eigenvalues --   -0.45993  -0.45848  -0.45729  -0.45685  -0.45492
 Alpha  occ. eigenvalues --   -0.45361  -0.45179  -0.45069  -0.44962  -0.44899
 Alpha  occ. eigenvalues --   -0.44727  -0.44508  -0.44419  -0.44306  -0.44202
 Alpha  occ. eigenvalues --   -0.44072  -0.43847  -0.43783  -0.43660  -0.43579
 Alpha  occ. eigenvalues --   -0.43470  -0.43330  -0.43237  -0.43143  -0.42989
 Alpha  occ. eigenvalues --   -0.42894  -0.42598  -0.42567  -0.42397  -0.42384
 Alpha  occ. eigenvalues --   -0.42122  -0.41841  -0.41821  -0.41651  -0.41468
 Alpha  occ. eigenvalues --   -0.41133  -0.40890  -0.40764  -0.40666  -0.40316
 Alpha  occ. eigenvalues --   -0.40247  -0.39971  -0.39603  -0.39518  -0.38834
 Alpha  occ. eigenvalues --   -0.38469  -0.38167  -0.37840  -0.37740  -0.37455
 Alpha  occ. eigenvalues --   -0.37319  -0.37198  -0.36707  -0.36692  -0.36603
 Alpha  occ. eigenvalues --   -0.36350  -0.36003  -0.34920  -0.34262  -0.34019
 Alpha  occ. eigenvalues --   -0.33948  -0.33155  -0.33094  -0.31435  -0.31113
 Alpha  occ. eigenvalues --   -0.31084  -0.30874  -0.30800  -0.30674  -0.30045
 Alpha  occ. eigenvalues --   -0.30043  -0.29485  -0.29174  -0.23862  -0.23785
 Alpha  occ. eigenvalues --   -0.21067  -0.20782
 Alpha virt. eigenvalues --   -0.08376  -0.08270  -0.01701  -0.01322   0.00443
 Alpha virt. eigenvalues --    0.00565   0.01906   0.02564   0.02566   0.03112
 Alpha virt. eigenvalues --    0.04489   0.05156   0.05257   0.05551   0.06026

 Mulliken charges:
               1
     1  Mg   0.814839
     2  C   -0.017287
     3  C   -0.070447
     4  C   -0.047040
     5  C   -0.073590
     6  N   -0.243873
     7  C   -0.051326
     8  C   -0.008535
     9  C    0.010436
    10  C   -0.041623
    11  C    0.066167
    12  C    0.061635
    13  C   -0.064250
    14  H    0.001637
    15  N   -0.381027
    16  C    0.179981
    17  C   -0.151777
    18  C   -0.018594
    19  C    0.094775
    20  C    0.107327
    21  C   -0.005734
    22  O   -0.232223
    23  C    0.074378
    24  N   -0.261029
    25  C    0.046039
    26  C   -0.044093
    27  C   -0.048510
    28  C    0.017420
    29  C    0.079029
    30  C    0.027466
    31  C    0.003025
    32  N   -0.356659
    33  C    0.120865
    34  C   -0.150012
    35  C   -0.006742
    36  C    0.104776
    37  C    0.121498
    38  C    0.014244
    39  O   -0.146080
    40  C    0.025564
    41  C    0.218366
    42  O   -0.248895
    43  O   -0.321534
    44  C    0.184507
    45  H   -0.049192
    46  H    0.001128
    47  H   -0.028732
    48  H    0.022860
    49  H    0.008018
    50  H    0.027395
    51  H    0.010411
    52  H    0.004941
    53  H   -0.006447
    54  H    0.001644
    55  H    0.031386
    56  H    0.046807
    57  H    0.002023
    58  H    0.041607
    59  H    0.029940
    60  H    0.037750
    61  H    0.020612
    62  H    0.031164
    63  H    0.014330
    64  H    0.014675
    65  H    0.025696
    66  H    0.024999
    67  H    0.008101
    68  H    0.007527
    69  H    0.001689
    70  H    0.019690
    71  H    0.010865
    72  H    0.018604
    73  H    0.025093
    74  H    0.026354
    75  H    0.033642
    76  H    0.036801
    77  H    0.048282
    78  H    0.035161
    79  H    0.032080
    80  Mg   0.838644
    81  C    0.003043
    82  C   -0.061063
    83  C   -0.104787
    84  C   -0.054736
    85  N   -0.218653
    86  C   -0.092774
    87  C   -0.042317
    88  C   -0.061316
    89  C    0.010999
    90  C    0.050371
    91  C    0.024644
    92  C   -0.040712
    93  H    0.041595
    94  N   -0.391187
    95  C    0.155125
    96  C   -0.142610
    97  C   -0.042400
    98  C    0.127204
    99  C    0.119223
   100  C    0.040021
   101  O   -0.203581
   102  C    0.039545
   103  N   -0.333299
   104  C    0.048249
   105  C   -0.057753
   106  C    0.015406
   107  C   -0.039422
   108  C    0.082147
   109  C    0.031344
   110  C    0.039682
   111  N   -0.320472
   112  C    0.146503
   113  C   -0.155200
   114  C   -0.024210
   115  C    0.123361
   116  C    0.118391
   117  C    0.036022
   118  O   -0.149040
   119  C   -0.004672
   120  C    0.202106
   121  O   -0.198421
   122  O   -0.329906
   123  C    0.164260
   124  H   -0.038355
   125  H   -0.000495
   126  H   -0.043686
   127  H    0.025031
   128  H    0.023750
   129  H    0.021443
   130  H    0.003550
   131  H    0.029320
   132  H    0.011269
   133  H    0.008511
   134  H    0.027377
   135  H    0.016231
   136  H    0.020643
   137  H    0.026111
   138  H    0.028275
   139  H    0.036704
   140  H    0.028210
   141  H    0.021103
   142  H    0.014642
   143  H    0.015019
   144  H    0.028219
   145  H    0.010054
   146  H    0.017424
   147  H   -0.003785
   148  H    0.009905
   149  H    0.011551
   150  H    0.012320
   151  H    0.011277
   152  H    0.009256
   153  H    0.018051
   154  H    0.040671
   155  H    0.048845
   156  H    0.031866
   157  H    0.052110
   158  H    0.038225
 Sum of Mulliken charges =  -0.00000

 Dipole moment (field-independent basis, Debye):
    X=              2.0334    Y=              2.1045    Z=              2.6086  Tot=              3.9202
 Quadrupole moment (field-independent basis, Debye-Ang):
   XX=           -268.0492   YY=           -485.5057   ZZ=           -498.6259
   XY=             19.0999   XZ=            -73.9661   YZ=             19.9908

 Normal termination of Gaussian 16 at Wed Sep 15 20:07:04 2021.
