 Gaussian 16, Revision A.03,
 Gaussian 16:  ES64L-G16RevA.03 25-Dec-2016

 ----------------------------------------------------------
 #p cam-b3lyp/Def2SVP td=(nstates=5) density=(transition=1)
 ----------------------------------------------------------

 --------------------------------
 TDDFT excited states in gaussian
 --------------------------------
 Symbolic Z-matrix:
 Charge =  0 Multiplicity = 1

                         Standard orientation:
 ---------------------------------------------------------------------
 Center     Atomic      Atomic             Coordinates (Angstroms)
 Number     Number       Type             X           Y           Z
 ---------------------------------------------------------------------
      1         12           0      -21.362232    0.215220   -0.717971
      2          6           0      -18.109553   -1.277469   -0.042022
      3          6           0      -22.742357   -2.861439   -0.070669
      4          6           0      -24.205618    1.755480    0.133596
      5          6           0      -19.812831    3.147014   -1.459778
      6          7           0      -20.490797   -1.799513    0.074786
      7          6           0      -19.108243   -2.187600    0.200728
      8          6           0      -19.023494   -3.700522    0.421329
      9          6           0      -20.438292   -4.227621    0.040071
     10          6           0      -21.334844   -2.913491   -0.016042
     11          6           0      -20.480844   -4.993347   -1.366180
     12          6           0      -18.448273   -4.173821    1.724201
     13          6           0      -18.370887   -3.152779    2.883758
     14          1           0      -17.888353   -3.423810    4.320475
     15          7           0      -23.289290   -0.479241   -0.183597
     16          6           0      -23.638543   -1.790934    0.050211
     17          6           0      -25.112368   -1.840640    0.303357
     18          6           0      -25.469568   -0.504857    0.468468
     19          6           0      -24.320590    0.356241    0.198401
     20          6           0      -25.819182   -3.141071    0.453211
     21          6           0      -26.885604   -0.018617    0.894009
     22          8           0      -27.713738   -0.863804    1.183731
     23          6           0      -27.260692    1.408830    1.117915
     24          7           0      -21.821392    2.208166   -0.538095
     25          6           0      -23.149914    2.558920   -0.300607
     26          6           0      -23.359618    4.062766   -0.477688
     27          6           0      -22.073650    4.497034   -1.270131
     28          6           0      -21.214687    3.238346   -1.129342
     29          6           0      -24.657632    4.552403   -1.169861
     30          6           0      -21.369990    5.802217   -0.777764
     31          6           0      -21.540477    7.084015   -1.714912
     32          7           0      -19.368276    0.844501   -0.840159
     33          6           0      -18.896113    2.084124   -1.246319
     34          6           0      -17.464144    2.013899   -1.403476
     35          6           0      -17.161199    0.755457   -0.866154
     36          6           0      -18.375203    0.089613   -0.565945
     37          6           0      -16.597436    3.194976   -1.873470
     38          6           0      -16.110609   -0.174018   -0.584114
     39          8           0      -14.899858    0.018481   -0.815279
     40          6           0      -16.655123   -1.610635   -0.163649
     41          6           0      -15.927429   -1.927615    1.081386
     42          8           0      -15.792300   -1.192900    2.065480
     43          8           0      -15.546234   -3.224855    0.984770
     44          6           0      -14.622810   -3.725957    2.050542
     45          1           0      -23.180479   -3.836020    0.152380
     46          1           0      -25.145467    2.243312    0.401329
     47          1           0      -19.350673    4.067362   -1.821834
     48          1           0      -18.332877   -3.918773   -0.393273
     49          1           0      -20.910510   -4.796910    0.840905
     50          1           0      -20.699656   -6.021532   -1.080721
     51          1           0      -19.530159   -4.856799   -1.882155
     52          1           0      -21.328626   -4.567562   -1.904082
     53          1           0      -17.486131   -4.624441    1.481314
     54          1           0      -19.132499   -4.988840    1.962536
     55          1           0      -19.382291   -2.753370    2.965202
     56          1           0      -17.703973   -2.336342    2.605985
     57          1           0      -26.113082   -3.200775    1.500735
     58          1           0      -25.130108   -3.936199    0.170125
     59          1           0      -26.655452   -3.180016   -0.245694
     60          1           0      -26.778111    1.946354    1.933290
     61          1           0      -28.300717    1.527410    1.420450
     62          1           0      -27.107839    1.811246    0.116614
     63          1           0      -23.349193    4.323149    0.581338
     64          1           0      -22.404952    4.567593   -2.306400
     65          1           0      -25.419714    4.898397   -0.470826
     66          1           0      -25.121879    3.722194   -1.701101
     67          1           0      -24.371677    5.313084   -1.897108
     68          1           0      -20.301560    5.691902   -0.590227
     69          1           0      -21.796877    5.970749    0.210984
     70          1           0      -21.748018    7.866981   -0.985966
     71          1           0      -22.345413    7.015736   -2.446858
     72          1           0      -20.625939    7.166299   -2.301156
     73          1           0      -15.681167    2.921114   -2.396959
     74          1           0      -16.334706    3.644981   -0.916708
     75          1           0      -17.127188    3.772588   -2.630668
     76          1           0      -16.458895   -2.318745   -0.970085
     77          1           0      -14.398041   -4.776948    1.865616
     78          1           0      -15.083375   -3.656602    3.036204
     79          1           0      -13.759349   -3.074530    1.923245
     80         12           0       20.656730    0.739069   -0.110729
     81          6           0       20.903957   -2.710545   -0.222881
     82          6           0       17.561003    0.441660    1.403133
     83          6           0       20.821772    4.024301    0.647456
     84          6           0       23.960179    0.810132   -1.343539
     85          7           0       19.504133   -0.963948    0.777829
     86          6           0       19.741182   -2.228016    0.416222
     87          6           0       18.689143   -3.176897    1.069311
     88          6           0       17.486994   -2.154987    1.343141
     89          6           0       18.189074   -0.765524    1.093895
     90          6           0       16.225112   -2.469677    0.504015
     91          6           0       19.215151   -3.729206    2.374564
     92          6           0       18.904561   -5.194238    2.638805
     93          1           0       18.556070   -5.747524    4.071829
     94          7           0       19.234541    2.073890    0.757824
     95          6           0       18.078179    1.783951    1.378729
     96          6           0       17.493109    3.017065    1.795007
     97          6           0       18.340250    4.106747    1.429182
     98          6           0       19.530344    3.447179    0.877736
     99          6           0       16.108512    3.081502    2.325155
    100          6           0       18.078093    5.525844    1.789536
    101          8           0       17.037531    5.835082    2.345886
    102          6           0       19.053076    6.637105    1.419284
    103          7           0       22.225756    2.272080   -0.418193
    104          6           0       22.010565    3.524905    0.072091
    105          6           0       23.271878    4.325523    0.045537
    106          6           0       24.283167    3.262905   -0.597503
    107          6           0       23.472443    2.024832   -0.890219
    108          6           0       23.165271    5.674978   -0.689110
    109          6           0       25.596765    2.950406    0.247330
    110          6           0       26.994307    3.044300   -0.408931
    111          7           0       22.118014   -0.606423   -0.689554
    112          6           0       23.355076   -0.432843   -1.226023
    113          6           0       23.798325   -1.623366   -1.803707
    114          6           0       22.864330   -2.595234   -1.472730
    115          6           0       21.905252   -1.946178   -0.736338
    116          6           0       25.161008   -1.795168   -2.536759
    117          6           0       22.508619   -3.931502   -1.588137
    118          8           0       23.166611   -4.850135   -2.063860
    119          6           0       21.176841   -4.169448   -0.725670
    120          6           0       20.080333   -4.556004   -1.538168
    121          8           0       19.362488   -3.896248   -2.293494
    122          8           0       19.907233   -5.919899   -1.323493
    123          6           0       18.857146   -6.653642   -2.008906
    124          1           0       16.524063    0.361474    1.735275
    125          1           0       21.018595    5.084019    0.825327
    126          1           0       24.942827    0.958366   -1.796420
    127          1           0       18.484553   -3.982565    0.364774
    128          1           0       17.210023   -2.066369    2.393133
    129          1           0       16.404630   -3.271793   -0.211594
    130          1           0       15.903826   -1.569523   -0.020976
    131          1           0       15.424983   -2.721918    1.199529
    132          1           0       18.960925   -3.193216    3.289221
    133          1           0       20.284912   -3.522722    2.342214
    134          1           0       19.726013   -5.764987    2.206052
    135          1           0       18.042501   -5.344525    1.988930
    136          1           0       15.531443    3.374063    1.448142
    137          1           0       16.023679    3.803881    3.137214
    138          1           0       15.751840    2.126975    2.712298
    139          1           0       19.843971    6.594798    2.168301
    140          1           0       18.527823    7.568541    1.629146
    141          1           0       19.409837    6.514247    0.396757
    142          1           0       23.430317    4.459817    1.115079
    143          1           0       24.734134    3.643128   -1.514123
    144          1           0       23.163468    6.437817    0.090163
    145          1           0       22.282465    5.744147   -1.325535
    146          1           0       24.063916    5.832711   -1.284985
    147          1           0       25.522575    1.931131    0.626102
    148          1           0       25.722507    3.620464    1.098093
    149          1           0       27.091768    2.019809   -0.767892
    150          1           0       27.756905    3.224254    0.347696
    151          1           0       27.129969    3.607597   -1.332087
    152          1           0       25.954373   -1.801871   -1.790437
    153          1           0       25.450656   -0.986249   -3.207752
    154          1           0       25.193127   -2.738543   -3.082543
    155          1           0       21.448666   -4.894872    0.041279
    156          1           0       19.221719   -7.670567   -2.150699
    157          1           0       18.480263   -6.185090   -2.918426
    158          1           0       18.029694   -6.769524   -1.308767
 ---------------------------------------------------------------------

 SCF Done:  E(RCAM-B3LYP) =  -4069.75355164     A.U. after   19 cycles

 Excitation energies and oscillator strengths:

 Excited State   1:      Singlet-A      1.6561 eV  748.65 nm  f=0.3626  <S**2>=0.000
     310 -> 316        0.15659
     312 -> 314        0.69063
     310 <- 316        0.10157
 This state for optimization and/or second-order correction.
 Total Energy, E(TD-HF/TD-DFT) =  -4069.69269099
 Copying the excited state density for this state as the 1-particle RhoCI density.

 Excited State   2:      Singlet-A      1.6990 eV  729.73 nm  f=0.3998  <S**2>=0.000
     309 -> 315        0.18509
     311 -> 313        0.68478
     309 <- 315        0.10997

 Excited State   3:      Singlet-A      2.2279 eV  556.51 nm  f=0.1003  <S**2>=0.000
     309 -> 313        0.63672
     311 -> 315       -0.29384

 Excited State   4:      Singlet-A      2.2759 eV  544.76 nm  f=0.0763  <S**2>=0.000
     310 -> 314        0.61914
     312 -> 316       -0.32533

 Excited State   5:      Singlet-A      2.9264 eV  423.68 nm  f=0.0000  <S**2>=0.000
     312 -> 313        0.70710

 The electronic state is 1-A.
 Alpha  occ. eigenvalues --  -46.89672 -46.89304 -19.25360 -19.24624 -19.20176
 Alpha  occ. eigenvalues --  -19.19420 -19.19230 -19.19076 -19.18334 -19.17072
 Alpha  occ. eigenvalues --  -14.42468 -14.42333 -14.42003 -14.41545 -14.39789
 Alpha  occ. eigenvalues --  -14.39725 -14.39184 -14.38740 -10.39606 -10.39133
 Alpha  occ. eigenvalues --  -10.35502 -10.35214 -10.34602 -10.33532 -10.32126
 Alpha  occ. eigenvalues --  -10.31933 -10.31652 -10.31567 -10.31527 -10.31378
 Alpha  occ. eigenvalues --  -10.31292 -10.31127 -10.31004 -10.30888 -10.30873
 Alpha  occ. eigenvalues --  -10.30810 -10.30500 -10.29759 -10.29421 -10.29006
 Alpha  occ. eigenvalues --  -10.28834 -10.28815 -10.28715 -10.28703 -10.28515
 Alpha  occ. eigenvalues --  -10.28484 -10.28477 -10.28391 -10.28323 -10.28312
 Alpha  occ. eigenvalues --  -10.28300 -10.28158 -10.28156 -10.27876 -10.27857
 Alpha  occ. eigenvalues --  -10.27796 -10.27780 -10.27743 -10.27672 -10.27635
 Alpha  occ. eigenvalues --  -10.27608 -10.27556 -10.27354 -10.27298 -10.27235
 Alpha  occ. eigenvalues --  -10.27164 -10.27120 -10.27023 -10.26920 -10.26892
 Alpha  occ. eigenvalues --  -10.26843 -10.26786 -10.26782 -10.26587 -10.26516
 Alpha  occ. eigenvalues --  -10.26389 -10.26258 -10.26050 -10.26030 -10.26011
 Alpha  occ. eigenvalues --  -10.25941 -10.25887 -10.25831 -10.24885 -10.24834
 Alpha  occ. eigenvalues --  -10.23975  -3.17995  -3.17791  -1.92908  -1.92664
 Alpha  occ. eigenvalues --   -1.92445  -1.92288  -1.92269  -1.92074  -1.16080
 Alpha  occ. eigenvalues --   -1.15732  -1.10686  -1.10017  -1.09969  -1.07508
 Alpha  occ. eigenvalues --   -1.07478  -1.06676  -1.05495  -1.04836  -1.04068
 Alpha  occ. eigenvalues --   -1.04020  -1.03846  -1.02820  -1.02595  -1.00350
 Alpha  occ. eigenvalues --   -0.93883  -0.91934  -0.89463  -0.89344  -0.89138
 Alpha  occ. eigenvalues --   -0.88971  -0.88606  -0.88391  -0.87880  -0.86864
 Alpha  occ. eigenvalues --   -0.86821  -0.86647  -0.86178  -0.86082  -0.85411
 Alpha  occ. eigenvalues --   -0.84629  -0.84374  -0.83697  -0.83038  -0.82730
 Alpha  occ. eigenvalues --   -0.82350  -0.82241  -0.81469  -0.80964  -0.80785
 Alpha  occ. eigenvalues --   -0.80165  -0.78169  -0.78020  -0.77754  -0.77602
 Alpha  occ. eigenvalues --   -0.76551  -0.76497  -0.76488  -0.75997  -0.75247
 Alpha  occ. eigenvalues --   -0.75164  -0.73501  -0.73029  -0.72377  -0.71679
 Alpha  occ. eigenvalues --   -0.69811  -0.69634  -0.69249  -0.69010  -0.68111
 Alpha  occ. eigenvalues --   -0.67606  -0.67408  -0.66908  -0.66184  -0.66171
 Alpha  occ. eigenvalues --   -0.65903  -0.65474  -0.65365  -0.64849  -0.64662
 Alpha  occ. eigenvalues --   -0.63539  -0.62694  -0.62117  -0.60489  -0.59878
 Alpha  occ. eigenvalues --   -0.59623  -0.59116  -0.59116  -0.59090  -0.59043
 Alpha  occ. eigenvalues --   -0.58173  -0.58022  -0.57984  -0.57497  -0.57195
 Alpha  occ. eigenvalues --   -0.56769  -0.56343  -0.56279  -0.56142  -0.55447
 Alpha  occ. eigenvalues --   -0.55173  -0.54865  -0.54566  -0.54364  -0.54240
 Alpha  occ. eigenvalues --   -0.53665  -0.53529  -0.53455  -0.53387  -0.52854
 Alpha  occ. eigenvalues --   -0.52642  -0.52547  -0.52324  -0.52290  -0.52077
 Alpha  occ. eigenvalues --   -0.52068  -0.51833  -0.51821  -0.51492  -0.51377
 Alpha  occ. eigenvalues --   -0.51302  -0.51204  -0.51042  -0.50649  -0.50369
 Alpha  occ. eigenvalues --   -0.50126  -0.50004  -0.49971  -0.49660  -0.49579
 Alpha  occ. eigenvalues --   -0.49531  -0.49428  -0.49014  -0.48977  -0.48941
 Alpha  occ. eigenvalues --   -0.48777  -0.48374  -0.48346  -0.48281  -0.48111
 Alpha  occ. eigenvalues --   -0.47752  -0.47601  -0.47524  -0.47149  -0.46906
 Alpha  occ. eigenvalues --   -0.46873  -0.46790  -0.46743  -0.46694  -0.46599
 Alpha  occ. eigenvalues --   -0.46543  -0.46234  -0.46115  -0.45951  -0.45810
 Alpha  occ. eigenvalues --   -0.45710  -0.45464  -0.45457  -0.45285  -0.45184
 Alpha  occ. eigenvalues --   -0.45066  -0.44952  -0.44689  -0.44507  -0.44440
 Alpha  occ. eigenvalues --   -0.43986  -0.43940  -0.43892  -0.43599  -0.43475
 Alpha  occ. eigenvalues --   -0.43413  -0.43380  -0.43153  -0.42859  -0.42821
 Alpha  occ. eigenvalues --   -0.42729  -0.42554  -0.42276  -0.42177  -0.42118
 Alpha  occ. eigenvalues --   -0.42043  -0.41922  -0.41912  -0.41823  -0.41743
 Alpha  occ. eigenvalues --   -0.41433  -0.41070  -0.41057  -0.40762  -0.40237
 Alpha  occ. eigenvalues --   -0.39916  -0.39716  -0.39348  -0.39080  -0.38502
 Alpha  occ. eigenvalues --   -0.38279  -0.38202  -0.37957  -0.37403  -0.37363
 Alpha  occ. eigenvalues --   -0.37256  -0.37093  -0.36580  -0.36340  -0.36261
 Alpha  occ. eigenvalues --   -0.35835  -0.35660  -0.34906  -0.34375  -0.34350
 Alpha  occ. eigenvalues --   -0.33822  -0.33605  -0.32689  -0.31815  -0.31524
 Alpha  occ. eigenvalues --   -0.31191  -0.31170  -0.30700  -0.30484  -0.30102
 Alpha  occ. eigenvalues --   -0.29430  -0.29429  -0.29230  -0.24538  -0.24451
 Alpha  occ. eigenvalues --   -0.21532  -0.20752
 Alpha virt. eigenvalues --   -0.09170  -0.08582  -0.02259  -0.01790  -0.00164
 Alpha virt. eigenvalues --    0.00928   0.01473   0.02351   0.02500   0.02532
 Alpha virt. eigenvalues --    0.04065   0.04654   0.04888   0.05410   0.05519

 Mulliken charges:
               1
     1  Mg  12.000254
     2  C    5.965719
     3  C    5.994747
     4  C    6.041437
     5  C    6.004996
     6  N    6.973629
     7  C    6.029591
     8  C    5.995649
     9  C    6.002058
    10  C    5.989280
    11  C    6.002467
    12  C    5.998641
    13  C    5.993129
    14  H    1.002232
    15  N    7.013336
    16  C    5.961191
    17  C    5.971689
    18  C    6.000186
    19  C    5.943225
    20  C    6.006645
    21  C    5.988026
    22  O    7.984948
    23  C    6.002307
    24  N    7.011610
    25  C    5.951464
    26  C    6.013589
    27  C    5.987114
    28  C    6.031306
    29  C    5.999293
    30  C    5.992864
    31  C    6.001789
    32  N    6.998061
    33  C    6.036709
    34  C    6.024730
    35  C    6.002422
    36  C    6.041421
    37  C    5.999742
    38  C    6.014595
    39  O    8.034368
    40  C    6.008757
    41  C    6.004148
    42  O    8.000981
    43  O    8.002259
    44  C    5.999729
    45  H    0.985000
    46  H    0.995820
    47  H    1.018193
    48  H    0.994723
    49  H    1.000540
    50  H    0.994333
    51  H    0.984547
    52  H    1.003058
    53  H    0.997081
    54  H    1.008653
    55  H    1.011083
    56  H    0.992679
    57  H    0.980256
    58  H    0.984090
    59  H    0.979652
    60  H    0.989249
    61  H    0.988441
    62  H    0.992306
    63  H    0.998179
    64  H    1.006991
    65  H    1.002492
    66  H    1.004923
    67  H    0.989888
    68  H    0.993618
    69  H    1.009966
    70  H    1.005322
    71  H    1.006263
    72  H    0.997065
    73  H    1.017292
    74  H    1.017595
    75  H    1.014809
    76  H    1.005803
    77  H    1.004874
    78  H    1.004281
    79  H    0.998600
    80  Mg  11.999935
    81  C    5.999860
    82  C    6.000497
    83  C    6.000254
    84  C    5.999564
    85  N    7.000202
    86  C    6.000313
    87  C    5.999908
    88  C    6.000159
    89  C    5.999360
    90  C    6.000037
    91  C    5.999962
    92  C    5.999955
    93  H    1.000180
    94  N    7.000109
    95  C    5.999231
    96  C    5.999653
    97  C    5.999805
    98  C    5.999345
    99  C    6.000144
   100  C    5.999816
   101  O    7.999645
   102  C    6.000067
   103  N    6.999872
   104  C    5.999562
   105  C    6.000163
   106  C    5.999830
   107  C    6.000593
   108  C    6.000049
   109  C    5.999925
   110  C    6.000037
   111  N    6.999993
   112  C    6.000592
   113  C    6.000451
   114  C    6.000087
   115  C    6.000382
   116  C    5.999953
   117  C    6.000279
   118  O    8.000548
   119  C    6.000098
   120  C    6.000013
   121  O    8.000123
   122  O    8.000055
   123  C    5.999942
   124  H    0.999802
   125  H    0.999823
   126  H    1.000175
   127  H    0.999975
   128  H    0.999985
   129  H    0.999807
   130  H    0.999993
   131  H    0.999898
   132  H    1.000180
   133  H    0.999946
   134  H    0.999970
   135  H    1.000014
   136  H    0.999520
   137  H    0.999668
   138  H    0.999600
   139  H    0.999895
   140  H    0.999757
   141  H    0.999882
   142  H    1.000030
   143  H    1.000046
   144  H    1.000023
   145  H    0.999975
   146  H    0.999865
   147  H    0.999937
   148  H    1.000192
   149  H    0.999897
   150  H    1.000101
   151  H    1.000066
   152  H    1.000391
   153  H    1.000358
   154  H    1.000244
   155  H    1.000201
   156  H    1.000112
   157  H    1.000039
   158  H    1.000087
 Sum of Mulliken charges = 624.00000

 Dipole moment (field-independent basis, Debye):
    X=              9.5407    Y=              4.5490    Z=             -1.9399  Tot=             10.7462
 Quadrupole moment (field-independent basis, Debye-Ang):
   XX=           -394.0003   YY=              1.4407   ZZ=              2.5221
   XY=           -101.7517   XZ=             36.3817   YZ=             -5.4557

 Normal termination of Gaussian 16 at Tue Sep 21 19:29:56 2021.
