 Gaussian 16, Revision A.03,
 Gaussian 16:  ES64L-G16RevA.03 25-Dec-2016

 ----------------------------------------------------------
 #p cam-b3lyp/Def2SVP td=(nstates=5) density=(transition=1)
 ----------------------------------------------------------

 --------------------------------
 TDDFT excited states in gaussian
 --------------------------------
 Symbolic Z-matrix:
 Charge =  0 Multiplicity = 1

                         Standard orientation:
 ---------------------------------------------------------------------
 Center     Atomic      Atomic             Coordinates (Angstroms)
 Number     Number       Type             X           Y           Z
 ---------------------------------------------------------------------
      1         12           0       14.803491   -0.348889   -0.298518
      2          6           0       11.481198   -1.327241   -1.075469
      3          6           0       14.515234    2.070722   -2.794417
      4          6           0       17.274016    1.224159    1.204203
      5          6           0       14.631161   -2.771807    2.440778
      6          7           0       13.021227    0.453619   -1.627174
      7          6           0       11.921066   -0.281201   -1.925168
      8          6           0       11.256541    0.289459   -3.165173
      9          6           0       12.414994    0.882739   -3.967188
     10          6           0       13.377747    1.215838   -2.716128
     11          6           0       13.154629   -0.018317   -4.957835
     12          6           0       10.089446    1.281791   -2.736215
     13          6           0        8.855044    1.071365   -3.521646
     14          1           0        8.084989    2.321674   -3.989313
     15          7           0       15.786284    1.474701   -0.687130
     16          6           0       15.564296    2.287378   -1.826547
     17          6           0       16.528224    3.356567   -1.756921
     18          6           0       17.421661    3.133133   -0.675867
     19          6           0       16.862061    1.930027    0.037050
     20          6           0       16.524372    4.475957   -2.793205
     21          6           0       18.546879    4.004179   -0.277469
     22          8           0       18.767720    5.017682   -0.928752
     23          6           0       19.428680    3.846172    0.917523
     24          7           0       15.757588   -0.718348    1.690720
     25          6           0       16.878717    0.002523    1.891177
     26          6           0       17.660752   -0.533993    3.103783
     27          6           0       16.906180   -1.939622    3.442908
     28          6           0       15.711592   -1.860551    2.457398
     29          6           0       19.240688   -0.601197    2.896764
     30          6           0       16.507160   -2.145400    4.937742
     31          6           0       15.028245   -1.830022    5.347864
     32          7           0       13.440919   -1.722043    0.512466
     33          6           0       13.554078   -2.664956    1.573583
     34          6           0       12.354923   -3.609465    1.512739
     35          6           0       11.557221   -3.048984    0.527973
     36          6           0       12.265570   -1.934247   -0.047997
     37          6           0       11.968921   -4.857980    2.329097
     38          6           0       10.334416   -3.206431   -0.193523
     39          8           0        9.481368   -4.093508   -0.134393
     40          6           0       10.243650   -2.022974   -1.089309
     41          6           0        9.127657   -1.177229   -0.434427
     42          8           0        9.226302   -0.449830    0.551539
     43          8           0        7.924193   -1.451437   -1.141648
     44          6           0        6.726876   -0.891459   -0.660820
     45          1           0       14.528376    2.785987   -3.619608
     46          1           0       18.193175    1.719550    1.523201
     47          1           0       14.553777   -3.618326    3.125244
     48          1           0       10.840476   -0.474471   -3.821813
     49          1           0       12.263528    1.767131   -4.585002
     50          1           0       12.592173   -0.904144   -5.251471
     51          1           0       14.191148   -0.177634   -4.659592
     52          1           0       13.190114    0.606147   -5.851275
     53          1           0       10.416015    2.304075   -2.927285
     54          1           0        9.912089    1.326394   -1.661614
     55          1           0        8.266564    0.456792   -2.841344
     56          1           0        9.112249    0.501783   -4.414561
     57          1           0       17.333287    4.386376   -3.518017
     58          1           0       16.520401    5.432477   -2.272612
     59          1           0       15.601814    4.450482   -3.373334
     60          1           0       20.045239    2.959222    0.769606
     61          1           0       18.918813    3.767304    1.878469
     62          1           0       20.215473    4.599291    0.937433
     63          1           0       17.402159    0.174306    3.890606
     64          1           0       17.522462   -2.759448    3.075425
     65          1           0       19.566961    0.106406    2.134692
     66          1           0       19.715763   -1.572011    2.750705
     67          1           0       19.614856   -0.416059    3.904869
     68          1           0       17.158993   -1.600791    5.620351
     69          1           0       16.656808   -3.217204    5.065638
     70          1           0       15.266146   -1.504209    6.360730
     71          1           0       14.319350   -2.657161    5.391333
     72          1           0       14.688506   -0.994981    4.734835
     73          1           0       11.840950   -5.724413    1.681177
     74          1           0       10.958995   -4.535564    2.580672
     75          1           0       12.633760   -4.904599    3.191327
     76          1           0        9.912390   -2.340553   -2.078066
     77          1           0        5.839234   -1.149808   -1.239610
     78          1           0        6.840100    0.191483   -0.691252
     79          1           0        6.628832   -1.272185    0.356205
     80         12           0      -13.942555    0.899908    0.064656
     81          6           0      -14.126686   -2.441750   -0.748570
     82          6           0      -10.404739    0.712342   -0.401134
     83          6           0      -13.637494    3.972969    1.171863
     84          6           0      -17.376390    0.986254    0.668692
     85          7           0      -12.516260   -0.724711   -0.518344
     86          6           0      -12.821894   -1.987045   -0.832474
     87          6           0      -11.523437   -2.719587   -1.303708
     88          6           0      -10.343315   -1.677671   -1.033570
     89          6           0      -11.145003   -0.451758   -0.555180
     90          6           0       -9.377000   -2.006544    0.088134
     91          6           0      -11.578984   -3.273724   -2.735315
     92          6           0      -11.167203   -4.735609   -2.780276
     93          1           0      -10.558927   -5.348972   -4.049884
     94          7           0      -12.253546    2.176560    0.264134
     95          6           0      -10.933366    1.963475   -0.010219
     96          6           0      -10.156866    3.102705    0.199812
     97          6           0      -11.040200    4.074738    0.786503
     98          6           0      -12.398992    3.431281    0.751775
     99          6           0       -8.666384    3.186386   -0.095710
    100          6           0      -10.709682    5.439632    1.368027
    101          8           0      -11.602142    6.053540    1.984453
    102          6           0       -9.345457    5.996925    1.327256
    103          7           0      -15.309989    2.234426    0.761221
    104          6           0      -14.977970    3.523141    1.125580
    105          6           0      -16.186071    4.389650    1.641964
    106          6           0      -17.384920    3.453923    1.183860
    107          6           0      -16.661295    2.132167    0.867868
    108          6           0      -16.315788    4.803725    3.160892
    109          6           0      -18.412435    4.008511    0.095745
    110          6           0      -17.924851    3.985050   -1.328832
    111          7           0      -15.439557   -0.411082    0.129987
    112          6           0      -16.792328   -0.289178    0.384518
    113          6           0      -17.475174   -1.509165    0.238464
    114          6           0      -16.464426   -2.351624   -0.238669
    115          6           0      -15.223391   -1.653297   -0.300810
    116          6           0      -18.928404   -1.622089    0.423722
    117          6           0      -16.277026   -3.714551   -0.557668
    118          8           0      -17.098521   -4.629210   -0.468393
    119          6           0      -14.716376   -3.876892   -0.948812
    120          6           0      -14.112157   -4.876083   -0.085242
    121          8           0      -13.811753   -4.742855    1.079062
    122          8           0      -14.023170   -6.039954   -0.717145
    123          6           0      -13.566786   -7.189911    0.003357
    124          1           0       -9.320216    0.631885   -0.495674
    125          1           0      -13.693442    4.990350    1.563802
    126          1           0      -18.447260    1.056541    0.870802
    127          1           0      -11.470660   -3.509874   -0.555545
    128          1           0       -9.737654   -1.691904   -1.940391
    129          1           0       -9.522588   -2.988795    0.538675
    130          1           0       -9.502628   -1.303222    0.910896
    131          1           0       -8.354224   -1.813438   -0.236908
    132          1           0      -10.988848   -2.720781   -3.466342
    133          1           0      -12.603539   -3.163561   -3.089859
    134          1           0      -12.089334   -5.306660   -2.666306
    135          1           0      -10.466405   -4.873474   -1.957098
    136          1           0       -8.323856    2.335313   -0.684400
    137          1           0       -8.117987    3.078103    0.840303
    138          1           0       -8.399892    4.163330   -0.497294
    139          1           0       -9.216322    6.762568    2.093082
    140          1           0       -9.239062    6.499745    0.365532
    141          1           0       -8.608874    5.207984    1.477370
    142          1           0      -16.346927    5.280060    1.033347
    143          1           0      -18.063954    3.328565    2.026324
    144          1           0      -15.448861    4.405786    3.686846
    145          1           0      -17.113008    4.216092    3.617850
    146          1           0      -16.455652    5.858288    3.400212
    147          1           0      -18.552446    5.063692    0.329182
    148          1           0      -19.407458    3.569798    0.159822
    149          1           0      -18.801293    3.834336   -1.958132
    150          1           0      -17.135606    3.302876   -1.642300
    151          1           0      -17.482552    4.963484   -1.516352
    152          1           0      -19.554127   -0.760390    0.192630
    153          1           0      -19.258239   -2.087450    1.351781
    154          1           0      -19.163989   -2.404414   -0.297335
    155          1           0      -14.668272   -4.211127   -1.985008
    156          1           0      -12.482768   -7.302156   -0.038068
    157          1           0      -13.980499   -8.062268   -0.502207
    158          1           0      -13.866889   -7.115103    1.048667
 ---------------------------------------------------------------------

 SCF Done:  E(RCAM-B3LYP) =  -4069.77815070     A.U. after   17 cycles

 Excitation energies and oscillator strengths:

 Excited State   1:      Singlet-A      1.6841 eV  736.20 nm  f=0.3699  <S**2>=0.000
     309 -> 315       -0.19722
     312 -> 314        0.68007
     309 <- 315       -0.11212
 This state for optimization and/or second-order correction.
 Total Energy, E(TD-HF/TD-DFT) =  -4069.71626044
 Copying the excited state density for this state as the 1-particle RhoCI density.

 Excited State   2:      Singlet-A      1.7068 eV  726.41 nm  f=0.4046  <S**2>=0.000
     310 -> 316        0.17258
     311 -> 313        0.68660
     310 <- 316        0.10534

 Excited State   3:      Singlet-A      2.1917 eV  565.71 nm  f=0.0569  <S**2>=0.000
     309 -> 314        0.61447
     312 -> 315        0.33946

 Excited State   4:      Singlet-A      2.2215 eV  558.10 nm  f=0.1595  <S**2>=0.000
     310 -> 313        0.65323
     311 -> 316       -0.25406

 Excited State   5:      Singlet-A      2.9459 eV  420.87 nm  f=0.0000  <S**2>=0.000
     312 -> 313        0.70708

 The electronic state is 1-A.
 Alpha  occ. eigenvalues --  -46.91375 -46.87655 -19.24816 -19.24797 -19.21501
 Alpha  occ. eigenvalues --  -19.18994 -19.18594 -19.18562 -19.18209 -19.17641
 Alpha  occ. eigenvalues --  -14.42480 -14.42268 -14.42136 -14.42019 -14.40318
 Alpha  occ. eigenvalues --  -14.39835 -14.39683 -14.38933 -10.40690 -10.38271
 Alpha  occ. eigenvalues --  -10.34836 -10.34644 -10.34481 -10.34193 -10.31902
 Alpha  occ. eigenvalues --  -10.31498 -10.31481 -10.31473 -10.31385 -10.31187
 Alpha  occ. eigenvalues --  -10.31175 -10.31155 -10.31126 -10.31047 -10.30904
 Alpha  occ. eigenvalues --  -10.30708 -10.30156 -10.30125 -10.29543 -10.29467
 Alpha  occ. eigenvalues --  -10.29354 -10.29022 -10.28957 -10.28846 -10.28586
 Alpha  occ. eigenvalues --  -10.28526 -10.28495 -10.28491 -10.28460 -10.28308
 Alpha  occ. eigenvalues --  -10.28251 -10.28244 -10.28237 -10.28220 -10.27995
 Alpha  occ. eigenvalues --  -10.27929 -10.27736 -10.27679 -10.27665 -10.27631
 Alpha  occ. eigenvalues --  -10.27628 -10.27560 -10.27467 -10.27432 -10.27264
 Alpha  occ. eigenvalues --  -10.27236 -10.27168 -10.27167 -10.27158 -10.26842
 Alpha  occ. eigenvalues --  -10.26773 -10.26572 -10.26442 -10.26329 -10.26270
 Alpha  occ. eigenvalues --  -10.26246 -10.26156 -10.26138 -10.25833 -10.25731
 Alpha  occ. eigenvalues --  -10.25720 -10.25523 -10.25343 -10.25053 -10.24955
 Alpha  occ. eigenvalues --  -10.24608  -3.19575  -3.16440  -1.94416  -1.94082
 Alpha  occ. eigenvalues --   -1.93830  -1.91338  -1.90911  -1.90744  -1.17902
 Alpha  occ. eigenvalues --   -1.15923  -1.09683  -1.09424  -1.08824  -1.08752
 Alpha  occ. eigenvalues --   -1.08470  -1.07766  -1.04563  -1.04277  -1.03671
 Alpha  occ. eigenvalues --   -1.03524  -1.03301  -1.02911  -1.02516  -1.01349
 Alpha  occ. eigenvalues --   -0.94460  -0.92058  -0.89333  -0.89258  -0.88791
 Alpha  occ. eigenvalues --   -0.88742  -0.88317  -0.87868  -0.87620  -0.87487
 Alpha  occ. eigenvalues --   -0.87341  -0.86923  -0.86755  -0.85648  -0.84857
 Alpha  occ. eigenvalues --   -0.84562  -0.83835  -0.83734  -0.82922  -0.82778
 Alpha  occ. eigenvalues --   -0.82365  -0.81717  -0.81151  -0.80936  -0.80564
 Alpha  occ. eigenvalues --   -0.80350  -0.78308  -0.78109  -0.77347  -0.77303
 Alpha  occ. eigenvalues --   -0.76955  -0.76864  -0.76090  -0.75950  -0.75276
 Alpha  occ. eigenvalues --   -0.75252  -0.73421  -0.72821  -0.71915  -0.71422
 Alpha  occ. eigenvalues --   -0.69983  -0.69625  -0.68808  -0.68789  -0.67764
 Alpha  occ. eigenvalues --   -0.67407  -0.67114  -0.66947  -0.65426  -0.65362
 Alpha  occ. eigenvalues --   -0.65038  -0.64888  -0.64788  -0.64621  -0.64577
 Alpha  occ. eigenvalues --   -0.64355  -0.62313  -0.62303  -0.60396  -0.60010
 Alpha  occ. eigenvalues --   -0.59972  -0.59844  -0.59348  -0.58990  -0.58964
 Alpha  occ. eigenvalues --   -0.58482  -0.58332  -0.58320  -0.57652  -0.57108
 Alpha  occ. eigenvalues --   -0.56496  -0.56287  -0.56174  -0.56031  -0.55717
 Alpha  occ. eigenvalues --   -0.55060  -0.55028  -0.54646  -0.54644  -0.54331
 Alpha  occ. eigenvalues --   -0.53759  -0.53502  -0.53462  -0.53136  -0.53114
 Alpha  occ. eigenvalues --   -0.52744  -0.52724  -0.52473  -0.52325  -0.52260
 Alpha  occ. eigenvalues --   -0.52099  -0.52030  -0.51746  -0.51691  -0.51468
 Alpha  occ. eigenvalues --   -0.51389  -0.51298  -0.50626  -0.50267  -0.50266
 Alpha  occ. eigenvalues --   -0.50249  -0.50045  -0.49928  -0.49636  -0.49485
 Alpha  occ. eigenvalues --   -0.49440  -0.49297  -0.49230  -0.49111  -0.49021
 Alpha  occ. eigenvalues --   -0.48932  -0.48547  -0.48366  -0.48330  -0.48114
 Alpha  occ. eigenvalues --   -0.47834  -0.47744  -0.47544  -0.47299  -0.47237
 Alpha  occ. eigenvalues --   -0.46923  -0.46848  -0.46471  -0.46348  -0.46163
 Alpha  occ. eigenvalues --   -0.46015  -0.45995  -0.45988  -0.45938  -0.45512
 Alpha  occ. eigenvalues --   -0.45508  -0.45395  -0.45376  -0.45228  -0.45121
 Alpha  occ. eigenvalues --   -0.44896  -0.44645  -0.44558  -0.44518  -0.44346
 Alpha  occ. eigenvalues --   -0.44215  -0.43874  -0.43867  -0.43601  -0.43546
 Alpha  occ. eigenvalues --   -0.43464  -0.43376  -0.43210  -0.43077  -0.42648
 Alpha  occ. eigenvalues --   -0.42498  -0.42405  -0.42111  -0.41967  -0.41680
 Alpha  occ. eigenvalues --   -0.41557  -0.41481  -0.41365  -0.41289  -0.41110
 Alpha  occ. eigenvalues --   -0.41081  -0.41058  -0.40959  -0.40490  -0.40453
 Alpha  occ. eigenvalues --   -0.40160  -0.39234  -0.39169  -0.38857  -0.38646
 Alpha  occ. eigenvalues --   -0.38333  -0.38167  -0.38005  -0.37714  -0.37709
 Alpha  occ. eigenvalues --   -0.37159  -0.36605  -0.36507  -0.36410  -0.36326
 Alpha  occ. eigenvalues --   -0.36153  -0.35857  -0.35310  -0.34290  -0.34204
 Alpha  occ. eigenvalues --   -0.33852  -0.33418  -0.33103  -0.31542  -0.31417
 Alpha  occ. eigenvalues --   -0.30884  -0.30752  -0.30640  -0.30505  -0.30281
 Alpha  occ. eigenvalues --   -0.30032  -0.29737  -0.29549  -0.24123  -0.24095
 Alpha  occ. eigenvalues --   -0.21451  -0.21109
 Alpha virt. eigenvalues --   -0.09070  -0.08603  -0.02687  -0.01399  -0.00676
 Alpha virt. eigenvalues --    0.00058   0.00516   0.02098   0.02508   0.03191
 Alpha virt. eigenvalues --    0.04615   0.05083   0.05669   0.05697   0.05801

 Mulliken charges:
               1
     1  Mg  12.001685
     2  C    6.024495
     3  C    5.979795
     4  C    5.979201
     5  C    6.023266
     6  N    7.003660
     7  C    5.971322
     8  C    6.003064
     9  C    5.998331
    10  C    6.030675
    11  C    5.998431
    12  C    6.005501
    13  C    6.000877
    14  H    0.993327
    15  N    6.985369
    16  C    6.052527
    17  C    6.016344
    18  C    6.013608
    19  C    6.040364
    20  C    5.993758
    21  C    6.008943
    22  O    8.022685
    23  C    5.996662
    24  N    7.004072
    25  C    6.033716
    26  C    5.987158
    27  C    6.014964
    28  C    5.959313
    29  C    5.996673
    30  C    5.998899
    31  C    6.009177
    32  N    7.007712
    33  C    5.945456
    34  C    5.974135
    35  C    5.996252
    36  C    5.967073
    37  C    5.999752
    38  C    5.982768
    39  O    7.968464
    40  C    6.001895
    41  C    5.997879
    42  O    7.995163
    43  O    7.998578
    44  C    6.002375
    45  H    1.008904
    46  H    1.002764
    47  H    0.990080
    48  H    1.001127
    49  H    1.000773
    50  H    1.014870
    51  H    0.997770
    52  H    1.001974
    53  H    0.986708
    54  H    1.002606
    55  H    1.005809
    56  H    0.997008
    57  H    1.020588
    58  H    1.016892
    59  H    1.018819
    60  H    1.011297
    61  H    1.011816
    62  H    1.012127
    63  H    1.000819
    64  H    0.994410
    65  H    0.991138
    66  H    1.006522
    67  H    1.005006
    68  H    0.989053
    69  H    0.999434
    70  H    0.990540
    71  H    1.003627
    72  H    0.997985
    73  H    0.982374
    74  H    0.986457
    75  H    0.983836
    76  H    0.991076
    77  H    0.995514
    78  H    0.994038
    79  H    1.000878
    80  Mg  11.999892
    81  C    6.000583
    82  C    5.999687
    83  C    5.999256
    84  C    6.000082
    85  N    7.000202
    86  C    5.999295
    87  C    6.000237
    88  C    5.999563
    89  C    6.000656
    90  C    5.999807
    91  C    6.000021
    92  C    5.999958
    93  H    1.000044
    94  N    6.999792
    95  C    6.000881
    96  C    6.000417
    97  C    6.000263
    98  C    6.000886
    99  C    5.999854
   100  C    6.000303
   101  O    8.000546
   102  C    5.999872
   103  N    6.999913
   104  C    6.000955
   105  C    5.999636
   106  C    6.000310
   107  C    5.999406
   108  C    6.000018
   109  C    6.000156
   110  C    6.000134
   111  N    7.000099
   112  C    5.999184
   113  C    5.999389
   114  C    5.999983
   115  C    5.999126
   116  C    6.000193
   117  C    5.999586
   118  O    7.999272
   119  C    5.999939
   120  C    5.999939
   121  O    7.999914
   122  O    7.999944
   123  C    6.000026
   124  H    1.000510
   125  H    0.999967
   126  H    0.999590
   127  H    1.000150
   128  H    1.000333
   129  H    1.000535
   130  H    0.999936
   131  H    1.000405
   132  H    0.999815
   133  H    1.000003
   134  H    1.000043
   135  H    1.000120
   136  H    1.000554
   137  H    1.000667
   138  H    1.000263
   139  H    1.000233
   140  H    1.000101
   141  H    1.000290
   142  H    0.999961
   143  H    0.999863
   144  H    0.999983
   145  H    1.000213
   146  H    0.999883
   147  H    0.999618
   148  H    0.999971
   149  H    0.999894
   150  H    1.000074
   151  H    0.999667
   152  H    0.999431
   153  H    0.999415
   154  H    0.999598
   155  H    0.999799
   156  H    1.000044
   157  H    0.999880
   158  H    0.999970
 Sum of Mulliken charges = 624.00000

 Dipole moment (field-independent basis, Debye):
    X=              6.2273    Y=              8.0808    Z=             -3.4288  Tot=             10.7627
 Quadrupole moment (field-independent basis, Debye-Ang):
   XX=            164.2987   YY=             -0.2888   ZZ=              0.6512
   XY=            115.5633   XZ=            -51.6580   YZ=              0.4777

 Normal termination of Gaussian 16 at Wed Sep 22 13:24:59 2021.
