 Gaussian 16, Revision A.03,
 Gaussian 16:  ES64L-G16RevA.03 25-Dec-2016

 ----------------------------------------------------------
 #p cam-b3lyp/Def2SVP td=(nstates=5) density=(transition=1)
 ----------------------------------------------------------

 --------------------------------
 TDDFT excited states in gaussian
 --------------------------------
 Symbolic Z-matrix:
 Charge =  0 Multiplicity = 1

                         Standard orientation:
 ---------------------------------------------------------------------
 Center     Atomic      Atomic             Coordinates (Angstroms)
 Number     Number       Type             X           Y           Z
 ---------------------------------------------------------------------
      1         12           0      -27.277160   -0.524187   -0.013775
      2          6           0      -25.868900    2.337526   -1.411964
      3          6           0      -28.377223    1.349879    2.653168
      4          6           0      -28.341921   -3.430198    1.336681
      5          6           0      -25.743297   -2.420123   -2.625747
      6          7           0      -27.024634    1.557084    0.565914
      7          6           0      -26.447792    2.560177   -0.149966
      8          6           0      -26.648544    3.920725    0.529956
      9          6           0      -27.335412    3.492149    1.901405
     10          6           0      -27.608265    2.002382    1.668971
     11          6           0      -26.417104    3.715604    3.096873
     12          6           0      -27.627676    4.912283   -0.193756
     13          6           0      -27.399107    6.386717    0.015336
     14          1           0      -26.537041    6.836941    1.108438
     15          7           0      -28.288268   -0.947470    1.676730
     16          6           0      -28.646841   -0.013626    2.669373
     17          6           0      -29.489598   -0.718999    3.599023
     18          6           0      -29.554706   -2.088191    3.236587
     19          6           0      -28.700644   -2.215943    2.030126
     20          6           0      -29.997925   -0.105170    4.885961
     21          6           0      -30.300561   -3.213439    3.821395
     22          8           0      -30.102751   -4.371453    3.520996
     23          6           0      -31.301115   -2.972919    5.009482
     24          7           0      -27.236257   -2.677877   -0.635607
     25          6           0      -27.716567   -3.629917    0.107109
     26          6           0      -27.455047   -5.031141   -0.522747
     27          6           0      -26.703810   -4.735265   -1.808076
     28          6           0      -26.470226   -3.184536   -1.712681
     29          6           0      -26.745380   -5.997517    0.538246
     30          6           0      -27.455316   -5.205148   -3.071539
     31          6           0      -27.062207   -6.610807   -3.661864
     32          7           0      -26.317547   -0.174294   -1.762642
     33          6           0      -25.743765   -1.032616   -2.733232
     34          6           0      -25.129835   -0.294951   -3.770660
     35          6           0      -25.098869    1.053747   -3.213677
     36          6           0      -25.872491    1.021810   -2.018299
     37          6           0      -24.331585   -0.873226   -4.924792
     38          6           0      -24.565786    2.335015   -3.497181
     39          8           0      -23.914740    2.765060   -4.441040
     40          6           0      -25.167895    3.305439   -2.281986
     41          6           0      -23.968144    3.995905   -1.702832
     42          8           0      -22.999174    3.414038   -1.203855
     43          8           0      -23.993609    5.407314   -1.908101
     44          6           0      -22.821754    6.164455   -1.367032
     45          1           0      -28.693329    2.005145    3.468399
     46          1           0      -28.550674   -4.326009    1.924626
     47          1           0      -25.298278   -2.944414   -3.473581
     48          1           0      -25.650681    4.331872    0.684304
     49          1           0      -28.246631    4.051509    2.112892
     50          1           0      -25.578445    4.360275    2.835300
     51          1           0      -26.093544    2.783337    3.560585
     52          1           0      -26.856490    4.333657    3.879883
     53          1           0      -28.640626    4.649881    0.109499
     54          1           0      -27.613184    4.643140   -1.250132
     55          1           0      -28.364791    6.821857    0.271702
     56          1           0      -27.000698    6.818042   -0.903029
     57          1           0      -29.562550   -0.555754    5.777819
     58          1           0      -31.086143   -0.180234    4.887259
     59          1           0      -29.775678    0.951453    5.034272
     60          1           0      -30.686086   -2.925511    5.908518
     61          1           0      -31.915479   -3.859452    5.167289
     62          1           0      -31.824235   -2.024660    4.892142
     63          1           0      -28.462322   -5.405996   -0.705313
     64          1           0      -25.686432   -5.122451   -1.780512
     65          1           0      -25.805865   -6.380261    0.139839
     66          1           0      -27.306115   -6.910583    0.739190
     67          1           0      -26.559873   -5.359599    1.403374
     68          1           0      -27.260295   -4.449921   -3.833733
     69          1           0      -28.518177   -5.166031   -2.832542
     70          1           0      -26.207070   -6.462753   -4.322293
     71          1           0      -27.829221   -7.211555   -4.151004
     72          1           0      -26.667220   -7.093337   -2.768493
     73          1           0      -25.098981   -1.107278   -5.662180
     74          1           0      -23.817736   -1.788827   -4.634385
     75          1           0      -23.462549   -0.299734   -5.249808
     76          1           0      -25.899450    3.990897   -2.711645
     77          1           0      -21.894031    5.872530   -1.857861
     78          1           0      -22.626474    6.122058   -0.295174
     79          1           0      -23.095582    7.163086   -1.707400
     80         12           0       27.301970   -0.750189    0.247254
     81          6           0       25.586922    2.193396    1.251313
     82          6           0       29.260841    1.379532   -1.787232
     83          6           0       28.722885   -3.391848   -1.036091
     84          6           0       25.047580   -2.634344    2.108509
     85          7           0       27.407367    1.574223   -0.231861
     86          6           0       26.645251    2.517554    0.412653
     87          6           0       27.047012    3.943409    0.075232
     88          6           0       28.159674    3.631680   -1.015206
     89          6           0       28.327702    2.104556   -0.996894
     90          6           0       27.815186    4.285178   -2.350303
     91          6           0       27.594678    4.667875    1.324526
     92          6           0       27.285501    6.203308    1.501664
     93          1           0       26.883250    7.014906    0.247744
     94          7           0       28.847336   -0.987626   -1.159604
     95          6           0       29.451567    0.006572   -1.929657
     96          6           0       30.457887   -0.633042   -2.791938
     97          6           0       30.373077   -2.033621   -2.500587
     98          6           0       29.302426   -2.151542   -1.492212
     99          6           0       31.242412    0.085540   -3.754565
    100          6           0       31.181846   -3.179229   -3.100779
    101          8           0       30.925846   -4.360290   -2.817392
    102          6           0       32.399537   -2.909950   -3.894528
    103          7           0       26.867921   -2.740283    0.421764
    104          6           0       27.673986   -3.648877   -0.133763
    105          6           0       27.174862   -5.100072    0.164206
    106          6           0       26.142410   -4.842736    1.307340
    107          6           0       25.969345   -3.356241    1.298026
    108          6           0       26.635620   -5.870196   -1.094597
    109          6           0       26.857746   -5.327917    2.625714
    110          6           0       27.658267   -4.312008    3.511414
    111          7           0       25.723059   -0.358118    1.518799
    112          6           0       24.882626   -1.257622    2.199441
    113          6           0       23.835604   -0.474389    2.901340
    114          6           0       24.059444    0.837656    2.500773
    115          6           0       25.188574    0.917759    1.713470
    116          6           0       22.708363   -1.147934    3.522702
    117          6           0       23.447092    2.162513    2.562603
    118          8           0       22.400662    2.483722    3.114427
    119          6           0       24.409240    3.124049    1.719074
    120          6           0       23.675302    3.777586    0.608239
    121          8           0       23.607891    3.377413   -0.550398
    122          8           0       23.073661    4.956469    1.087764
    123          6           0       22.239140    5.777942    0.240369
    124          1           0       30.058917    1.967859   -2.245700
    125          1           0       29.168290   -4.316391   -1.410315
    126          1           0       24.433239   -3.327691    2.686197
    127          1           0       26.224272    4.524113   -0.342681
    128          1           0       29.047363    4.177811   -0.697239
    129          1           0       28.585871    4.941243   -2.753406
    130          1           0       26.888177    4.857820   -2.380202
    131          1           0       27.759983    3.477634   -3.081531
    132          1           0       28.676171    4.552930    1.396068
    133          1           0       27.140340    4.067160    2.113211
    134          1           0       28.176479    6.731743    1.839152
    135          1           0       26.647610    6.262012    2.383552
    136          1           0       32.281889   -0.175499   -3.554900
    137          1           0       30.929931    1.127710   -3.812947
    138          1           0       30.842835   -0.336103   -4.677415
    139          1           0       32.192841   -2.506216   -4.886138
    140          1           0       32.934446   -3.844476   -4.062667
    141          1           0       32.947899   -2.111914   -3.394820
    142          1           0       28.128959   -5.527348    0.472895
    143          1           0       25.236166   -5.434820    1.177373
    144          1           0       27.419285   -6.506119   -1.506601
    145          1           0       26.233370   -5.117451   -1.771817
    146          1           0       25.811854   -6.486436   -0.734764
    147          1           0       27.384778   -6.260937    2.425176
    148          1           0       26.022894   -5.479422    3.310589
    149          1           0       28.565392   -4.861310    3.761715
    150          1           0       27.147484   -4.062155    4.442240
    151          1           0       27.969414   -3.389414    3.022601
    152          1           0       22.304139   -1.870270    2.814671
    153          1           0       21.950824   -0.383063    3.696591
    154          1           0       22.962674   -1.493950    4.524184
    155          1           0       24.705065    3.879653    2.447505
    156          1           0       21.174837    5.571091    0.349825
    157          1           0       22.647386    5.852641   -0.767642
    158          1           0       22.489020    6.770476    0.616338
 ---------------------------------------------------------------------

 SCF Done:  E(RCAM-B3LYP) =  -4069.83951998     A.U. after   19 cycles

 Excitation energies and oscillator strengths:

 Excited State   1:      Singlet-A      1.7264 eV  718.16 nm  f=0.3750  <S**2>=0.000
     309 -> 316        0.17542
     311 -> 313        0.68644
     309 <- 316        0.10553
 This state for optimization and/or second-order correction.
 Total Energy, E(TD-HF/TD-DFT) =  -4069.77607527
 Copying the excited state density for this state as the 1-particle RhoCI density.

 Excited State   2:      Singlet-A      1.7491 eV  708.83 nm  f=0.3723  <S**2>=0.000
     310 -> 315        0.18984
     312 -> 314        0.68132
     310 <- 315        0.10804

 Excited State   3:      Singlet-A      2.2226 eV  557.83 nm  f=0.1460  <S**2>=0.000
     309 -> 313        0.65064
     311 -> 316       -0.26125

 Excited State   4:      Singlet-A      2.2729 eV  545.50 nm  f=0.0724  <S**2>=0.000
     310 -> 314        0.62313
     312 -> 315       -0.32197

 Excited State   5:      Singlet-A      3.0132 eV  411.47 nm  f=0.0000  <S**2>=0.000
     312 -> 313        0.70711

 The electronic state is 1-A.
 Alpha  occ. eigenvalues --  -46.88487 -46.87975 -19.24137 -19.23961 -19.19864
 Alpha  occ. eigenvalues --  -19.19438 -19.19300 -19.19260 -19.18718 -19.18208
 Alpha  occ. eigenvalues --  -14.42675 -14.42106 -14.41638 -14.41266 -14.40158
 Alpha  occ. eigenvalues --  -14.39666 -14.39340 -14.38899 -10.39463 -10.39052
 Alpha  occ. eigenvalues --  -10.35461 -10.35356 -10.35268 -10.34326 -10.31687
 Alpha  occ. eigenvalues --  -10.31597 -10.31174 -10.31165 -10.31146 -10.30990
 Alpha  occ. eigenvalues --  -10.30841 -10.30799 -10.30751 -10.30681 -10.30433
 Alpha  occ. eigenvalues --  -10.30370 -10.30297 -10.30197 -10.29688 -10.29216
 Alpha  occ. eigenvalues --  -10.29169 -10.29010 -10.28888 -10.28856 -10.28853
 Alpha  occ. eigenvalues --  -10.28476 -10.28217 -10.28093 -10.28036 -10.28022
 Alpha  occ. eigenvalues --  -10.27923 -10.27836 -10.27759 -10.27758 -10.27747
 Alpha  occ. eigenvalues --  -10.27602 -10.27564 -10.27536 -10.27491 -10.27465
 Alpha  occ. eigenvalues --  -10.27428 -10.27375 -10.27263 -10.27221 -10.27122
 Alpha  occ. eigenvalues --  -10.27024 -10.26869 -10.26798 -10.26792 -10.26489
 Alpha  occ. eigenvalues --  -10.26412 -10.26354 -10.26352 -10.26336 -10.26316
 Alpha  occ. eigenvalues --  -10.25982 -10.25849 -10.25841 -10.25792 -10.25733
 Alpha  occ. eigenvalues --  -10.25320 -10.25292 -10.25261 -10.25076 -10.24678
 Alpha  occ. eigenvalues --  -10.24521  -3.17030  -3.16671  -1.91937  -1.91582
 Alpha  occ. eigenvalues --   -1.91498  -1.91318  -1.91119  -1.90989  -1.14635
 Alpha  occ. eigenvalues --   -1.13434  -1.11116  -1.09639  -1.09186  -1.08614
 Alpha  occ. eigenvalues --   -1.07227  -1.05812  -1.05185  -1.04740  -1.04022
 Alpha  occ. eigenvalues --   -1.03942  -1.03371  -1.03074  -1.02415  -1.01355
 Alpha  occ. eigenvalues --   -0.92094  -0.91960  -0.89863  -0.89286  -0.88969
 Alpha  occ. eigenvalues --   -0.88639  -0.88402  -0.88367  -0.87759  -0.87479
 Alpha  occ. eigenvalues --   -0.87314  -0.86716  -0.86259  -0.86164  -0.84324
 Alpha  occ. eigenvalues --   -0.84112  -0.83279  -0.82981  -0.82624  -0.82197
 Alpha  occ. eigenvalues --   -0.81973  -0.81489  -0.80811  -0.80419  -0.80386
 Alpha  occ. eigenvalues --   -0.80021  -0.78925  -0.78784  -0.77264  -0.77085
 Alpha  occ. eigenvalues --   -0.76858  -0.76834  -0.75857  -0.75765  -0.75056
 Alpha  occ. eigenvalues --   -0.74758  -0.73116  -0.72106  -0.71613  -0.71281
 Alpha  occ. eigenvalues --   -0.69561  -0.69215  -0.68970  -0.68889  -0.67980
 Alpha  occ. eigenvalues --   -0.67818  -0.67285  -0.66685  -0.65783  -0.65248
 Alpha  occ. eigenvalues --   -0.64981  -0.64947  -0.64658  -0.64605  -0.64438
 Alpha  occ. eigenvalues --   -0.64162  -0.61511  -0.61390  -0.60345  -0.60307
 Alpha  occ. eigenvalues --   -0.59636  -0.59341  -0.59314  -0.59021  -0.58527
 Alpha  occ. eigenvalues --   -0.58040  -0.57851  -0.57776  -0.57348  -0.57143
 Alpha  occ. eigenvalues --   -0.56256  -0.56255  -0.55468  -0.55307  -0.54970
 Alpha  occ. eigenvalues --   -0.54623  -0.54254  -0.54000  -0.53934  -0.53827
 Alpha  occ. eigenvalues --   -0.53390  -0.53301  -0.53230  -0.53129  -0.52899
 Alpha  occ. eigenvalues --   -0.52744  -0.52487  -0.52367  -0.52304  -0.52252
 Alpha  occ. eigenvalues --   -0.52046  -0.51786  -0.51589  -0.51476  -0.51282
 Alpha  occ. eigenvalues --   -0.51014  -0.50740  -0.50583  -0.50556  -0.50133
 Alpha  occ. eigenvalues --   -0.49881  -0.49866  -0.49760  -0.49603  -0.49535
 Alpha  occ. eigenvalues --   -0.49509  -0.49283  -0.49080  -0.49001  -0.48883
 Alpha  occ. eigenvalues --   -0.48565  -0.48501  -0.48378  -0.48362  -0.48142
 Alpha  occ. eigenvalues --   -0.48056  -0.47651  -0.47570  -0.47495  -0.47338
 Alpha  occ. eigenvalues --   -0.47212  -0.47137  -0.46928  -0.46926  -0.46704
 Alpha  occ. eigenvalues --   -0.46654  -0.46080  -0.45969  -0.45768  -0.45368
 Alpha  occ. eigenvalues --   -0.45069  -0.45045  -0.44994  -0.44684  -0.44589
 Alpha  occ. eigenvalues --   -0.44532  -0.44251  -0.44229  -0.44209  -0.44087
 Alpha  occ. eigenvalues --   -0.44024  -0.43906  -0.43889  -0.43639  -0.43395
 Alpha  occ. eigenvalues --   -0.43369  -0.43291  -0.43015  -0.42933  -0.42880
 Alpha  occ. eigenvalues --   -0.42611  -0.42529  -0.42472  -0.41995  -0.41927
 Alpha  occ. eigenvalues --   -0.41834  -0.41669  -0.41491  -0.41299  -0.41278
 Alpha  occ. eigenvalues --   -0.40997  -0.40813  -0.40639  -0.40320  -0.40259
 Alpha  occ. eigenvalues --   -0.39860  -0.39829  -0.39425  -0.39347  -0.38620
 Alpha  occ. eigenvalues --   -0.38553  -0.37775  -0.37724  -0.37399  -0.37227
 Alpha  occ. eigenvalues --   -0.37087  -0.36981  -0.36611  -0.36158  -0.36096
 Alpha  occ. eigenvalues --   -0.35776  -0.35658  -0.34370  -0.34151  -0.34012
 Alpha  occ. eigenvalues --   -0.33847  -0.33508  -0.33270  -0.31656  -0.31172
 Alpha  occ. eigenvalues --   -0.31071  -0.30936  -0.30798  -0.30505  -0.30130
 Alpha  occ. eigenvalues --   -0.29771  -0.29479  -0.29318  -0.24184  -0.23855
 Alpha  occ. eigenvalues --   -0.21542  -0.20758
 Alpha virt. eigenvalues --   -0.09052  -0.08119  -0.01681  -0.01650   0.00216
 Alpha virt. eigenvalues --    0.00262   0.02209   0.02402   0.03355   0.03748
 Alpha virt. eigenvalues --    0.04715   0.04854   0.05113   0.05214   0.05757

 Mulliken charges:
               1
     1  Mg  12.001652
     2  C    5.967659
     3  C    6.008540
     4  C    6.026391
     5  C    5.997139
     6  N    6.983910
     7  C    6.038253
     8  C    5.987523
     9  C    6.013026
    10  C    5.971394
    11  C    6.004870
    12  C    5.997797
    13  C    5.999604
    14  H    1.004672
    15  N    7.013841
    16  C    5.957206
    17  C    5.981148
    18  C    5.980279
    19  C    5.965417
    20  C    6.005885
    21  C    5.991031
    22  O    7.969360
    23  C    6.002558
    24  N    7.008678
    25  C    5.968101
    26  C    6.002460
    27  C    5.995823
    28  C    6.022226
    29  C    6.002512
    30  C    5.995938
    31  C    6.000907
    32  N    6.998043
    33  C    6.037552
    34  C    6.024988
    35  C    6.008468
    36  C    6.032409
    37  C    5.998300
    38  C    6.012931
    39  O    8.033022
    40  C    6.009382
    41  C    6.004060
    42  O    8.003480
    43  O    8.002204
    44  C    5.997988
    45  H    0.985684
    46  H    0.998550
    47  H    1.013025
    48  H    0.997327
    49  H    0.996392
    50  H    0.984090
    51  H    1.001989
    52  H    0.996036
    53  H    1.010645
    54  H    0.991748
    55  H    1.003548
    56  H    0.995505
    57  H    0.980421
    58  H    0.981749
    59  H    0.982267
    60  H    0.991455
    61  H    0.985259
    62  H    0.995426
    63  H    1.003344
    64  H    0.999400
    65  H    0.991364
    66  H    1.000314
    67  H    1.005926
    68  H    0.993513
    69  H    1.010724
    70  H    0.997831
    71  H    1.005047
    72  H    1.006349
    73  H    1.016275
    74  H    1.018216
    75  H    1.014516
    76  H    1.006386
    77  H    1.000356
    78  H    1.006558
    79  H    1.004135
    80  Mg  11.999994
    81  C    5.999984
    82  C    5.999959
    83  C    5.999965
    84  C    6.000049
    85  N    6.999970
    86  C    5.999990
    87  C    6.000029
    88  C    5.999966
    89  C    6.000098
    90  C    5.999996
    91  C    6.000007
    92  C    5.999994
    93  H    0.999967
    94  N    6.999973
    95  C    6.000128
    96  C    6.000015
    97  C    6.000068
    98  C    6.000051
    99  C    5.999995
   100  C    6.000023
   101  O    8.000072
   102  C    5.999985
   103  N    7.000031
   104  C    6.000058
   105  C    5.999997
   106  C    6.000013
   107  C    5.999897
   108  C    5.999988
   109  C    6.000003
   110  C    6.000012
   111  N    7.000003
   112  C    5.999877
   113  C    5.999943
   114  C    5.999989
   115  C    5.999959
   116  C    6.000016
   117  C    5.999967
   118  O    7.999928
   119  C    6.000000
   120  C    5.999990
   121  O    7.999966
   122  O    8.000006
   123  C    6.000014
   124  H    1.000036
   125  H    1.000005
   126  H    0.999984
   127  H    0.999980
   128  H    1.000029
   129  H    1.000015
   130  H    1.000015
   131  H    0.999978
   132  H    0.999994
   133  H    1.000025
   134  H    1.000013
   135  H    1.000016
   136  H    1.000057
   137  H    1.000030
   138  H    1.000030
   139  H    1.000008
   140  H    1.000046
   141  H    1.000027
   142  H    1.000008
   143  H    0.999981
   144  H    1.000000
   145  H    0.999981
   146  H    1.000015
   147  H    0.999981
   148  H    1.000008
   149  H    0.999998
   150  H    1.000021
   151  H    0.999989
   152  H    0.999931
   153  H    0.999954
   154  H    0.999973
   155  H    0.999996
   156  H    0.999970
   157  H    0.999973
   158  H    1.000000
 Sum of Mulliken charges = 624.00000

 Dipole moment (field-independent basis, Debye):
    X=              5.5717    Y=              1.2814    Z=             -9.0490  Tot=             10.7037
 Quadrupole moment (field-independent basis, Debye-Ang):
   XX=           -301.1215   YY=              1.4601   ZZ=             -0.5438
   XY=            -37.4689   XZ=            246.2261   YZ=              5.2363

 Normal termination of Gaussian 16 at Thu Sep 23 06:06:41 2021.
