 Gaussian 16, Revision A.03,
 Gaussian 16:  ES64L-G16RevA.03 25-Dec-2016

 -----------------------------------
 #p cam-b3lyp/Def2SVP td=(nstates=5)
 -----------------------------------

 --------------------------------
 TDDFT excited states in gaussian
 --------------------------------
 Symbolic Z-matrix:
 Charge =  0 Multiplicity = 1

                         Standard orientation:
 ---------------------------------------------------------------------
 Center     Atomic      Atomic             Coordinates (Angstroms)
 Number     Number       Type             X           Y           Z
 ---------------------------------------------------------------------
      1         12           0      -27.517643   -0.575069   -0.268161
      2          6           0      -25.294413    2.403222   -0.244742
      3          6           0      -28.742575    0.726470    2.600541
      4          6           0      -29.155307   -3.288869   -0.237060
      5          6           0      -25.356170   -1.869874   -2.783203
      6          7           0      -27.012901    1.306188    1.016592
      7          6           0      -26.233779    2.412587    0.723299
      8          6           0      -26.463917    3.617388    1.642817
      9          6           0      -27.220520    2.890473    2.797153
     10          6           0      -27.704784    1.541712    2.137346
     11          6           0      -26.412327    2.640803    4.031412
     12          6           0      -27.189144    4.860245    1.026164
     13          6           0      -26.847997    6.210288    1.562561
     14          1           0      -28.014300    7.189010    1.655594
     15          7           0      -28.853531   -1.213466    1.009155
     16          6           0      -29.305019   -0.509936    2.145386
     17          6           0      -30.426445   -1.225034    2.682886
     18          6           0      -30.628618   -2.320686    1.735607
     19          6           0      -29.547390   -2.281479    0.818417
     20          6           0      -31.301633   -0.751528    3.901772
     21          6           0      -31.770160   -3.290337    1.766854
     22          8           0      -31.852493   -4.248649    0.960463
     23          6           0      -32.912765   -3.172099    2.708167
     24          7           0      -27.238344   -2.400065   -1.206994
     25          6           0      -28.091429   -3.414030   -1.048665
     26          6           0      -27.775399   -4.654073   -1.945039
     27          6           0      -26.861751   -3.947409   -3.014542
     28          6           0      -26.404841   -2.657175   -2.280336
     29          6           0      -26.999032   -5.764255   -1.166226
     30          6           0      -27.658792   -3.569527   -4.333117
     31          6           0      -28.455333   -4.662053   -5.076963
     32          7           0      -25.729791    0.109622   -1.347608
     33          6           0      -25.038862   -0.524643   -2.373793
     34          6           0      -23.923689    0.295023   -2.786415
     35          6           0      -24.010126    1.457938   -2.010425
     36          6           0      -25.071143    1.279164   -1.080770
     37          6           0      -22.982744    0.025988   -3.912281
     38          6           0      -23.391921    2.756266   -1.775762
     39          8           0      -22.472694    3.367747   -2.304032
     40          6           0      -24.330410    3.423741   -0.642134
     41          6           0      -23.422899    3.881945    0.395742
     42          8           0      -22.675732    3.180200    1.095438
     43          8           0      -23.191615    5.211406    0.187036
     44          6           0      -22.275574    5.904448    1.034987
     45          1           0      -29.189060    1.274224    3.433264
     46          1           0      -29.695596   -4.237261   -0.263944
     47          1           0      -24.739012   -2.313902   -3.567535
     48          1           0      -25.485811    3.932989    2.006489
     49          1           0      -28.152905    3.405341    3.026920
     50          1           0      -26.185324    1.574873    4.051525
     51          1           0      -27.017380    2.847136    4.914152
     52          1           0      -25.470013    3.179396    4.129787
     53          1           0      -28.252949    4.733022    1.224720
     54          1           0      -27.055349    4.809054   -0.054048
     55          1           0      -26.120725    6.590932    0.845705
     56          1           0      -26.224801    6.161436    2.455607
     57          1           0      -32.288147   -0.363703    3.649565
     58          1           0      -30.760669   -0.042103    4.527438
     59          1           0      -31.384768   -1.676868    4.473156
     60          1           0      -32.577250   -3.494977    3.694034
     61          1           0      -33.678803   -3.846534    2.324544
     62          1           0      -33.261465   -2.142026    2.642173
     63          1           0      -28.740573   -5.015904   -2.301063
     64          1           0      -25.965114   -4.494103   -3.304974
     65          1           0      -27.677809   -6.613598   -1.084982
     66          1           0      -26.595445   -5.472834   -0.197081
     67          1           0      -26.197796   -5.999929   -1.868077
     68          1           0      -26.944025   -3.221608   -5.078499
     69          1           0      -28.269576   -2.704107   -4.076647
     70          1           0      -29.480758   -4.292991   -5.090066
     71          1           0      -28.387397   -5.530935   -4.421713
     72          1           0      -28.103332   -4.817280   -6.096706
     73          1           0      -23.456308   -0.782284   -4.470011
     74          1           0      -22.053757   -0.311128   -3.452545
     75          1           0      -22.747437    0.902934   -4.515328
     76          1           0      -24.882788    4.258986   -1.072267
     77          1           0      -21.872831    5.254741    1.812332
     78          1           0      -22.871783    6.676254    1.521924
     79          1           0      -21.522417    6.434998    0.454173
     80         12           0       26.436986   -0.839887    0.320785
     81          6           0       26.860746    2.217439   -1.537166
     82          6           0       25.804891    0.956545    3.064702
     83          6           0       26.941260   -3.641730    2.088871
     84          6           0       27.580830   -2.521059   -2.537456
     85          7           0       26.403218    1.301472    0.701903
     86          6           0       26.407305    2.371292   -0.209336
     87          6           0       25.976562    3.719084    0.485268
     88          6           0       25.717274    3.270676    1.955393
     89          6           0       25.932623    1.734575    1.906270
     90          6           0       26.544893    3.922233    3.034060
     91          6           0       24.727600    4.437446   -0.258562
     92          6           0       24.949459    5.907068   -0.636901
     93          1           0       23.899309    6.895345   -0.006148
     94          7           0       26.242777   -1.309261    2.302669
     95          6           0       25.985993   -0.451270    3.295191
     96          6           0       25.959005   -1.123577    4.595335
     97          6           0       26.391135   -2.461703    4.295966
     98          6           0       26.564328   -2.529798    2.841163
     99          6           0       25.602181   -0.447380    5.848995
    100          6           0       26.698562   -3.537732    5.384300
    101          8           0       27.001000   -4.682933    5.093460
    102          6           0       26.620595   -3.252014    6.850131
    103          7           0       27.133509   -2.731683   -0.161313
    104          6           0       27.130712   -3.781444    0.750924
    105          6           0       27.536186   -5.125087    0.060710
    106          6           0       27.387994   -4.787859   -1.469861
    107          6           0       27.307232   -3.262688   -1.409074
    108          6           0       28.870527   -5.803900    0.511439
    109          6           0       26.123495   -5.396198   -2.135924
    110          6           0       26.234970   -5.943210   -3.536662
    111          7           0       27.142355   -0.297624   -1.629416
    112          6           0       27.564302   -1.091306   -2.658004
    113          6           0       27.769010   -0.217323   -3.894563
    114          6           0       27.456772    1.065137   -3.513076
    115          6           0       27.150275    0.979193   -2.111669
    116          6           0       28.127477   -0.787609   -5.247974
    117          6           0       27.362167    2.459987   -3.905430
    118          8           0       27.599770    2.880436   -5.057067
    119          6           0       27.043791    3.336467   -2.552527
    120          6           0       28.163467    4.257363   -2.114551
    121          8           0       29.316469    3.819204   -1.931640
    122          8           0       27.788230    5.601363   -2.131094
    123          6           0       28.939036    6.497016   -2.127925
    124          1           0       25.485394    1.470721    3.973317
    125          1           0       27.020452   -4.520025    2.732387
    126          1           0       27.812918   -3.125879   -3.417068
    127          1           0       26.864869    4.338445    0.362728
    128          1           0       24.726817    3.663167    2.189785
    129          1           0       27.285099    4.621189    2.644400
    130          1           0       27.127332    3.058573    3.353135
    131          1           0       25.947569    4.460543    3.770562
    132          1           0       23.919159    4.314569    0.461612
    133          1           0       24.428528    3.830675   -1.112833
    134          1           0       24.982302    5.945506   -1.725727
    135          1           0       25.924152    6.227865   -0.267036
    136          1           0       26.291620   -0.458649    6.692602
    137          1           0       24.826834   -1.077916    6.282663
    138          1           0       25.090635    0.508921    5.737691
    139          1           0       25.582093   -2.969584    7.027014
    140          1           0       27.228004   -2.363560    7.025026
    141          1           0       26.969355   -4.157779    7.344590
    142          1           0       26.732953   -5.807240    0.339354
    143          1           0       28.288889   -5.008022   -2.042104
    144          1           0       29.194791   -5.209911    1.365616
    145          1           0       29.617074   -5.892693   -0.277274
    146          1           0       28.699895   -6.774252    0.979344
    147          1           0       25.502668   -4.500923   -2.107860
    148          1           0       25.612137   -6.153469   -1.541305
    149          1           0       25.672790   -6.877099   -3.530133
    150          1           0       27.258645   -6.189607   -3.820423
    151          1           0       25.649114   -5.271985   -4.165104
    152          1           0       28.236318   -1.864771   -5.122896
    153          1           0       29.115462   -0.416700   -5.519847
    154          1           0       27.388984   -0.472243   -5.984768
    155          1           0       26.106374    3.871242   -2.705415
    156          1           0       29.103127    7.048164   -3.052850
    157          1           0       29.880138    6.012670   -1.867078
    158          1           0       28.750549    7.226466   -1.340641
 ---------------------------------------------------------------------

 SCF Done:  E(RCAM-B3LYP) =  -4069.79510155     A.U. after   17 cycles

 Excitation energies and oscillator strengths:

 Excited State   1:      Singlet-A      1.6590 eV  747.36 nm  f=0.3867  <S**2>=0.000
     309 -> 316        0.15615
     311 -> 313        0.69165
     309 <- 316        0.10434
 This state for optimization and/or second-order correction.
 Total Energy, E(TD-HF/TD-DFT) =  -4069.73413586
 Copying the excited state density for this state as the 1-particle RhoCI density.

 Excited State   2:      Singlet-A      1.6980 eV  730.19 nm  f=0.4185  <S**2>=0.000
     310 -> 315       -0.17307
     312 -> 314        0.68839
     310 <- 315       -0.10784

 Excited State   3:      Singlet-A      2.1781 eV  569.22 nm  f=0.2156  <S**2>=0.000
     309 -> 313        0.66760
     311 -> 316       -0.21706

 Excited State   4:      Singlet-A      2.2865 eV  542.24 nm  f=0.0918  <S**2>=0.000
     310 -> 314        0.63012
     312 -> 315        0.31284

 Excited State   5:      Singlet-A      2.8445 eV  435.87 nm  f=0.0000  <S**2>=0.000
     312 -> 313        0.70711

 The electronic state is 1-A.
 Alpha  occ. eigenvalues --  -46.88916 -46.88373 -19.26692 -19.24829 -19.20845
 Alpha  occ. eigenvalues --  -19.19919 -19.19911 -19.19437 -19.18540 -19.17453
 Alpha  occ. eigenvalues --  -14.42558 -14.42327 -14.41642 -14.41450 -14.39724
 Alpha  occ. eigenvalues --  -14.39676 -14.39590 -14.39360 -10.40828 -10.39163
 Alpha  occ. eigenvalues --  -10.36497 -10.35997 -10.34920 -10.34010 -10.31737
 Alpha  occ. eigenvalues --  -10.31584 -10.31426 -10.31142 -10.30952 -10.30822
 Alpha  occ. eigenvalues --  -10.30752 -10.30717 -10.30641 -10.30470 -10.30383
 Alpha  occ. eigenvalues --  -10.30327 -10.30113 -10.29946 -10.29870 -10.29774
 Alpha  occ. eigenvalues --  -10.29495 -10.29128 -10.29092 -10.29076 -10.28995
 Alpha  occ. eigenvalues --  -10.28975 -10.28855 -10.28554 -10.28329 -10.28230
 Alpha  occ. eigenvalues --  -10.28139 -10.28133 -10.28129 -10.28039 -10.28034
 Alpha  occ. eigenvalues --  -10.28020 -10.27943 -10.27786 -10.27709 -10.27458
 Alpha  occ. eigenvalues --  -10.27442 -10.27403 -10.27355 -10.27282 -10.27214
 Alpha  occ. eigenvalues --  -10.27071 -10.27069 -10.26936 -10.26733 -10.26499
 Alpha  occ. eigenvalues --  -10.26407 -10.26212 -10.26140 -10.26134 -10.25961
 Alpha  occ. eigenvalues --  -10.25912 -10.25751 -10.25712 -10.25637 -10.25616
 Alpha  occ. eigenvalues --  -10.25560 -10.25553 -10.25524 -10.25491 -10.25420
 Alpha  occ. eigenvalues --  -10.25210  -3.17577  -3.17025  -1.92446  -1.92029
 Alpha  occ. eigenvalues --   -1.91906  -1.91899  -1.91464  -1.91353  -1.16556
 Alpha  occ. eigenvalues --   -1.16336  -1.10245  -1.10103  -1.09034  -1.07952
 Alpha  occ. eigenvalues --   -1.07485  -1.07039  -1.04933  -1.04053  -1.03912
 Alpha  occ. eigenvalues --   -1.03680  -1.03289  -1.02636  -1.02553  -1.01876
 Alpha  occ. eigenvalues --   -0.93723  -0.92626  -0.89573  -0.89109  -0.88816
 Alpha  occ. eigenvalues --   -0.88737  -0.88066  -0.88026  -0.87481  -0.87322
 Alpha  occ. eigenvalues --   -0.87222  -0.86857  -0.86261  -0.86114  -0.84763
 Alpha  occ. eigenvalues --   -0.84280  -0.84060  -0.83655  -0.83165  -0.82711
 Alpha  occ. eigenvalues --   -0.82093  -0.81929  -0.81198  -0.81085  -0.80871
 Alpha  occ. eigenvalues --   -0.80225  -0.78586  -0.78425  -0.77602  -0.77508
 Alpha  occ. eigenvalues --   -0.77307  -0.76923  -0.76246  -0.76217  -0.75465
 Alpha  occ. eigenvalues --   -0.74699  -0.73378  -0.72442  -0.70964  -0.70964
 Alpha  occ. eigenvalues --   -0.69311  -0.68994  -0.68665  -0.68397  -0.68194
 Alpha  occ. eigenvalues --   -0.67906  -0.66962  -0.66711  -0.65721  -0.65333
 Alpha  occ. eigenvalues --   -0.65155  -0.64985  -0.64923  -0.64890  -0.64499
 Alpha  occ. eigenvalues --   -0.64347  -0.62587  -0.62077  -0.60771  -0.60283
 Alpha  occ. eigenvalues --   -0.59801  -0.59767  -0.59544  -0.58912  -0.58883
 Alpha  occ. eigenvalues --   -0.58518  -0.58419  -0.58327  -0.57701  -0.57313
 Alpha  occ. eigenvalues --   -0.56251  -0.55928  -0.55653  -0.55423  -0.55111
 Alpha  occ. eigenvalues --   -0.54918  -0.54907  -0.54645  -0.54218  -0.53764
 Alpha  occ. eigenvalues --   -0.53720  -0.53509  -0.53253  -0.53128  -0.52894
 Alpha  occ. eigenvalues --   -0.52595  -0.52582  -0.52452  -0.52437  -0.51826
 Alpha  occ. eigenvalues --   -0.51780  -0.51612  -0.51481  -0.51440  -0.51268
 Alpha  occ. eigenvalues --   -0.51247  -0.51128  -0.51042  -0.50820  -0.50321
 Alpha  occ. eigenvalues --   -0.50243  -0.49927  -0.49869  -0.49739  -0.49602
 Alpha  occ. eigenvalues --   -0.49518  -0.49367  -0.49230  -0.49151  -0.48785
 Alpha  occ. eigenvalues --   -0.48754  -0.48619  -0.48351  -0.48315  -0.48172
 Alpha  occ. eigenvalues --   -0.48140  -0.47948  -0.47880  -0.47592  -0.47283
 Alpha  occ. eigenvalues --   -0.47231  -0.47017  -0.46749  -0.46548  -0.46478
 Alpha  occ. eigenvalues --   -0.46406  -0.46218  -0.46015  -0.45971  -0.45941
 Alpha  occ. eigenvalues --   -0.45669  -0.45417  -0.45362  -0.45137  -0.45000
 Alpha  occ. eigenvalues --   -0.44861  -0.44564  -0.44383  -0.44322  -0.44135
 Alpha  occ. eigenvalues --   -0.44027  -0.43972  -0.43809  -0.43726  -0.43607
 Alpha  occ. eigenvalues --   -0.43293  -0.43193  -0.43112  -0.42991  -0.42866
 Alpha  occ. eigenvalues --   -0.42844  -0.42705  -0.42662  -0.42133  -0.42033
 Alpha  occ. eigenvalues --   -0.41718  -0.41700  -0.41655  -0.41360  -0.41115
 Alpha  occ. eigenvalues --   -0.40779  -0.40705  -0.40654  -0.40553  -0.40171
 Alpha  occ. eigenvalues --   -0.39834  -0.39508  -0.39494  -0.39288  -0.39127
 Alpha  occ. eigenvalues --   -0.38598  -0.38286  -0.38262  -0.37804  -0.37784
 Alpha  occ. eigenvalues --   -0.37421  -0.37408  -0.37204  -0.36424  -0.36411
 Alpha  occ. eigenvalues --   -0.36101  -0.35846  -0.35147  -0.34635  -0.34430
 Alpha  occ. eigenvalues --   -0.34334  -0.33156  -0.32879  -0.31588  -0.31545
 Alpha  occ. eigenvalues --   -0.31418  -0.31382  -0.30689  -0.30381  -0.30152
 Alpha  occ. eigenvalues --   -0.29911  -0.29827  -0.29773  -0.24290  -0.24163
 Alpha  occ. eigenvalues --   -0.21748  -0.20770
 Alpha virt. eigenvalues --   -0.09678  -0.08419  -0.01310  -0.00797  -0.00036
 Alpha virt. eigenvalues --    0.00271   0.01725   0.01795   0.02235   0.02335
 Alpha virt. eigenvalues --    0.02811   0.03907   0.04543   0.04955   0.05551

 Mulliken charges:
               1
     1  Mg   0.846894
     2  C    0.005418
     3  C   -0.055094
     4  C   -0.031316
     5  C   -0.072648
     6  N   -0.231479
     7  C   -0.075690
     8  C   -0.050075
     9  C   -0.049643
    10  C   -0.041716
    11  C    0.095469
    12  C    0.083149
    13  C   -0.058022
    14  H    0.037262
    15  N   -0.406895
    16  C    0.180158
    17  C   -0.159271
    18  C   -0.027483
    19  C    0.117511
    20  C    0.116969
    21  C   -0.040709
    22  O   -0.244771
    23  C    0.073562
    24  N   -0.320037
    25  C    0.020738
    26  C   -0.057373
    27  C   -0.052514
    28  C    0.068268
    29  C    0.098073
    30  C    0.007923
    31  C    0.024830
    32  N   -0.315184
    33  C    0.105945
    34  C   -0.190309
    35  C    0.005567
    36  C    0.086709
    37  C    0.131696
    38  C    0.079955
    39  O   -0.155739
    40  C    0.008043
    41  C    0.184174
    42  O   -0.240430
    43  O   -0.318921
    44  C    0.170263
    45  H   -0.033451
    46  H   -0.013436
    47  H   -0.020861
    48  H    0.010332
    49  H   -0.000309
    50  H    0.022603
    51  H    0.011703
    52  H    0.026528
    53  H    0.008161
    54  H    0.007392
    55  H    0.024550
    56  H    0.021015
    57  H    0.046344
    58  H    0.017065
    59  H    0.021996
    60  H    0.041819
    61  H    0.028582
    62  H    0.025079
    63  H    0.021993
    64  H   -0.000194
    65  H    0.023681
    66  H    0.038018
    67  H    0.007171
    68  H   -0.000296
    69  H    0.009450
    70  H    0.020176
    71  H    0.016597
    72  H    0.025530
    73  H    0.010500
    74  H    0.036131
    75  H    0.041386
    76  H    0.041961
    77  H    0.049460
    78  H    0.016031
    79  H    0.044038
    80  Mg   0.838949
    81  C   -0.085767
    82  C   -0.073214
    83  C   -0.080471
    84  C   -0.091751
    85  N   -0.300387
    86  C   -0.058281
    87  C   -0.033049
    88  C   -0.060026
    89  C    0.087834
    90  C    0.072295
    91  C    0.046887
    92  C   -0.051499
    93  H    0.010883
    94  N   -0.369159
    95  C    0.094541
    96  C   -0.130019
    97  C   -0.034186
    98  C    0.097040
    99  C    0.117789
   100  C   -0.018386
   101  O   -0.206467
   102  C    0.074199
   103  N   -0.329476
   104  C    0.078659
   105  C   -0.014107
   106  C   -0.051163
   107  C    0.040968
   108  C    0.083603
   109  C    0.023093
   110  C    0.033901
   111  N   -0.304531
   112  C    0.131413
   113  C   -0.210476
   114  C    0.055751
   115  C    0.126770
   116  C    0.140657
   117  C    0.068213
   118  O   -0.187284
   119  C    0.029244
   120  C    0.231164
   121  O   -0.228402
   122  O   -0.337433
   123  C    0.158770
   124  H   -0.037800
   125  H   -0.010939
   126  H   -0.028612
   127  H    0.019759
   128  H    0.008391
   129  H    0.005483
   130  H    0.020660
   131  H    0.020458
   132  H    0.007941
   133  H    0.014277
   134  H    0.041817
   135  H    0.032801
   136  H    0.024556
   137  H    0.006561
   138  H    0.018703
   139  H    0.028791
   140  H    0.031847
   141  H    0.041555
   142  H    0.004099
   143  H    0.004857
   144  H    0.017565
   145  H    0.023624
   146  H    0.013188
   147  H    0.005373
   148  H    0.010962
   149  H    0.005706
   150  H    0.020906
   151  H    0.021836
   152  H    0.000831
   153  H    0.035313
   154  H    0.044357
   155  H    0.029885
   156  H    0.045612
   157  H    0.055272
   158  H    0.027280
 Sum of Mulliken charges =  -0.00000

 Dipole moment (field-independent basis, Debye):
    X=             -5.6593    Y=              2.1050    Z=              3.2653  Tot=              6.8645
 Quadrupole moment (field-independent basis, Debye-Ang):
   XX=           -534.8662   YY=           -493.7375   ZZ=           -496.8944
   XY=            -40.8837   XZ=             26.5593   YZ=             51.4190

 Normal termination of Gaussian 16 at Tue Sep 14 21:13:35 2021.
