 Gaussian 16, Revision A.03,
 Gaussian 16:  ES64L-G16RevA.03 25-Dec-2016

 ----------------------------------------------------------
 #p cam-b3lyp/Def2SVP td=(nstates=5) density=(transition=1)
 ----------------------------------------------------------

 --------------------------------
 TDDFT excited states in gaussian
 --------------------------------
 Symbolic Z-matrix:
 Charge =  0 Multiplicity = 1

                         Standard orientation:
 ---------------------------------------------------------------------
 Center     Atomic      Atomic             Coordinates (Angstroms)
 Number     Number       Type             X           Y           Z
 ---------------------------------------------------------------------
      1         12           0      -10.573307    0.324014    0.251745
      2          6           0       -8.177035    0.487338   -2.313680
      3          6           0      -11.026245   -3.004247   -0.482878
      4          6           0      -12.208714    0.082528    3.117522
      5          6           0       -9.818873    3.696259    1.074324
      6          7           0       -9.523484   -1.124868   -1.043752
      7          6           0       -8.553969   -0.844319   -2.040967
      8          6           0       -8.393369   -1.943848   -3.008061
      9          6           0       -9.406325   -3.033754   -2.448750
     10          6           0      -10.065703   -2.345051   -1.264271
     11          6           0      -10.342306   -3.594140   -3.546897
     12          6           0       -7.031349   -2.567937   -3.026451
     13          6           0       -6.314950   -2.704004   -1.674630
     14          1           0       -5.393656   -3.944607   -1.353211
     15          7           0      -11.546813   -1.240090    1.212619
     16          6           0      -11.707992   -2.464614    0.675755
     17          6           0      -12.595343   -3.220278    1.524013
     18          6           0      -13.020752   -2.333243    2.543447
     19          6           0      -12.287234   -1.076557    2.322674
     20          6           0      -12.953954   -4.672342    1.356159
     21          6           0      -14.032984   -2.657389    3.641774
     22          8           0      -14.549831   -3.755166    3.714012
     23          6           0      -14.436415   -1.787500    4.795320
     24          7           0      -10.750050    1.596337    1.982353
     25          6           0      -11.546800    1.279448    3.050121
     26          6           0      -11.823697    2.529293    3.948847
     27          6           0      -10.783221    3.555776    3.407207
     28          6           0      -10.439390    2.933796    2.071495
     29          6           0      -13.257787    3.105447    3.864309
     30          6           0       -9.388202    3.623495    4.190626
     31          6           0       -8.870201    4.975930    4.522647
     32          7           0       -9.404286    1.810684   -0.465084
     33          6           0       -9.364439    3.112233   -0.149489
     34          6           0       -8.741986    3.901013   -1.278761
     35          6           0       -8.316131    2.861661   -2.165801
     36          6           0       -8.611687    1.609635   -1.556088
     37          6           0       -8.548034    5.400932   -1.448735
     38          6           0       -7.539111    2.633069   -3.349733
     39          8           0       -6.969002    3.418414   -4.090512
     40          6           0       -7.449169    1.061100   -3.503054
     41          6           0       -5.997027    0.681115   -3.300534
     42          8           0       -5.364709    0.739946   -2.298186
     43          8           0       -5.535219    0.131741   -4.477669
     44          6           0       -4.239327   -0.541637   -4.345183
     45          1           0      -11.307997   -3.995019   -0.844906
     46          1           0      -12.885886    0.075628    3.973250
     47          1           0       -9.747984    4.759778    1.311669
     48          1           0       -8.622439   -1.548291   -3.997581
     49          1           0       -8.959089   -3.878909   -1.925597
     50          1           0      -10.242631   -4.663810   -3.361722
     51          1           0       -9.937848   -3.268001   -4.505165
     52          1           0      -11.387133   -3.321263   -3.397324
     53          1           0       -6.373810   -2.171793   -3.800737
     54          1           0       -7.007465   -3.600385   -3.375830
     55          1           0       -7.109595   -2.632284   -0.931228
     56          1           0       -5.758342   -1.768265   -1.619938
     57          1           0      -12.886441   -5.204624    2.305537
     58          1           0      -12.340273   -5.116502    0.572533
     59          1           0      -13.994286   -4.649862    1.030770
     60          1           0      -13.652725   -1.581556    5.523662
     61          1           0      -15.112893   -2.454255    5.330242
     62          1           0      -15.076349   -0.954588    4.502087
     63          1           0      -11.643336    2.238594    4.983691
     64          1           0      -11.192590    4.557102    3.271069
     65          1           0      -13.210215    4.082205    3.383208
     66          1           0      -13.791321    3.004089    4.809243
     67          1           0      -13.842224    2.477651    3.192650
     68          1           0       -8.616170    3.062641    3.664337
     69          1           0       -9.586948    3.084379    5.117042
     70          1           0       -8.679408    5.109916    5.587221
     71          1           0       -9.513130    5.785664    4.176805
     72          1           0       -7.902632    5.163356    4.057831
     73          1           0       -7.475670    5.560618   -1.561275
     74          1           0       -9.079714    5.898272   -0.636583
     75          1           0       -8.976106    5.639336   -2.422312
     76          1           0       -7.826661    0.716839   -4.465646
     77          1           0       -4.075756   -0.959963   -3.352128
     78          1           0       -3.520946    0.253178   -4.546170
     79          1           0       -4.167816   -1.213148   -5.200358
     80         12           0       10.160583    0.147859    0.641802
     81          6           0        7.751363   -1.333855   -1.482954
     82          6           0        9.847028    2.884301   -1.143347
     83          6           0       13.065299    1.035607    1.948153
     84          6           0       10.733136   -3.136551    1.871925
     85          7           0        8.741371    0.683383   -1.040615
     86          6           0        7.838301    0.022871   -1.668692
     87          6           0        6.979492    0.959642   -2.542991
     88          6           0        7.959351    2.215209   -2.797863
     89          6           0        8.985159    1.897720   -1.631631
     90          6           0        8.644448    2.300341   -4.218983
     91          6           0        5.668165    1.454269   -1.736362
     92          6           0        4.330453    1.735731   -2.494277
     93          1           0        4.464684    2.203343   -3.990330
     94          7           0       11.201106    1.829554    0.595449
     95          6           0       10.842003    2.906023   -0.201676
     96          6           0       11.835624    4.013632    0.026732
     97          6           0       12.776564    3.453129    0.988154
     98          6           0       12.442319    2.052869    1.262011
     99          6           0       11.735063    5.328039   -0.724026
    100          6           0       13.943526    4.162983    1.638580
    101          8           0       14.744074    3.631122    2.420276
    102          6           0       14.139744    5.599111    1.365599
    103          7           0       11.685436   -0.913912    1.882613
    104          6           0       12.796136   -0.285524    2.222997
    105          6           0       13.568080   -1.110773    3.346172
    106          6           0       12.760612   -2.517451    3.266565
    107          6           0       11.629529   -2.159268    2.306343
    108          6           0       15.113225   -1.200011    3.117805
    109          6           0       12.213902   -3.127170    4.599007
    110          6           0       12.861242   -4.397932    5.086398
    111          7           0        9.281290   -1.843968    0.465714
    112          6           0        9.658966   -3.038015    1.047093
    113          6           0        8.900851   -4.092781    0.516148
    114          6           0        8.167985   -3.469323   -0.511469
    115          6           0        8.428026   -2.120077   -0.556420
    116          6           0        8.937759   -5.492557    0.874571
    117          6           0        7.169365   -3.765510   -1.463943
    118          8           0        6.476193   -4.775226   -1.764221
    119          6           0        7.055800   -2.428272   -2.325292
    120          6           0        5.634511   -2.138572   -2.642083
    121          8           0        4.722662   -1.884244   -1.857881
    122          8           0        5.523217   -2.091696   -4.067566
    123          6           0        4.191512   -1.826325   -4.626602
    124          1           0        9.609547    3.809955   -1.672567
    125          1           0       13.991600    1.365400    2.421829
    126          1           0       10.862998   -4.127595    2.313235
    127          1           0        6.912054    0.500508   -3.528929
    128          1           0        7.361400    3.125173   -2.761189
    129          1           0        8.539049    1.371032   -4.778368
    130          1           0        9.720726    2.451369   -4.137682
    131          1           0        8.142043    3.115284   -4.739978
    132          1           0        5.894344    2.329416   -1.127012
    133          1           0        5.454142    0.717092   -0.962245
    134          1           0        3.707120    2.493119   -2.017882
    135          1           0        3.851027    0.767822   -2.645768
    136          1           0       11.882747    6.187704   -0.069380
    137          1           0       10.785734    5.453317   -1.244822
    138          1           0       12.403398    5.302294   -1.584350
    139          1           0       14.264164    5.783306    0.298130
    140          1           0       15.015561    5.961022    1.904259
    141          1           0       13.341594    6.257654    1.708212
    142          1           0       13.390067   -0.723262    4.349225
    143          1           0       13.296210   -3.265571    2.680285
    144          1           0       15.381184   -0.757544    2.158199
    145          1           0       15.275826   -2.268187    3.262966
    146          1           0       15.584245   -0.731762    3.981118
    147          1           0       11.159203   -3.353681    4.441236
    148          1           0       12.260653   -2.375301    5.387049
    149          1           0       13.720307   -4.508177    4.425946
    150          1           0       12.172319   -5.218951    4.884514
    151          1           0       13.224172   -4.334275    6.111483
    152          1           0        8.823443   -5.541106    1.957144
    153          1           0        9.908540   -5.981524    0.792847
    154          1           0        8.111309   -6.015844    0.393326
    155          1           0        7.622605   -2.570330   -3.245984
    156          1           0        4.207557   -1.901414   -5.714209
    157          1           0        3.956242   -0.773253   -4.471252
    158          1           0        3.492350   -2.574897   -4.255388
 ---------------------------------------------------------------------

 SCF Done:  E(RCAM-B3LYP) =  -4069.76859746     A.U. after   19 cycles

 Excitation energies and oscillator strengths:

 Excited State   1:      Singlet-A      1.6648 eV  744.75 nm  f=0.3700  <S**2>=0.000
     309 -> 316       -0.17248
     312 -> 313        0.68783
     309 <- 316       -0.10782
 This state for optimization and/or second-order correction.
 Total Energy, E(TD-HF/TD-DFT) =  -4069.70741786
 Copying the excited state density for this state as the 1-particle RhoCI density.

 Excited State   2:      Singlet-A      1.7995 eV  688.99 nm  f=0.3653  <S**2>=0.000
     310 -> 315        0.21199
     311 -> 314        0.67498
     310 <- 315        0.10949

 Excited State   3:      Singlet-A      2.2241 eV  557.45 nm  f=0.0811  <S**2>=0.000
     310 -> 314        0.62929
     311 -> 315       -0.30762

 Excited State   4:      Singlet-A      2.2660 eV  547.15 nm  f=0.1011  <S**2>=0.000
     309 -> 313        0.62927
     312 -> 316        0.30974

 Excited State   5:      Singlet-A      2.9254 eV  423.82 nm  f=0.0000  <S**2>=0.000
     312 -> 314        0.70705

 The electronic state is 1-A.
 Alpha  occ. eigenvalues --  -46.89346 -46.88510 -19.24506 -19.23906 -19.20331
 Alpha  occ. eigenvalues --  -19.20172 -19.19063 -19.18959 -19.18413 -19.18185
 Alpha  occ. eigenvalues --  -14.42299 -14.42102 -14.41817 -14.41679 -14.39927
 Alpha  occ. eigenvalues --  -14.39525 -14.39463 -14.38522 -10.39247 -10.39151
 Alpha  occ. eigenvalues --  -10.35087 -10.34929 -10.34541 -10.34449 -10.31472
 Alpha  occ. eigenvalues --  -10.31324 -10.31130 -10.31065 -10.30922 -10.30882
 Alpha  occ. eigenvalues --  -10.30740 -10.30706 -10.30656 -10.30591 -10.30579
 Alpha  occ. eigenvalues --  -10.30515 -10.30402 -10.30267 -10.30205 -10.29879
 Alpha  occ. eigenvalues --  -10.29246 -10.29211 -10.28649 -10.28592 -10.28580
 Alpha  occ. eigenvalues --  -10.28527 -10.28461 -10.28430 -10.28350 -10.28340
 Alpha  occ. eigenvalues --  -10.28272 -10.28259 -10.28124 -10.28024 -10.27993
 Alpha  occ. eigenvalues --  -10.27966 -10.27796 -10.27727 -10.27677 -10.27560
 Alpha  occ. eigenvalues --  -10.27493 -10.27425 -10.27395 -10.27362 -10.26975
 Alpha  occ. eigenvalues --  -10.26925 -10.26683 -10.26579 -10.26514 -10.26440
 Alpha  occ. eigenvalues --  -10.26399 -10.26339 -10.26337 -10.26315 -10.26196
 Alpha  occ. eigenvalues --  -10.25984 -10.25874 -10.25871 -10.25790 -10.25781
 Alpha  occ. eigenvalues --  -10.25439 -10.25431 -10.25378 -10.25330 -10.25063
 Alpha  occ. eigenvalues --  -10.24598  -3.17799  -3.17155  -1.92703  -1.92265
 Alpha  occ. eigenvalues --   -1.92085  -1.92016  -1.91615  -1.91473  -1.17169
 Alpha  occ. eigenvalues --   -1.13925  -1.10345  -1.09890  -1.09383  -1.08864
 Alpha  occ. eigenvalues --   -1.07249  -1.06685  -1.05731  -1.05169  -1.04514
 Alpha  occ. eigenvalues --   -1.03925  -1.03444  -1.03266  -1.02554  -1.01425
 Alpha  occ. eigenvalues --   -0.93109  -0.92913  -0.89764  -0.89457  -0.89371
 Alpha  occ. eigenvalues --   -0.88567  -0.88324  -0.87849  -0.87510  -0.87452
 Alpha  occ. eigenvalues --   -0.87315  -0.86866  -0.86270  -0.85741  -0.84673
 Alpha  occ. eigenvalues --   -0.84220  -0.84107  -0.83937  -0.82682  -0.82627
 Alpha  occ. eigenvalues --   -0.81997  -0.81615  -0.81463  -0.80803  -0.80628
 Alpha  occ. eigenvalues --   -0.80438  -0.78926  -0.77887  -0.77675  -0.77436
 Alpha  occ. eigenvalues --   -0.76907  -0.76759  -0.75964  -0.75839  -0.75200
 Alpha  occ. eigenvalues --   -0.75065  -0.73179  -0.72635  -0.72211  -0.71616
 Alpha  occ. eigenvalues --   -0.69537  -0.68885  -0.68735  -0.68629  -0.68563
 Alpha  occ. eigenvalues --   -0.67858  -0.67164  -0.67012  -0.65876  -0.65806
 Alpha  occ. eigenvalues --   -0.65613  -0.65542  -0.65004  -0.64557  -0.64449
 Alpha  occ. eigenvalues --   -0.64303  -0.62009  -0.61217  -0.60493  -0.60101
 Alpha  occ. eigenvalues --   -0.59940  -0.59349  -0.59240  -0.58983  -0.58872
 Alpha  occ. eigenvalues --   -0.58297  -0.58054  -0.57702  -0.57310  -0.57295
 Alpha  occ. eigenvalues --   -0.56952  -0.56489  -0.56017  -0.55724  -0.55441
 Alpha  occ. eigenvalues --   -0.55331  -0.55020  -0.54532  -0.54408  -0.53998
 Alpha  occ. eigenvalues --   -0.53749  -0.53472  -0.53185  -0.52964  -0.52929
 Alpha  occ. eigenvalues --   -0.52786  -0.52563  -0.52409  -0.52311  -0.52201
 Alpha  occ. eigenvalues --   -0.52196  -0.52070  -0.51556  -0.51480  -0.51342
 Alpha  occ. eigenvalues --   -0.51104  -0.51069  -0.50880  -0.50848  -0.50508
 Alpha  occ. eigenvalues --   -0.50311  -0.50065  -0.49825  -0.49535  -0.49506
 Alpha  occ. eigenvalues --   -0.49329  -0.49182  -0.49156  -0.48848  -0.48746
 Alpha  occ. eigenvalues --   -0.48699  -0.48619  -0.48538  -0.48343  -0.48286
 Alpha  occ. eigenvalues --   -0.47990  -0.47769  -0.47568  -0.47485  -0.47251
 Alpha  occ. eigenvalues --   -0.47122  -0.47042  -0.46989  -0.46839  -0.46749
 Alpha  occ. eigenvalues --   -0.46715  -0.46309  -0.46258  -0.46061  -0.45933
 Alpha  occ. eigenvalues --   -0.45805  -0.45541  -0.45437  -0.45295  -0.45152
 Alpha  occ. eigenvalues --   -0.44872  -0.44615  -0.44307  -0.44176  -0.43972
 Alpha  occ. eigenvalues --   -0.43890  -0.43869  -0.43815  -0.43529  -0.43506
 Alpha  occ. eigenvalues --   -0.43289  -0.43152  -0.42943  -0.42719  -0.42542
 Alpha  occ. eigenvalues --   -0.42447  -0.42306  -0.42136  -0.42041  -0.41881
 Alpha  occ. eigenvalues --   -0.41841  -0.41607  -0.41539  -0.41134  -0.41047
 Alpha  occ. eigenvalues --   -0.41019  -0.40722  -0.40703  -0.40605  -0.40300
 Alpha  occ. eigenvalues --   -0.40251  -0.40011  -0.39765  -0.39095  -0.38954
 Alpha  occ. eigenvalues --   -0.38449  -0.38336  -0.37788  -0.37782  -0.37354
 Alpha  occ. eigenvalues --   -0.37231  -0.36964  -0.36399  -0.36361  -0.36056
 Alpha  occ. eigenvalues --   -0.35659  -0.35548  -0.35010  -0.34429  -0.34150
 Alpha  occ. eigenvalues --   -0.33856  -0.33505  -0.32955  -0.31750  -0.31308
 Alpha  occ. eigenvalues --   -0.31256  -0.31037  -0.30474  -0.30462  -0.30205
 Alpha  occ. eigenvalues --   -0.29836  -0.29590  -0.29251  -0.24239  -0.24114
 Alpha  occ. eigenvalues --   -0.21626  -0.20978
 Alpha virt. eigenvalues --   -0.08712  -0.08568  -0.02603  -0.01715  -0.00192
 Alpha virt. eigenvalues --    0.00282   0.01444   0.02303   0.02378   0.02590
 Alpha virt. eigenvalues --    0.04627   0.05227   0.05507   0.05599   0.05679

 Mulliken charges:
               1
     1  Mg  11.997944
     2  C    5.965104
     3  C    6.015873
     4  C    6.028667
     5  C    5.986412
     6  N    6.993986
     7  C    6.045247
     8  C    5.984141
     9  C    6.009453
    10  C    5.968134
    11  C    6.002226
    12  C    5.995903
    13  C    5.992999
    14  H    1.009755
    15  N    7.012888
    16  C    5.950702
    17  C    5.977593
    18  C    5.994365
    19  C    5.948190
    20  C    6.004831
    21  C    5.989307
    22  O    7.980615
    23  C    6.004524
    24  N    7.003420
    25  C    5.963267
    26  C    6.007062
    27  C    5.994389
    28  C    6.024912
    29  C    5.999919
    30  C    5.991514
    31  C    5.999828
    32  N    6.994950
    33  C    6.042387
    34  C    6.039859
    35  C    5.995265
    36  C    6.044978
    37  C    5.997264
    38  C    6.013956
    39  O    8.026234
    40  C    6.002547
    41  C    6.002792
    42  O    8.003556
    43  O    8.002082
    44  C    5.998217
    45  H    0.987273
    46  H    0.992324
    47  H    1.011861
    48  H    1.002553
    49  H    1.002102
    50  H    0.999759
    51  H    0.986444
    52  H    1.002145
    53  H    0.996941
    54  H    1.009900
    55  H    1.010540
    56  H    0.992988
    57  H    0.981783
    58  H    0.980266
    59  H    0.980275
    60  H    0.988852
    61  H    0.988303
    62  H    0.988179
    63  H    0.999819
    64  H    0.999854
    65  H    0.986361
    66  H    0.999518
    67  H    1.004788
    68  H    0.999132
    69  H    1.015341
    70  H    1.005714
    71  H    1.000524
    72  H    0.996697
    73  H    1.020519
    74  H    1.019688
    75  H    1.020969
    76  H    1.010167
    77  H    1.004099
    78  H    1.001563
    79  H    1.005503
    80  Mg  11.999980
    81  C    5.999555
    82  C    5.999862
    83  C    6.000457
    84  C    6.000341
    85  N    6.999777
    86  C    6.000072
    87  C    5.999873
    88  C    6.000118
    89  C    5.999906
    90  C    6.000075
    91  C    6.000139
    92  C    6.000239
    93  H    0.999520
    94  N    7.000098
    95  C    5.999833
    96  C    5.999723
    97  C    6.000161
    98  C    5.999723
    99  C    6.000135
   100  C    6.000007
   101  O    8.000116
   102  C    5.999990
   103  N    7.000155
   104  C    5.999740
   105  C    6.000047
   106  C    5.999968
   107  C    6.000105
   108  C    5.999942
   109  C    5.999844
   110  C    5.999958
   111  N    6.999939
   112  C    6.000072
   113  C    6.000524
   114  C    5.999905
   115  C    6.000285
   116  C    5.999772
   117  C    6.000143
   118  O    8.000316
   119  C    5.999924
   120  C    6.000091
   121  O    7.999585
   122  O    8.000219
   123  C    6.000174
   124  H    0.999556
   125  H    1.000267
   126  H    1.000534
   127  H    0.999930
   128  H    0.999365
   129  H    1.000003
   130  H    1.000355
   131  H    0.999531
   132  H    0.999971
   133  H    1.000109
   134  H    0.998816
   135  H    0.999699
   136  H    0.999872
   137  H    0.999594
   138  H    0.999963
   139  H    1.000003
   140  H    1.000166
   141  H    0.999876
   142  H    1.000145
   143  H    1.000174
   144  H    1.000032
   145  H    1.000212
   146  H    1.000199
   147  H    0.999990
   148  H    1.000195
   149  H    1.000107
   150  H    1.000155
   151  H    1.000299
   152  H    1.000416
   153  H    1.000481
   154  H    1.000310
   155  H    1.000136
   156  H    1.000023
   157  H    0.999215
   158  H    0.999897
 Sum of Mulliken charges = 624.00000

 Dipole moment (field-independent basis, Debye):
    X=              6.1695    Y=              7.7191    Z=             -4.4239  Tot=             10.8267
 Quadrupole moment (field-independent basis, Debye-Ang):
   XX=           -125.3471   YY=              6.3400   ZZ=             -1.1160
   XY=            -84.2817   XZ=             49.4460   YZ=              0.1317

 Normal termination of Gaussian 16 at Tue Sep 21 19:15:15 2021.
