 Gaussian 16, Revision A.03,
 Gaussian 16:  ES64L-G16RevA.03 25-Dec-2016

 -----------------------------------
 #p cam-b3lyp/Def2SVP td=(nstates=5)
 -----------------------------------

 --------------------------------
 TDDFT excited states in gaussian
 --------------------------------
 Symbolic Z-matrix:
 Charge =  0 Multiplicity = 1

                         Standard orientation:
 ---------------------------------------------------------------------
 Center     Atomic      Atomic             Coordinates (Angstroms)
 Number     Number       Type             X           Y           Z
 ---------------------------------------------------------------------
      1         12           0        9.277000    0.648041   -0.065038
      2          6           0        6.886528   -1.735769   -1.503340
      3          6           0        7.291390    3.073013   -1.533556
      4          6           0       10.619662    2.715112    1.958411
      5          6           0       10.710603   -2.203799    1.585284
      6          7           0        7.149678    0.607208   -1.301003
      7          6           0        6.395342   -0.447506   -1.766637
      8          6           0        5.094120    0.106665   -2.454014
      9          6           0        5.388616    1.597944   -2.691842
     10          6           0        6.674935    1.779211   -1.799430
     11          6           0        5.695951    2.083851   -4.169112
     12          6           0        3.782844   -0.180721   -1.645403
     13          6           0        2.561058   -0.555711   -2.456225
     14          1           0        1.495292    0.563049   -2.677772
     15          7           0        9.102840    2.612042    0.107226
     16          6           0        8.334717    3.469880   -0.632116
     17          6           0        8.560662    4.869137   -0.177339
     18          6           0        9.518698    4.750466    0.863020
     19          6           0        9.750348    3.319083    1.040290
     20          6           0        7.842388    6.134434   -0.674149
     21          6           0       10.029072    5.834084    1.817179
     22          8           0        9.654623    6.985318    1.610887
     23          6           0       10.917700    5.613028    2.888937
     24          7           0       10.309187    0.245448    1.743669
     25          6           0       10.968469    1.361326    2.219770
     26          6           0       12.008702    0.886972    3.307066
     27          6           0       11.784358   -0.666041    3.379529
     28          6           0       10.958144   -0.893660    2.090939
     29          6           0       13.486923    1.285436    3.044170
     30          6           0       11.113189   -1.282036    4.672746
     31          6           0       11.995699   -1.492577    5.915367
     32          7           0        8.982477   -1.545268    0.047096
     33          6           0        9.726680   -2.537657    0.653152
     34          6           0        9.304745   -3.854381    0.240821
     35          6           0        8.185219   -3.583045   -0.631773
     36          6           0        7.945720   -2.166696   -0.710694
     37          6           0        9.904433   -5.128528    0.750627
     38          6           0        7.180068   -4.203490   -1.372737
     39          8           0        6.837039   -5.376152   -1.438738
     40          6           0        6.221481   -3.079886   -1.862981
     41          6           0        6.169401   -3.254376   -3.362852
     42          8           0        5.117779   -3.289997   -4.006601
     43          8           0        7.453444   -3.213279   -4.041499
     44          6           0        7.315797   -3.023450   -5.484600
     45          1           0        6.727010    3.855121   -2.044681
     46          1           0       11.283993    3.309342    2.589284
     47          1           0       11.300323   -2.966594    2.097785
     48          1           0        5.050553   -0.282442   -3.472266
     49          1           0        4.632706    2.237967   -2.236803
     50          1           0        4.796569    2.618659   -4.473656
     51          1           0        5.806709    1.237980   -4.846975
     52          1           0        6.605358    2.671938   -4.292097
     53          1           0        3.382548    0.678982   -1.107417
     54          1           0        3.936793   -1.012610   -0.957781
     55          1           0        2.146837   -1.457419   -2.005141
     56          1           0        2.903006   -0.832723   -3.453948
     57          1           0        8.555026    6.955796   -0.753652
     58          1           0        7.053272    6.290587    0.061295
     59          1           0        7.446874    5.990675   -1.678716
     60          1           0       11.881696    5.320128    2.471759
     61          1           0       10.555589    4.921469    3.649739
     62          1           0       10.886532    6.585493    3.381497
     63          1           0       11.804979    1.271789    4.305760
     64          1           0       12.710698   -1.209668    3.195474
     65          1           0       14.036168    0.343949    3.029219
     66          1           0       13.826422    1.903185    3.874986
     67          1           0       13.440763    1.813783    2.091113
     68          1           0       10.746671   -2.249278    4.327388
     69          1           0       10.323292   -0.631865    5.049408
     70          1           0       12.969472   -1.201689    5.520302
     71          1           0       12.095093   -2.552334    6.154484
     72          1           0       11.748064   -0.913753    6.804835
     73          1           0        9.796803   -5.082064    1.833509
     74          1           0       10.981444   -5.194256    0.597308
     75          1           0        9.324166   -6.010041    0.477737
     76          1           0        5.236108   -3.307616   -1.456890
     77          1           0        8.297187   -2.568970   -5.625516
     78          1           0        6.404759   -2.484314   -5.744207
     79          1           0        7.368186   -4.017579   -5.928691
     80         12           0       -9.229437    0.226523    0.148435
     81          6           0       -6.525558   -1.994811   -0.398119
     82          6           0       -7.246714    2.642645   -1.416736
     83          6           0      -11.678853    2.388567    0.473185
     84          6           0      -10.637903   -2.070378    2.346250
     85          7           0       -7.154759    0.257220   -0.808535
     86          6           0       -6.305777   -0.780839   -1.046847
     87          6           0       -5.000302   -0.428690   -1.780417
     88          6           0       -5.271797    1.149388   -1.966772
     89          6           0       -6.623896    1.332257   -1.343411
     90          6           0       -4.219363    2.080651   -1.244764
     91          6           0       -4.839618   -1.183883   -3.140009
     92          6           0       -3.788879   -2.252248   -3.416288
     93          1           0       -3.137912   -2.385110   -4.786721
     94          7           0       -9.495664    2.227649   -0.454611
     95          6           0       -8.537317    3.078351   -1.024212
     96          6           0       -9.123678    4.397709   -1.101940
     97          6           0      -10.458631    4.320261   -0.712674
     98          6           0      -10.612799    2.924611   -0.257993
     99          6           0       -8.344628    5.483261   -1.762715
    100          6           0      -11.547386    5.388045   -0.612007
    101          8           0      -12.697542    5.182713   -0.212451
    102          6           0      -11.232277    6.721885   -1.165214
    103          7           0      -10.883427    0.245070    1.324140
    104          6           0      -11.890970    1.152737    1.148792
    105          6           0      -13.230665    0.635661    1.774298
    106          6           0      -12.821787   -0.684578    2.414493
    107          6           0      -11.313244   -0.836420    2.073662
    108          6           0      -13.919866    1.671855    2.721133
    109          6           0      -13.695182   -1.820081    1.859554
    110          6           0      -14.236912   -2.824335    2.810673
    111          7           0       -8.692025   -1.610079    0.946907
    112          6           0       -9.366260   -2.444381    1.802273
    113          6           0       -8.646579   -3.663798    2.018537
    114          6           0       -7.502338   -3.631903    1.079738
    115          6           0       -7.610897   -2.329087    0.451514
    116          6           0       -9.048361   -4.786410    2.990471
    117          6           0       -6.312484   -4.335904    0.538578
    118          8           0       -5.930942   -5.507404    0.700996
    119          6           0       -5.652603   -3.282867   -0.443871
    120          6           0       -4.297948   -3.160974    0.180960
    121          8           0       -3.941209   -2.422300    1.090833
    122          8           0       -3.424703   -3.888299   -0.460371
    123          6           0       -2.054681   -4.044969    0.085607
    124          1           0       -6.591086    3.241494   -2.051820
    125          1           0      -12.545571    3.015726    0.690609
    126          1           0      -11.131152   -2.806928    2.983372
    127          1           0       -4.176629   -0.592602   -1.084454
    128          1           0       -5.377329    1.539418   -2.979590
    129          1           0       -3.583049    1.619318   -0.490027
    130          1           0       -4.734568    2.892935   -0.733264
    131          1           0       -3.572761    2.519139   -2.005072
    132          1           0       -4.651068   -0.418525   -3.893031
    133          1           0       -5.763057   -1.702867   -3.393780
    134          1           0       -4.401276   -3.150813   -3.339711
    135          1           0       -3.079987   -2.075610   -2.607291
    136          1           0       -8.845488    5.858813   -2.653950
    137          1           0       -7.357370    5.131386   -2.063124
    138          1           0       -8.191177    6.353095   -1.124731
    139          1           0      -10.822398    6.611093   -2.169200
    140          1           0      -10.398347    7.199920   -0.651064
    141          1           0      -12.092810    7.382523   -1.265825
    142          1           0      -13.849992    0.511543    0.886119
    143          1           0      -13.024645   -0.682301    3.485319
    144          1           0      -13.473717    2.665982    2.697712
    145          1           0      -13.913818    1.380524    3.770808
    146          1           0      -14.992558    1.688325    2.528919
    147          1           0      -13.020459   -2.310802    1.159256
    148          1           0      -14.596411   -1.490613    1.343096
    149          1           0      -13.899511   -3.782557    2.416312
    150          1           0      -15.314050   -2.698166    2.919574
    151          1           0      -13.796359   -2.797629    3.807551
    152          1           0       -8.586838   -4.597821    3.959064
    153          1           0       -8.729685   -5.736965    2.562966
    154          1           0      -10.123075   -4.808777    3.172318
    155          1           0       -5.589508   -3.764416   -1.419524
    156          1           0       -1.503658   -3.109522    0.176240
    157          1           0       -1.432897   -4.750014   -0.465766
    158          1           0       -1.968607   -4.488316    1.077172
 ---------------------------------------------------------------------

 SCF Done:  E(RCAM-B3LYP) =  -4069.75400889     A.U. after   17 cycles

 Excitation energies and oscillator strengths:

 Excited State   1:      Singlet-A      1.7213 eV  720.28 nm  f=0.2395  <S**2>=0.000
     309 -> 315       -0.19419
     311 -> 313        0.67069
     312 -> 314       -0.10960
     309 <- 315       -0.10896
 This state for optimization and/or second-order correction.
 Total Energy, E(TD-HF/TD-DFT) =  -4069.69075069
 Copying the excited state density for this state as the 1-particle RhoCI density.

 Excited State   2:      Singlet-A      1.7561 eV  706.01 nm  f=0.4738  <S**2>=0.000
     310 -> 316       -0.18140
     311 -> 313        0.10812
     312 -> 314        0.67490
     310 <- 316       -0.10354

 Excited State   3:      Singlet-A      2.2195 eV  558.61 nm  f=0.1159  <S**2>=0.000
     310 -> 314        0.63482
     312 -> 316        0.29274

 Excited State   4:      Singlet-A      2.2415 eV  553.14 nm  f=0.0663  <S**2>=0.000
     309 -> 313        0.61439
     311 -> 315        0.32998

 Excited State   5:      Singlet-A      2.7917 eV  444.12 nm  f=0.0000  <S**2>=0.000
     312 -> 313        0.70695

 The electronic state is 1-A.
 Alpha  occ. eigenvalues --  -46.90844 -46.88415 -19.25058 -19.23813 -19.20196
 Alpha  occ. eigenvalues --  -19.19496 -19.18864 -19.18720 -19.17983 -19.17953
 Alpha  occ. eigenvalues --  -14.42809 -14.42465 -14.42093 -14.41796 -14.40892
 Alpha  occ. eigenvalues --  -14.39716 -14.39222 -14.38867 -10.39495 -10.38440
 Alpha  occ. eigenvalues --  -10.35890 -10.35287 -10.35007 -10.33594 -10.32384
 Alpha  occ. eigenvalues --  -10.31982 -10.31689 -10.31643 -10.31612 -10.31524
 Alpha  occ. eigenvalues --  -10.31444 -10.31279 -10.31084 -10.30995 -10.30873
 Alpha  occ. eigenvalues --  -10.30810 -10.30632 -10.30396 -10.29736 -10.29476
 Alpha  occ. eigenvalues --  -10.29325 -10.29323 -10.29050 -10.29008 -10.28980
 Alpha  occ. eigenvalues --  -10.28875 -10.28751 -10.28646 -10.28617 -10.28606
 Alpha  occ. eigenvalues --  -10.28578 -10.28458 -10.28450 -10.28429 -10.28297
 Alpha  occ. eigenvalues --  -10.28124 -10.28116 -10.27926 -10.27906 -10.27858
 Alpha  occ. eigenvalues --  -10.27769 -10.27597 -10.27542 -10.27442 -10.27418
 Alpha  occ. eigenvalues --  -10.27124 -10.26992 -10.26953 -10.26927 -10.26889
 Alpha  occ. eigenvalues --  -10.26887 -10.26752 -10.26698 -10.26421 -10.26335
 Alpha  occ. eigenvalues --  -10.26301 -10.26298 -10.26237 -10.25870 -10.25772
 Alpha  occ. eigenvalues --  -10.25718 -10.25567 -10.25526 -10.25318 -10.25134
 Alpha  occ. eigenvalues --  -10.24776  -3.19255  -3.17012  -1.94100  -1.93762
 Alpha  occ. eigenvalues --   -1.93520  -1.91912  -1.91468  -1.91315  -1.17563
 Alpha  occ. eigenvalues --   -1.14048  -1.10532  -1.09999  -1.09068  -1.08232
 Alpha  occ. eigenvalues --   -1.06451  -1.06274  -1.05350  -1.05114  -1.03899
 Alpha  occ. eigenvalues --   -1.03444  -1.03442  -1.02672  -1.01244  -1.01168
 Alpha  occ. eigenvalues --   -0.92981  -0.91702  -0.89479  -0.89145  -0.89027
 Alpha  occ. eigenvalues --   -0.88933  -0.88651  -0.88576  -0.87596  -0.87081
 Alpha  occ. eigenvalues --   -0.87016  -0.86651  -0.86010  -0.85115  -0.84990
 Alpha  occ. eigenvalues --   -0.84219  -0.83942  -0.83798  -0.83334  -0.82714
 Alpha  occ. eigenvalues --   -0.82641  -0.82604  -0.81245  -0.80671  -0.80394
 Alpha  occ. eigenvalues --   -0.79973  -0.78676  -0.78345  -0.77433  -0.77354
 Alpha  occ. eigenvalues --   -0.77176  -0.76731  -0.76045  -0.75930  -0.75360
 Alpha  occ. eigenvalues --   -0.75055  -0.72924  -0.72113  -0.72017  -0.71699
 Alpha  occ. eigenvalues --   -0.69217  -0.69107  -0.68672  -0.68097  -0.67835
 Alpha  occ. eigenvalues --   -0.67467  -0.67147  -0.66800  -0.65710  -0.65693
 Alpha  occ. eigenvalues --   -0.65459  -0.65159  -0.65136  -0.64740  -0.64114
 Alpha  occ. eigenvalues --   -0.64066  -0.62225  -0.62007  -0.60853  -0.60467
 Alpha  occ. eigenvalues --   -0.59902  -0.59381  -0.59375  -0.59009  -0.58857
 Alpha  occ. eigenvalues --   -0.58372  -0.57675  -0.57515  -0.57251  -0.57080
 Alpha  occ. eigenvalues --   -0.56862  -0.56597  -0.55701  -0.55468  -0.54880
 Alpha  occ. eigenvalues --   -0.54843  -0.54410  -0.54184  -0.54028  -0.54001
 Alpha  occ. eigenvalues --   -0.53872  -0.53689  -0.53654  -0.53451  -0.53389
 Alpha  occ. eigenvalues --   -0.52973  -0.52827  -0.52591  -0.52495  -0.52417
 Alpha  occ. eigenvalues --   -0.52150  -0.51996  -0.51857  -0.51530  -0.51283
 Alpha  occ. eigenvalues --   -0.51105  -0.50682  -0.50477  -0.50331  -0.49994
 Alpha  occ. eigenvalues --   -0.49962  -0.49900  -0.49776  -0.49603  -0.49596
 Alpha  occ. eigenvalues --   -0.49301  -0.49225  -0.49051  -0.48956  -0.48709
 Alpha  occ. eigenvalues --   -0.48580  -0.48468  -0.48365  -0.48263  -0.48040
 Alpha  occ. eigenvalues --   -0.48031  -0.47926  -0.47847  -0.47707  -0.47380
 Alpha  occ. eigenvalues --   -0.47271  -0.46823  -0.46670  -0.46488  -0.46247
 Alpha  occ. eigenvalues --   -0.46205  -0.45998  -0.45982  -0.45718  -0.45467
 Alpha  occ. eigenvalues --   -0.45452  -0.45314  -0.45052  -0.45012  -0.44922
 Alpha  occ. eigenvalues --   -0.44770  -0.44590  -0.44539  -0.44449  -0.44215
 Alpha  occ. eigenvalues --   -0.44180  -0.44129  -0.43908  -0.43885  -0.43681
 Alpha  occ. eigenvalues --   -0.43296  -0.43072  -0.42919  -0.42661  -0.42647
 Alpha  occ. eigenvalues --   -0.42528  -0.42423  -0.42296  -0.42147  -0.42030
 Alpha  occ. eigenvalues --   -0.41808  -0.41602  -0.41510  -0.41440  -0.41294
 Alpha  occ. eigenvalues --   -0.41039  -0.40693  -0.40391  -0.40328  -0.40324
 Alpha  occ. eigenvalues --   -0.40012  -0.39876  -0.39730  -0.39459  -0.39368
 Alpha  occ. eigenvalues --   -0.38944  -0.38303  -0.37939  -0.37803  -0.37644
 Alpha  occ. eigenvalues --   -0.37308  -0.37102  -0.36510  -0.36504  -0.36163
 Alpha  occ. eigenvalues --   -0.35663  -0.35467  -0.34578  -0.34330  -0.33945
 Alpha  occ. eigenvalues --   -0.33290  -0.33266  -0.32953  -0.31830  -0.31826
 Alpha  occ. eigenvalues --   -0.31689  -0.31485  -0.31125  -0.30448  -0.30245
 Alpha  occ. eigenvalues --   -0.30199  -0.28823  -0.28594  -0.24554  -0.23802
 Alpha  occ. eigenvalues --   -0.21543  -0.21065
 Alpha virt. eigenvalues --   -0.08874  -0.08413  -0.02788  -0.01751  -0.00449
 Alpha virt. eigenvalues --   -0.00076   0.00503   0.02086   0.02196   0.02804
 Alpha virt. eigenvalues --    0.04261   0.04709   0.05227   0.05452   0.05934

 Mulliken charges:
               1
     1  Mg   0.834708
     2  C   -0.008292
     3  C   -0.051196
     4  C   -0.074689
     5  C   -0.087667
     6  N   -0.224557
     7  C   -0.071016
     8  C    0.059231
     9  C   -0.071806
    10  C   -0.036505
    11  C    0.062312
    12  C    0.059886
    13  C   -0.070928
    14  H    0.005407
    15  N   -0.409483
    16  C    0.147954
    17  C   -0.174553
    18  C   -0.015215
    19  C    0.192147
    20  C    0.144543
    21  C   -0.033205
    22  O   -0.215752
    23  C    0.089155
    24  N   -0.319181
    25  C    0.023107
    26  C   -0.073028
    27  C   -0.047543
    28  C    0.019251
    29  C    0.084267
    30  C    0.042735
    31  C    0.012934
    32  N   -0.344571
    33  C    0.143236
    34  C   -0.150738
    35  C    0.030892
    36  C    0.129368
    37  C    0.139407
    38  C   -0.006401
    39  O   -0.179545
    40  C   -0.020633
    41  C    0.217837
    42  O   -0.226792
    43  O   -0.389824
    44  C    0.179593
    45  H   -0.026838
    46  H   -0.046716
    47  H   -0.027439
    48  H    0.012176
    49  H    0.017302
    50  H    0.025443
    51  H    0.015372
    52  H    0.029185
    53  H    0.025327
    54  H    0.019212
    55  H    0.032889
    56  H    0.030937
    57  H    0.044860
    58  H    0.045336
    59  H    0.008661
    60  H    0.054073
    61  H    0.042127
    62  H    0.028200
    63  H    0.008700
    64  H   -0.003776
    65  H    0.017024
    66  H    0.020224
    67  H    0.021203
    68  H    0.004998
    69  H    0.011402
    70  H   -0.004561
    71  H    0.017716
    72  H    0.028446
    73  H    0.012820
    74  H    0.025237
    75  H    0.037896
    76  H    0.039686
    77  H    0.031663
    78  H    0.052482
    79  H    0.033886
    80  Mg   0.831921
    81  C    0.053264
    82  C   -0.082135
    83  C   -0.070607
    84  C   -0.080729
    85  N   -0.209679
    86  C   -0.071911
    87  C    0.011456
    88  C   -0.072033
    89  C   -0.024762
    90  C    0.046968
    91  C    0.028435
    92  C   -0.068827
    93  H    0.029817
    94  N   -0.362108
    95  C    0.170104
    96  C   -0.116597
    97  C   -0.038204
    98  C    0.148096
    99  C    0.098707
   100  C    0.036506
   101  O   -0.201086
   102  C    0.054055
   103  N   -0.348479
   104  C   -0.001145
   105  C   -0.010876
   106  C   -0.014539
   107  C    0.090597
   108  C    0.059040
   109  C    0.000460
   110  C    0.009606
   111  N   -0.370192
   112  C    0.134223
   113  C   -0.185272
   114  C   -0.007768
   115  C    0.094230
   116  C    0.119473
   117  C    0.044424
   118  O   -0.190404
   119  C   -0.048342
   120  C    0.168075
   121  O   -0.240450
   122  O   -0.278668
   123  C    0.188998
   124  H   -0.020502
   125  H   -0.008908
   126  H   -0.032352
   127  H    0.036808
   128  H    0.020002
   129  H    0.030127
   130  H    0.016955
   131  H    0.013995
   132  H    0.014451
   133  H    0.008126
   134  H    0.040587
   135  H    0.031106
   136  H    0.032176
   137  H    0.010564
   138  H    0.024507
   139  H    0.019397
   140  H    0.028053
   141  H    0.034215
   142  H    0.027569
   143  H    0.006741
   144  H    0.036934
   145  H    0.003163
   146  H    0.012517
   147  H    0.013137
   148  H    0.007054
   149  H    0.015277
   150  H    0.020725
   151  H    0.005546
   152  H    0.033312
   153  H    0.038652
   154  H    0.004948
   155  H    0.047071
   156  H    0.032752
   157  H    0.036468
   158  H    0.035177
 Sum of Mulliken charges =  -0.00000

 Dipole moment (field-independent basis, Debye):
    X=              4.4941    Y=              6.9519    Z=             -1.2502  Tot=              8.3719
 Quadrupole moment (field-independent basis, Debye-Ang):
   XX=           -421.9826   YY=           -569.4264   ZZ=           -487.6396
   XY=             -5.7619   XZ=             28.3537   YZ=            -26.8253

 Normal termination of Gaussian 16 at Thu Sep  2 15:28:12 2021.
