 Gaussian 16, Revision A.03,
 Gaussian 16:  ES64L-G16RevA.03 25-Dec-2016

 -----------------------------------
 #p cam-b3lyp/Def2SVP td=(nstates=5)
 -----------------------------------

 --------------------------------
 TDDFT excited states in gaussian
 --------------------------------
 Symbolic Z-matrix:
 Charge =  0 Multiplicity = 1

                         Standard orientation:
 ---------------------------------------------------------------------
 Center     Atomic      Atomic             Coordinates (Angstroms)
 Number     Number       Type             X           Y           Z
 ---------------------------------------------------------------------
      1         12           0      -13.546728   -0.525476    0.272727
      2          6           0      -13.553618    2.681042   -1.128288
      3          6           0      -12.334013    0.762446    3.196968
      4          6           0      -13.246418   -3.618289    1.406533
      5          6           0      -14.632614   -1.759672   -2.901236
      6          7           0      -12.965031    1.513985    0.916161
      7          6           0      -13.101748    2.704537    0.237495
      8          6           0      -12.894874    3.878612    1.176488
      9          6           0      -12.238588    3.205961    2.446412
     10          6           0      -12.634093    1.713569    2.179781
     11          6           0      -10.729802    3.399461    2.529146
     12          6           0      -14.234264    4.687992    1.327537
     13          6           0      -14.175371    5.779116    2.432391
     14          1           0      -12.822038    6.404882    2.698572
     15          7           0      -12.919971   -1.287974    2.001966
     16          6           0      -12.347490   -0.618714    3.076295
     17          6           0      -11.926180   -1.550131    4.137495
     18          6           0      -12.242788   -2.836395    3.601800
     19          6           0      -12.819755   -2.608161    2.279615
     20          6           0      -11.369261   -1.103415    5.437115
     21          6           0      -12.004663   -4.162356    4.277144
     22          8           0      -12.357647   -5.253558    3.749900
     23          6           0      -11.404158   -4.240929    5.654567
     24          7           0      -13.951591   -2.433369   -0.621497
     25          6           0      -13.730229   -3.530668    0.102702
     26          6           0      -13.949286   -4.833573   -0.785317
     27          6           0      -14.371148   -4.218182   -2.233858
     28          6           0      -14.303901   -2.723385   -1.917971
     29          6           0      -12.605094   -5.670847   -0.789448
     30          6           0      -15.838676   -4.598817   -2.707809
     31          6           0      -15.976885   -5.951398   -3.463896
     32          7           0      -13.942105    0.211796   -1.630071
     33          6           0      -14.488043   -0.364510   -2.807380
     34          6           0      -14.724794    0.728743   -3.848538
     35          6           0      -14.308297    1.923410   -3.269911
     36          6           0      -13.915532    1.558967   -1.884709
     37          6           0      -15.330109    0.583502   -5.209569
     38          6           0      -14.186185    3.353720   -3.427977
     39          8           0      -14.430048    4.106589   -4.376193
     40          6           0      -13.858153    3.945185   -1.968284
     41          6           0      -12.723740    4.944040   -1.983143
     42          8           0      -11.563245    4.645487   -1.897157
     43          8           0      -13.207983    6.266926   -1.870529
     44          6           0      -12.257768    7.296275   -1.423027
     45          1           0      -11.908406    1.315923    4.037029
     46          1           0      -13.130316   -4.637621    1.781029
     47          1           0      -14.862705   -2.075165   -3.921124
     48          1           0      -12.185315    4.554895    0.701460
     49          1           0      -12.677728    3.482273    3.405554
     50          1           0      -10.547957    3.873905    3.493359
     51          1           0      -10.404801    3.953638    1.648899
     52          1           0      -10.191026    2.462439    2.667863
     53          1           0      -14.968363    3.882918    1.336778
     54          1           0      -14.384926    5.172490    0.363413
     55          1           0      -14.550561    5.256353    3.312238
     56          1           0      -14.856197    6.581535    2.148673
     57          1           0      -10.355343   -1.501799    5.404473
     58          1           0      -11.951218   -1.441600    6.294055
     59          1           0      -11.235390   -0.037445    5.625603
     60          1           0      -12.081431   -3.765064    6.362432
     61          1           0      -10.470634   -3.715386    5.449648
     62          1           0      -11.128361   -5.234107    6.007932
     63          1           0      -14.794430   -5.278280   -0.258453
     64          1           0      -13.630891   -4.260090   -3.033965
     65          1           0      -11.787748   -5.217311   -0.229040
     66          1           0      -12.251310   -5.796901   -1.813053
     67          1           0      -12.839415   -6.596153   -0.263966
     68          1           0      -16.347596   -3.764510   -3.189699
     69          1           0      -16.415334   -4.730879   -1.792891
     70          1           0      -16.723464   -6.534211   -2.925568
     71          1           0      -14.990816   -6.411029   -3.532276
     72          1           0      -16.344107   -5.815774   -4.481452
     73          1           0      -16.327525    1.018790   -5.144296
     74          1           0      -15.362548   -0.467798   -5.498153
     75          1           0      -14.856545    1.112619   -6.036273
     76          1           0      -14.783640    4.398755   -1.614717
     77          1           0      -11.662964    7.526616   -2.306511
     78          1           0      -11.723813    6.968319   -0.530925
     79          1           0      -12.861390    8.144283   -1.100680
     80         12           0       12.885178   -0.803173   -0.465973
     81          6           0       14.914599    2.080527   -0.200134
     82          6           0       10.303272    1.009392    0.867233
     83          6           0       11.206484   -3.635638   -0.109665
     84          6           0       15.745622   -2.614290   -1.354329
     85          7           0       12.690687    1.269034    0.403670
     86          6           0       13.642720    2.284936    0.284020
     87          6           0       12.993657    3.655422    0.598232
     88          6           0       11.510584    3.277312    0.958739
     89          6           0       11.434226    1.746745    0.701797
     90          6           0       10.955031    3.818755    2.264384
     91          6           0       13.090268    4.727802   -0.498087
     92          6           0       13.723144    6.063207   -0.019290
     93          1           0       12.877418    7.298377   -0.236258
     94          7           0       10.965823   -1.212513    0.206880
     95          6           0       10.047990   -0.363427    0.751910
     96          6           0        8.814964   -1.096299    0.914162
     97          6           0        9.110606   -2.518812    0.766855
     98          6           0       10.485647   -2.465711    0.294546
     99          6           0        7.465921   -0.411048    1.480769
    100          6           0        8.408972   -3.718562    1.239649
    101          8           0        8.722401   -4.861970    1.067503
    102          6           0        7.143194   -3.471827    2.055093
    103          7           0       13.496879   -2.875752   -0.508163
    104          6           0       12.577448   -3.852969   -0.386141
    105          6           0       13.158393   -5.200257   -0.821616
    106          6           0       14.455139   -4.794609   -1.540385
    107          6           0       14.585011   -3.335673   -1.163546
    108          6           0       13.432302   -6.150415    0.432897
    109          6           0       14.226025   -4.942396   -3.130100
    110          6           0       13.307494   -3.872391   -3.780959
    111          7           0       14.928711   -0.421164   -0.863556
    112          6           0       15.930489   -1.242779   -1.216533
    113          6           0       17.126182   -0.456466   -1.359911
    114          6           0       16.763583    0.834684   -1.025122
    115          6           0       15.415317    0.825164   -0.657319
    116          6           0       18.521288   -0.899204   -1.757960
    117          6           0       17.355619    2.165041   -0.860987
    118          8           0       18.439093    2.676580   -0.898084
    119          6           0       16.167626    3.047931   -0.395611
    120          6           0       16.583679    3.618579    0.909620
    121          8           0       16.942617    2.913074    1.818674
    122          8           0       16.597944    5.003996    0.928086
    123          6           0       17.285837    5.647829    2.096858
    124          1           0        9.441997    1.642252    1.091718
    125          1           0       10.664414   -4.583887   -0.124396
    126          1           0       16.629162   -3.047873   -1.827486
    127          1           0       13.425396    4.041145    1.522002
    128          1           0       10.855239    3.786091    0.251528
    129          1           0       11.753768    4.163387    2.919488
    130          1           0       10.325332    3.109241    2.801790
    131          1           0       10.394132    4.714323    1.998269
    132          1           0       12.164870    5.074744   -0.957870
    133          1           0       13.673197    4.363096   -1.343527
    134          1           0       14.738117    6.182700   -0.398165
    135          1           0       13.826438    6.005465    1.063520
    136          1           0        6.645076   -0.702349    0.825533
    137          1           0        7.442955    0.678049    1.484394
    138          1           0        7.176795   -0.599880    2.514594
    139          1           0        6.489828   -2.955769    1.351213
    140          1           0        7.463671   -2.829208    2.874505
    141          1           0        6.620783   -4.375357    2.370975
    142          1           0       12.546686   -5.720957   -1.559123
    143          1           0       15.404750   -5.253902   -1.264917
    144          1           0       13.334946   -7.176626    0.077641
    145          1           0       12.774911   -6.073598    1.299605
    146          1           0       14.471450   -5.948997    0.692637
    147          1           0       13.854761   -5.927115   -3.413311
    148          1           0       15.157052   -4.723163   -3.652993
    149          1           0       13.016122   -4.069946   -4.812003
    150          1           0       13.852936   -2.928547   -3.777814
    151          1           0       12.425387   -3.769467   -3.148141
    152          1           0       18.592773   -1.308414   -2.765443
    153          1           0       18.749766   -1.691206   -1.045254
    154          1           0       19.271435   -0.125622   -1.593890
    155          1           0       16.138391    3.838604   -1.145119
    156          1           0       16.550477    6.422832    2.312992
    157          1           0       18.237450    6.108270    1.831934
    158          1           0       17.513311    5.066200    2.989853
 ---------------------------------------------------------------------

 SCF Done:  E(RCAM-B3LYP) =  -4069.83258662     A.U. after   19 cycles

 Excitation energies and oscillator strengths:

 Excited State   1:      Singlet-A      1.7033 eV  727.90 nm  f=0.4009  <S**2>=0.000
     309 -> 316       -0.17290
     311 -> 313        0.67720
     312 -> 314       -0.11653
     309 <- 316       -0.10603
 This state for optimization and/or second-order correction.
 Total Energy, E(TD-HF/TD-DFT) =  -4069.76999103
 Copying the excited state density for this state as the 1-particle RhoCI density.

 Excited State   2:      Singlet-A      1.7145 eV  723.17 nm  f=0.3868  <S**2>=0.000
     310 -> 315        0.19660
     311 -> 313        0.11749
     312 -> 314        0.67032
     310 <- 315        0.11000

 Excited State   3:      Singlet-A      2.1917 eV  565.69 nm  f=0.1371  <S**2>=0.000
     309 -> 313        0.65685
     311 -> 316        0.24835

 Excited State   4:      Singlet-A      2.2903 eV  541.34 nm  f=0.0345  <S**2>=0.000
     310 -> 314        0.58795
     312 -> 315       -0.38620

 Excited State   5:      Singlet-A      2.7141 eV  456.82 nm  f=0.0000  <S**2>=0.000
     312 -> 313        0.70707

 The electronic state is 1-A.
 Alpha  occ. eigenvalues --  -46.89553 -46.88104 -19.25156 -19.24018 -19.20342
 Alpha  occ. eigenvalues --  -19.19616 -19.19291 -19.19218 -19.18420 -19.18410
 Alpha  occ. eigenvalues --  -14.42185 -14.42121 -14.41931 -14.41591 -14.39985
 Alpha  occ. eigenvalues --  -14.39910 -14.39782 -14.39239 -10.39461 -10.38806
 Alpha  occ. eigenvalues --  -10.35569 -10.35275 -10.35165 -10.34386 -10.31822
 Alpha  occ. eigenvalues --  -10.31803 -10.31538 -10.30950 -10.30786 -10.30784
 Alpha  occ. eigenvalues --  -10.30769 -10.30764 -10.30644 -10.30397 -10.30392
 Alpha  occ. eigenvalues --  -10.30347 -10.30250 -10.30147 -10.29972 -10.29657
 Alpha  occ. eigenvalues --  -10.29638 -10.29511 -10.29362 -10.29258 -10.29171
 Alpha  occ. eigenvalues --  -10.29138 -10.28686 -10.28578 -10.28325 -10.28219
 Alpha  occ. eigenvalues --  -10.28197 -10.28174 -10.28042 -10.28037 -10.28005
 Alpha  occ. eigenvalues --  -10.27900 -10.27777 -10.27775 -10.27747 -10.27646
 Alpha  occ. eigenvalues --  -10.27608 -10.27520 -10.27405 -10.27198 -10.27035
 Alpha  occ. eigenvalues --  -10.26998 -10.26939 -10.26657 -10.26651 -10.26563
 Alpha  occ. eigenvalues --  -10.26519 -10.26467 -10.26462 -10.26283 -10.26252
 Alpha  occ. eigenvalues --  -10.26183 -10.26020 -10.25973 -10.25971 -10.25810
 Alpha  occ. eigenvalues --  -10.25612 -10.25595 -10.25421 -10.25183 -10.25076
 Alpha  occ. eigenvalues --  -10.25052  -3.17955  -3.16786  -1.92838  -1.92425
 Alpha  occ. eigenvalues --   -1.92249  -1.91691  -1.91227  -1.91117  -1.15702
 Alpha  occ. eigenvalues --   -1.15517  -1.11680  -1.11078  -1.09150  -1.07834
 Alpha  occ. eigenvalues --   -1.07817  -1.07635  -1.05197  -1.04363  -1.04300
 Alpha  occ. eigenvalues --   -1.03844  -1.03500  -1.02831  -1.02008  -1.01410
 Alpha  occ. eigenvalues --   -0.92371  -0.91641  -0.88946  -0.88887  -0.88823
 Alpha  occ. eigenvalues --   -0.88614  -0.88228  -0.87859  -0.87751  -0.87597
 Alpha  occ. eigenvalues --   -0.86757  -0.86554  -0.86354  -0.86341  -0.84422
 Alpha  occ. eigenvalues --   -0.84284  -0.83506  -0.82970  -0.82516  -0.82223
 Alpha  occ. eigenvalues --   -0.81961  -0.81221  -0.80875  -0.80791  -0.80178
 Alpha  occ. eigenvalues --   -0.80036  -0.78996  -0.78390  -0.77450  -0.77432
 Alpha  occ. eigenvalues --   -0.77012  -0.76774  -0.76176  -0.75800  -0.75235
 Alpha  occ. eigenvalues --   -0.74576  -0.73114  -0.72101  -0.71776  -0.71504
 Alpha  occ. eigenvalues --   -0.69447  -0.69374  -0.69208  -0.68642  -0.68309
 Alpha  occ. eigenvalues --   -0.68088  -0.67311  -0.67097  -0.65540  -0.65495
 Alpha  occ. eigenvalues --   -0.65331  -0.65167  -0.65164  -0.64451  -0.63979
 Alpha  occ. eigenvalues --   -0.63799  -0.62291  -0.61303  -0.60669  -0.60423
 Alpha  occ. eigenvalues --   -0.59730  -0.59529  -0.59295  -0.58762  -0.58731
 Alpha  occ. eigenvalues --   -0.58136  -0.57834  -0.57546  -0.57546  -0.56804
 Alpha  occ. eigenvalues --   -0.56184  -0.55997  -0.55985  -0.55381  -0.55231
 Alpha  occ. eigenvalues --   -0.54588  -0.54554  -0.54276  -0.54209  -0.53988
 Alpha  occ. eigenvalues --   -0.53714  -0.53438  -0.53282  -0.52954  -0.52683
 Alpha  occ. eigenvalues --   -0.52542  -0.52445  -0.52240  -0.52139  -0.51936
 Alpha  occ. eigenvalues --   -0.51896  -0.51776  -0.51504  -0.51472  -0.51271
 Alpha  occ. eigenvalues --   -0.51189  -0.50863  -0.50775  -0.50514  -0.50093
 Alpha  occ. eigenvalues --   -0.50043  -0.49810  -0.49568  -0.49519  -0.49463
 Alpha  occ. eigenvalues --   -0.49394  -0.49355  -0.49330  -0.49045  -0.49035
 Alpha  occ. eigenvalues --   -0.48910  -0.48536  -0.48418  -0.48297  -0.48140
 Alpha  occ. eigenvalues --   -0.48088  -0.47951  -0.47586  -0.47481  -0.47417
 Alpha  occ. eigenvalues --   -0.47017  -0.46909  -0.46443  -0.46213  -0.46142
 Alpha  occ. eigenvalues --   -0.46109  -0.46107  -0.45910  -0.45764  -0.45626
 Alpha  occ. eigenvalues --   -0.45604  -0.45316  -0.45239  -0.45192  -0.45115
 Alpha  occ. eigenvalues --   -0.44884  -0.44683  -0.44528  -0.44211  -0.44065
 Alpha  occ. eigenvalues --   -0.44023  -0.43694  -0.43499  -0.43397  -0.43342
 Alpha  occ. eigenvalues --   -0.43153  -0.43101  -0.43067  -0.42930  -0.42911
 Alpha  occ. eigenvalues --   -0.42583  -0.42447  -0.42368  -0.42320  -0.42133
 Alpha  occ. eigenvalues --   -0.42084  -0.41996  -0.41549  -0.41474  -0.41374
 Alpha  occ. eigenvalues --   -0.41317  -0.40940  -0.40933  -0.40358  -0.40324
 Alpha  occ. eigenvalues --   -0.40219  -0.39745  -0.39261  -0.39101  -0.39089
 Alpha  occ. eigenvalues --   -0.38534  -0.38338  -0.38246  -0.38075  -0.38018
 Alpha  occ. eigenvalues --   -0.37849  -0.37034  -0.36682  -0.36374  -0.36312
 Alpha  occ. eigenvalues --   -0.36247  -0.35926  -0.34574  -0.34413  -0.34174
 Alpha  occ. eigenvalues --   -0.34095  -0.33407  -0.33207  -0.31627  -0.31346
 Alpha  occ. eigenvalues --   -0.31231  -0.30961  -0.30539  -0.30521  -0.30400
 Alpha  occ. eigenvalues --   -0.30311  -0.30161  -0.30060  -0.24187  -0.24015
 Alpha  occ. eigenvalues --   -0.21591  -0.20458
 Alpha virt. eigenvalues --   -0.09182  -0.07917  -0.02169  -0.01439  -0.00242
 Alpha virt. eigenvalues --    0.00548   0.01679   0.02141   0.02501   0.03231
 Alpha virt. eigenvalues --    0.04453   0.04919   0.05298   0.05660   0.05843

 Mulliken charges:
               1
     1  Mg   0.842048
     2  C   -0.020569
     3  C   -0.090092
     4  C   -0.079586
     5  C   -0.078325
     6  N   -0.250683
     7  C   -0.044773
     8  C   -0.012989
     9  C   -0.082139
    10  C   -0.014513
    11  C    0.091577
    12  C    0.015943
    13  C   -0.044465
    14  H    0.032039
    15  N   -0.411433
    16  C    0.200945
    17  C   -0.144032
    18  C   -0.033936
    19  C    0.153106
    20  C    0.122217
    21  C   -0.007208
    22  O   -0.241850
    23  C    0.080573
    24  N   -0.275374
    25  C    0.019540
    26  C   -0.035734
    27  C    0.002858
    28  C    0.012032
    29  C    0.060807
    30  C    0.002607
    31  C    0.023773
    32  N   -0.368232
    33  C    0.111827
    34  C   -0.177369
    35  C    0.032686
    36  C    0.112086
    37  C    0.110964
    38  C    0.071998
    39  O   -0.179444
    40  C   -0.071624
    41  C    0.225340
    42  O   -0.190789
    43  O   -0.375591
    44  C    0.183829
    45  H   -0.034912
    46  H   -0.005824
    47  H   -0.023928
    48  H    0.008458
    49  H    0.003706
    50  H    0.006395
    51  H    0.036601
    52  H    0.014567
    53  H    0.016735
    54  H    0.015042
    55  H    0.036718
    56  H    0.035963
    57  H    0.032096
    58  H    0.035760
    59  H    0.011967
    60  H    0.044626
    61  H    0.019867
    62  H    0.028197
    63  H    0.024754
    64  H    0.018526
    65  H    0.031692
    66  H    0.016274
    67  H    0.027750
    68  H    0.011365
    69  H   -0.004909
    70  H    0.020030
    71  H    0.018645
    72  H    0.014684
    73  H    0.037920
    74  H    0.005652
    75  H    0.037444
    76  H    0.063043
    77  H    0.049815
    78  H    0.033216
    79  H    0.034017
    80  Mg   0.813096
    81  C   -0.023614
    82  C   -0.077235
    83  C   -0.061963
    84  C   -0.064337
    85  N   -0.302467
    86  C   -0.035122
    87  C    0.006895
    88  C   -0.058618
    89  C    0.050775
    90  C    0.068897
    91  C    0.056681
    92  C   -0.088689
    93  H    0.008356
    94  N   -0.363100
    95  C    0.161154
    96  C   -0.116926
    97  C   -0.041600
    98  C    0.130607
    99  C    0.062485
   100  C   -0.022240
   101  O   -0.176318
   102  C    0.054520
   103  N   -0.263216
   104  C    0.030021
   105  C   -0.035204
   106  C   -0.014474
   107  C    0.032510
   108  C    0.066525
   109  C    0.004384
   110  C   -0.014671
   111  N   -0.320754
   112  C    0.065164
   113  C   -0.162599
   114  C   -0.035083
   115  C    0.140033
   116  C    0.116970
   117  C    0.069113
   118  O   -0.136700
   119  C    0.003802
   120  C    0.181184
   121  O   -0.201546
   122  O   -0.351185
   123  C    0.165239
   124  H   -0.034098
   125  H   -0.000943
   126  H   -0.031176
   127  H    0.018583
   128  H    0.008187
   129  H    0.008507
   130  H    0.022367
   131  H    0.009350
   132  H    0.019212
   133  H    0.009191
   134  H    0.046125
   135  H    0.015579
   136  H    0.027313
   137  H    0.003874
   138  H    0.033128
   139  H    0.021965
   140  H    0.036715
   141  H    0.022587
   142  H    0.016637
   143  H    0.012824
   144  H    0.017370
   145  H    0.035513
   146  H    0.016200
   147  H    0.020231
   148  H    0.002077
   149  H    0.023748
   150  H    0.021698
   151  H    0.021082
   152  H    0.029163
   153  H    0.019732
   154  H    0.036342
   155  H    0.033862
   156  H    0.035872
   157  H    0.044050
   158  H    0.056384
 Sum of Mulliken charges =  -0.00000

 Dipole moment (field-independent basis, Debye):
    X=             -3.0944    Y=              1.3977    Z=              3.0844  Tot=              4.5871
 Quadrupole moment (field-independent basis, Debye-Ang):
   XX=           -578.4754   YY=           -507.6709   ZZ=           -498.0443
   XY=             -7.9946   XZ=            -72.7431   YZ=             51.8273

 Normal termination of Gaussian 16 at Wed Sep  1 19:45:40 2021.
