 Gaussian 16, Revision A.03,
 Gaussian 16:  ES64L-G16RevA.03 25-Dec-2016

 -----------------------------------
 #p cam-b3lyp/Def2SVP td=(nstates=5)
 -----------------------------------

 --------------------------------
 TDDFT excited states in gaussian
 --------------------------------
 Symbolic Z-matrix:
 Charge =  0 Multiplicity = 1

                         Standard orientation:
 ---------------------------------------------------------------------
 Center     Atomic      Atomic             Coordinates (Angstroms)
 Number     Number       Type             X           Y           Z
 ---------------------------------------------------------------------
      1         12           0       29.467197    0.749206   -0.461581
      2          6           0       28.375636   -2.734796   -0.093013
      3          6           0       26.487794    1.539770    1.112538
      4          6           0       30.778431    3.579472    0.201839
      5          6           0       32.566941   -0.633135   -1.641620
      6          7           0       27.659901   -0.574691    0.556140
      7          6           0       27.432545   -1.933512    0.569357
      8          6           0       26.140930   -2.236951    1.413410
      9          6           0       25.430770   -0.877436    1.534224
     10          6           0       26.577682    0.086500    1.045046
     11          6           0       24.123863   -0.625592    0.673145
     12          6           0       26.433151   -2.946474    2.779818
     13          6           0       25.459195   -4.026615    3.198765
     14          1           0       24.404413   -3.638782    4.282085
     15          7           0       28.720196    2.369330    0.395444
     16          6           0       27.459914    2.571082    0.888912
     17          6           0       27.334116    3.964448    1.397339
     18          6           0       28.604786    4.545659    1.148633
     19          6           0       29.438751    3.479093    0.600108
     20          6           0       26.122056    4.587306    2.109149
     21          6           0       29.131042    5.913329    1.593226
     22          8           0       28.336582    6.666690    2.149453
     23          6           0       30.444313    6.380543    1.382938
     24          7           0       31.519145    1.286236   -0.457066
     25          6           0       31.693566    2.653181   -0.370194
     26          6           0       33.183163    2.981896   -0.773129
     27          6           0       33.809225    1.569238   -1.055749
     28          6           0       32.528664    0.705652   -1.152123
     29          6           0       33.357938    3.981027   -1.949655
     30          6           0       34.881201    0.992127   -0.045731
     31          6           0       36.328787    1.501134   -0.158270
     32          7           0       30.367902   -1.233021   -0.873200
     33          6           0       31.565529   -1.588595   -1.460765
     34          6           0       31.617672   -2.997854   -1.765852
     35          6           0       30.360431   -3.492404   -1.252873
     36          6           0       29.610981   -2.421789   -0.651424
     37          6           0       32.799339   -3.682926   -2.380113
     38          6           0       29.628935   -4.661505   -1.046901
     39          8           0       29.936385   -5.837570   -1.186570
     40          6           0       28.390849   -4.273995   -0.187429
     41          6           0       27.206268   -4.761902   -0.988359
     42          8           0       26.292277   -5.436338   -0.507374
     43          8           0       27.114278   -4.247529   -2.344078
     44          6           0       25.791478   -4.455492   -2.930998
     45          1           0       25.524660    1.823695    1.540587
     46          1           0       31.301201    4.538194    0.198698
     47          1           0       33.532693   -0.888096   -2.082755
     48          1           0       25.447084   -2.802067    0.789421
     49          1           0       25.252300   -0.604379    2.574261
     50          1           0       23.308278   -0.670637    1.394566
     51          1           0       23.960813   -1.432615   -0.040569
     52          1           0       24.119598    0.288525    0.079541
     53          1           0       26.365487   -2.297224    3.653118
     54          1           0       27.407683   -3.434416    2.752181
     55          1           0       26.052961   -4.898574    3.473106
     56          1           0       24.881041   -4.305535    2.317257
     57          1           0       25.981502    5.613418    1.768346
     58          1           0       26.365337    4.492047    3.167311
     59          1           0       25.203601    4.063056    1.848659
     60          1           0       30.587178    6.511048    0.309777
     61          1           0       31.225330    5.777265    1.845827
     62          1           0       30.431426    7.294792    1.977294
     63          1           0       33.769179    3.419526    0.034363
     64          1           0       34.235392    1.517405   -2.057353
     65          1           0       33.947926    3.444089   -2.692557
     66          1           0       33.913089    4.844361   -1.584153
     67          1           0       32.332308    4.207665   -2.243453
     68          1           0       34.863064   -0.079387   -0.247462
     69          1           0       34.620933    1.240914    0.983297
     70          1           0       36.248863    2.136914   -1.040496
     71          1           0       37.008011    0.699176   -0.450944
     72          1           0       36.726712    2.059402    0.688788
     73          1           0       33.633019   -3.468533   -1.712737
     74          1           0       33.107490   -3.249403   -3.331365
     75          1           0       32.724274   -4.769922   -2.347729
     76          1           0       28.449011   -4.859430    0.729966
     77          1           0       25.855635   -3.623774   -3.633611
     78          1           0       25.006765   -4.493084   -2.175441
     79          1           0       25.861478   -5.367706   -3.523636
     80         12           0      -29.937906   -0.083195   -0.593071
     81          6           0      -26.771025    1.034834    0.669896
     82          6           0      -29.208509   -3.149989    1.086999
     83          6           0      -33.162262   -1.017309   -0.733861
     84          6           0      -30.654154    3.147868   -1.455353
     85          7           0      -28.214874   -0.885781    0.728101
     86          6           0      -27.044801   -0.276304    1.075877
     87          6           0      -26.134848   -1.211823    1.946119
     88          6           0      -26.816578   -2.637616    1.675652
     89          6           0      -28.191986   -2.189992    1.207157
     90          6           0      -26.140174   -3.470334    0.610890
     91          6           0      -25.980248   -0.739667    3.382363
     92          6           0      -24.559187   -0.783638    4.001777
     93          1           0      -24.127219   -1.969645    4.983943
     94          7           0      -31.069034   -1.929693    0.004376
     95          6           0      -30.523981   -3.088701    0.595280
     96          6           0      -31.583492   -4.097623    0.716176
     97          6           0      -32.755871   -3.478046    0.128463
     98          6           0      -32.406518   -2.100229   -0.143008
     99          6           0      -31.477630   -5.435615    1.345456
    100          6           0      -34.064802   -4.178783   -0.136378
    101          8           0      -34.108757   -5.379738    0.008552
    102          6           0      -35.329829   -3.484382   -0.585338
    103          7           0      -31.593365    0.966048   -0.910624
    104          6           0      -32.801294    0.294051   -1.075292
    105          6           0      -33.851767    1.333843   -1.472321
    106          6           0      -33.004405    2.587175   -1.901363
    107          6           0      -31.645427    2.191988   -1.430748
    108          6           0      -34.969502    0.909693   -2.494359
    109          6           0      -33.476676    3.993281   -1.419606
    110          6           0      -33.702760    5.048515   -2.452726
    111          7           0      -28.938514    1.705961   -0.565081
    112          6           0      -29.321184    2.954365   -1.023826
    113          6           0      -28.170452    3.877853   -1.049177
    114          6           0      -27.166016    3.136303   -0.314088
    115          6           0      -27.706462    1.872653   -0.056867
    116          6           0      -28.056975    5.277268   -1.594073
    117          6           0      -25.764944    3.224100    0.193159
    118          8           0      -24.998614    4.144804    0.210379
    119          6           0      -25.541376    1.908924    0.932556
    120          6           0      -24.306010    1.271937    0.369669
    121          8           0      -24.316246    0.893307   -0.781926
    122          8           0      -23.230865    1.071914    1.286782
    123          6           0      -22.078847    0.256060    0.796351
    124          1           0      -29.002697   -4.120869    1.542858
    125          1           0      -34.235850   -1.165206   -0.862026
    126          1           0      -30.865309    4.111874   -1.922222
    127          1           0      -25.146959   -1.340455    1.504750
    128          1           0      -26.967400   -3.189253    2.603504
    129          1           0      -26.470842   -3.114248   -0.364524
    130          1           0      -26.393447   -4.511392    0.810787
    131          1           0      -25.053011   -3.440520    0.531069
    132          1           0      -26.586879   -1.414286    3.985718
    133          1           0      -26.490659    0.219064    3.473722
    134          1           0      -24.499966    0.161823    4.541476
    135          1           0      -23.762662   -0.766918    3.257788
    136          1           0      -31.325184   -6.142351    0.530305
    137          1           0      -32.445237   -5.709654    1.765973
    138          1           0      -30.732977   -5.622438    2.120134
    139          1           0      -36.219075   -4.113313   -0.622800
    140          1           0      -35.125096   -3.136470   -1.597905
    141          1           0      -35.652409   -2.578554   -0.073334
    142          1           0      -34.406778    1.444695   -0.540326
    143          1           0      -32.872884    2.550816   -2.982377
    144          1           0      -34.657750    0.033284   -3.063163
    145          1           0      -35.237948    1.748845   -3.135867
    146          1           0      -35.894375    0.680890   -1.965321
    147          1           0      -32.756934    4.374569   -0.695324
    148          1           0      -34.366158    3.837729   -0.809237
    149          1           0      -32.895456    5.778555   -2.398300
    150          1           0      -34.636656    5.569990   -2.243394
    151          1           0      -33.751172    4.732823   -3.494661
    152          1           0      -27.017081    5.537941   -1.789909
    153          1           0      -28.498690    5.935256   -0.845190
    154          1           0      -28.714068    5.350238   -2.460869
    155          1           0      -25.527100    2.133896    1.999099
    156          1           0      -21.443713    0.878757    0.166077
    157          1           0      -22.422868   -0.561413    0.163075
    158          1           0      -21.520227   -0.166035    1.631521
 ---------------------------------------------------------------------

 SCF Done:  E(RCAM-B3LYP) =  -4069.75853892     A.U. after   18 cycles

 Excitation energies and oscillator strengths:

 Excited State   1:      Singlet-A      1.6714 eV  741.79 nm  f=0.3975  <S**2>=0.000
     310 -> 316        0.16934
     312 -> 313        0.68867
     310 <- 316        0.10660
 This state for optimization and/or second-order correction.
 Total Energy, E(TD-HF/TD-DFT) =  -4069.69711541
 Copying the excited state density for this state as the 1-particle RhoCI density.

 Excited State   2:      Singlet-A      1.7224 eV  719.84 nm  f=0.3548  <S**2>=0.000
     309 -> 315        0.19688
     311 -> 314        0.67936
     309 <- 315        0.11036

 Excited State   3:      Singlet-A      2.2361 eV  554.47 nm  f=0.1292  <S**2>=0.000
     310 -> 313        0.64113
     312 -> 316       -0.28142

 Excited State   4:      Singlet-A      2.2417 eV  553.08 nm  f=0.0682  <S**2>=0.000
     309 -> 314        0.61603
     311 -> 315       -0.33055

 Excited State   5:      Singlet-A      3.1978 eV  387.71 nm  f=0.0000  <S**2>=0.000
     312 -> 314        0.70711

 The electronic state is 1-A.
 Alpha  occ. eigenvalues --  -46.90768 -46.89328 -19.25260 -19.23719 -19.20731
 Alpha  occ. eigenvalues --  -19.20092 -19.19729 -19.18795 -19.17987 -19.17873
 Alpha  occ. eigenvalues --  -14.42763 -14.42721 -14.42022 -14.41718 -14.40817
 Alpha  occ. eigenvalues --  -14.39340 -14.39160 -14.39145 -10.40223 -10.39394
 Alpha  occ. eigenvalues --  -10.35411 -10.34939 -10.34515 -10.33512 -10.32317
 Alpha  occ. eigenvalues --  -10.32270 -10.31891 -10.31593 -10.31533 -10.31389
 Alpha  occ. eigenvalues --  -10.31372 -10.31298 -10.31016 -10.30785 -10.30699
 Alpha  occ. eigenvalues --  -10.30517 -10.30284 -10.30236 -10.29660 -10.29492
 Alpha  occ. eigenvalues --  -10.29401 -10.29244 -10.29226 -10.29106 -10.28920
 Alpha  occ. eigenvalues --  -10.28919 -10.28840 -10.28838 -10.28666 -10.28641
 Alpha  occ. eigenvalues --  -10.28559 -10.28532 -10.28408 -10.28329 -10.28327
 Alpha  occ. eigenvalues --  -10.28221 -10.28068 -10.28062 -10.27994 -10.27795
 Alpha  occ. eigenvalues --  -10.27605 -10.27467 -10.27347 -10.27224 -10.27014
 Alpha  occ. eigenvalues --  -10.26984 -10.26920 -10.26858 -10.26855 -10.26810
 Alpha  occ. eigenvalues --  -10.26662 -10.26652 -10.26571 -10.26527 -10.26526
 Alpha  occ. eigenvalues --  -10.26496 -10.26316 -10.26244 -10.26188 -10.26051
 Alpha  occ. eigenvalues --  -10.25895 -10.25850 -10.25738 -10.25535 -10.25374
 Alpha  occ. eigenvalues --  -10.25241  -3.19178  -3.17897  -1.94023  -1.93686
 Alpha  occ. eigenvalues --   -1.93444  -1.92745  -1.92358  -1.92204  -1.15370
 Alpha  occ. eigenvalues --   -1.13950  -1.11729  -1.10464  -1.10217  -1.08987
 Alpha  occ. eigenvalues --   -1.07870  -1.06352  -1.05039  -1.04598  -1.03581
 Alpha  occ. eigenvalues --   -1.03375  -1.03349  -1.02779  -1.01515  -1.01090
 Alpha  occ. eigenvalues --   -0.92895  -0.92759  -0.89412  -0.89012  -0.88951
 Alpha  occ. eigenvalues --   -0.88889  -0.88517  -0.88461  -0.87618  -0.87001
 Alpha  occ. eigenvalues --   -0.86936  -0.86233  -0.85939  -0.85653  -0.85029
 Alpha  occ. eigenvalues --   -0.84496  -0.83964  -0.83879  -0.83704  -0.82540
 Alpha  occ. eigenvalues --   -0.82498  -0.81847  -0.81161  -0.80559  -0.80208
 Alpha  occ. eigenvalues --   -0.79889  -0.78264  -0.78168  -0.77492  -0.77367
 Alpha  occ. eigenvalues --   -0.77051  -0.76802  -0.76352  -0.75838  -0.75282
 Alpha  occ. eigenvalues --   -0.75228  -0.72849  -0.72650  -0.71933  -0.71784
 Alpha  occ. eigenvalues --   -0.69555  -0.69152  -0.68940  -0.68609  -0.67926
 Alpha  occ. eigenvalues --   -0.67724  -0.67023  -0.66716  -0.65948  -0.65580
 Alpha  occ. eigenvalues --   -0.65387  -0.65099  -0.65060  -0.64545  -0.64322
 Alpha  occ. eigenvalues --   -0.64037  -0.62328  -0.61914  -0.60394  -0.59822
 Alpha  occ. eigenvalues --   -0.59800  -0.59559  -0.59280  -0.59196  -0.59071
 Alpha  occ. eigenvalues --   -0.58931  -0.58332  -0.57652  -0.57174  -0.57009
 Alpha  occ. eigenvalues --   -0.56773  -0.56542  -0.55665  -0.55617  -0.55438
 Alpha  occ. eigenvalues --   -0.54795  -0.54343  -0.54332  -0.53952  -0.53870
 Alpha  occ. eigenvalues --   -0.53795  -0.53561  -0.53369  -0.53309  -0.53085
 Alpha  occ. eigenvalues --   -0.52963  -0.52902  -0.52495  -0.52246  -0.52000
 Alpha  occ. eigenvalues --   -0.51838  -0.51752  -0.51728  -0.51449  -0.51317
 Alpha  occ. eigenvalues --   -0.51105  -0.51032  -0.50929  -0.50631  -0.50440
 Alpha  occ. eigenvalues --   -0.49942  -0.49901  -0.49875  -0.49870  -0.49744
 Alpha  occ. eigenvalues --   -0.49528  -0.49307  -0.49133  -0.49116  -0.48964
 Alpha  occ. eigenvalues --   -0.48710  -0.48651  -0.48599  -0.48401  -0.48191
 Alpha  occ. eigenvalues --   -0.48170  -0.47972  -0.47747  -0.47693  -0.47287
 Alpha  occ. eigenvalues --   -0.47089  -0.46981  -0.46744  -0.46536  -0.46425
 Alpha  occ. eigenvalues --   -0.46386  -0.46186  -0.46154  -0.46059  -0.45977
 Alpha  occ. eigenvalues --   -0.45913  -0.45831  -0.45378  -0.45254  -0.44980
 Alpha  occ. eigenvalues --   -0.44963  -0.44697  -0.44664  -0.44483  -0.44341
 Alpha  occ. eigenvalues --   -0.44127  -0.43813  -0.43778  -0.43619  -0.43602
 Alpha  occ. eigenvalues --   -0.43452  -0.43311  -0.43199  -0.42904  -0.42645
 Alpha  occ. eigenvalues --   -0.42572  -0.42554  -0.42463  -0.42432  -0.42316
 Alpha  occ. eigenvalues --   -0.42072  -0.41943  -0.41923  -0.41555  -0.41500
 Alpha  occ. eigenvalues --   -0.41358  -0.41126  -0.40834  -0.40578  -0.40276
 Alpha  occ. eigenvalues --   -0.40268  -0.40222  -0.39972  -0.39318  -0.39293
 Alpha  occ. eigenvalues --   -0.38868  -0.38472  -0.37872  -0.37704  -0.37533
 Alpha  occ. eigenvalues --   -0.37345  -0.37175  -0.37161  -0.36512  -0.36346
 Alpha  occ. eigenvalues --   -0.35825  -0.35374  -0.35050  -0.34488  -0.34403
 Alpha  occ. eigenvalues --   -0.33868  -0.33205  -0.33188  -0.31759  -0.31607
 Alpha  occ. eigenvalues --   -0.31407  -0.31114  -0.31048  -0.30498  -0.30163
 Alpha  occ. eigenvalues --   -0.29678  -0.28749  -0.28744  -0.24477  -0.24312
 Alpha  occ. eigenvalues --   -0.21465  -0.21130
 Alpha virt. eigenvalues --   -0.08991  -0.08797  -0.02709  -0.01502  -0.00373
 Alpha virt. eigenvalues --    0.00463   0.00575   0.01239   0.02161   0.02631
 Alpha virt. eigenvalues --    0.04372   0.04393   0.04399   0.04812   0.05474

 Mulliken charges:
               1
     1  Mg   0.834436
     2  C   -0.008407
     3  C   -0.051056
     4  C   -0.074890
     5  C   -0.087894
     6  N   -0.224624
     7  C   -0.070878
     8  C    0.059357
     9  C   -0.071642
    10  C   -0.036595
    11  C    0.062116
    12  C    0.059746
    13  C   -0.072195
    14  H    0.007741
    15  N   -0.409450
    16  C    0.147837
    17  C   -0.174494
    18  C   -0.015320
    19  C    0.192158
    20  C    0.144598
    21  C   -0.033288
    22  O   -0.215701
    23  C    0.089250
    24  N   -0.319239
    25  C    0.023092
    26  C   -0.072988
    27  C   -0.047465
    28  C    0.019182
    29  C    0.084297
    30  C    0.042803
    31  C    0.012940
    32  N   -0.344566
    33  C    0.143202
    34  C   -0.151054
    35  C    0.030892
    36  C    0.129274
    37  C    0.139482
    38  C   -0.006507
    39  O   -0.179817
    40  C   -0.020506
    41  C    0.217701
    42  O   -0.226401
    43  O   -0.390001
    44  C    0.179632
    45  H   -0.026331
    46  H   -0.046919
    47  H   -0.027801
    48  H    0.012225
    49  H    0.017819
    50  H    0.026296
    51  H    0.015290
    52  H    0.028891
    53  H    0.025173
    54  H    0.019048
    55  H    0.034377
    56  H    0.030260
    57  H    0.044822
    58  H    0.045435
    59  H    0.008984
    60  H    0.054022
    61  H    0.041932
    62  H    0.028073
    63  H    0.008462
    64  H   -0.003902
    65  H    0.016881
    66  H    0.020071
    67  H    0.021287
    68  H    0.004889
    69  H    0.011212
    70  H   -0.004504
    71  H    0.017482
    72  H    0.028225
    73  H    0.012462
    74  H    0.025040
    75  H    0.037635
    76  H    0.040531
    77  H    0.031529
    78  H    0.052772
    79  H    0.033574
    80  Mg   0.850162
    81  C   -0.068676
    82  C   -0.046555
    83  C   -0.070145
    84  C   -0.117776
    85  N   -0.248499
    86  C   -0.056120
    87  C   -0.029281
    88  C   -0.067512
    89  C    0.027842
    90  C    0.088681
    91  C    0.079552
    92  C   -0.054250
    93  H    0.008690
    94  N   -0.346045
    95  C    0.095288
    96  C   -0.125943
    97  C   -0.029134
    98  C    0.139839
    99  C    0.130523
   100  C   -0.009059
   101  O   -0.204443
   102  C    0.048536
   103  N   -0.372416
   104  C    0.069194
   105  C   -0.081028
   106  C    0.022194
   107  C    0.057898
   108  C    0.063545
   109  C    0.049693
   110  C    0.008714
   111  N   -0.354578
   112  C    0.126944
   113  C   -0.181006
   114  C   -0.063991
   115  C    0.147730
   116  C    0.135420
   117  C    0.053069
   118  O   -0.136298
   119  C    0.059752
   120  C    0.212851
   121  O   -0.206828
   122  O   -0.375229
   123  C    0.175414
   124  H   -0.030894
   125  H   -0.056688
   126  H   -0.037321
   127  H    0.003959
   128  H    0.001853
   129  H    0.021994
   130  H    0.020341
   131  H    0.014388
   132  H    0.012528
   133  H    0.016698
   134  H    0.032663
   135  H    0.027185
   136  H    0.030821
   137  H    0.030820
   138  H    0.014448
   139  H    0.024095
   140  H    0.029759
   141  H    0.037079
   142  H    0.024830
   143  H    0.007139
   144  H    0.023793
   145  H    0.015795
   146  H    0.009092
   147  H    0.014432
   148  H   -0.000380
   149  H    0.015705
   150  H    0.013730
   151  H    0.015188
   152  H    0.047884
   153  H    0.030554
   154  H    0.013035
   155  H    0.042050
   156  H    0.044657
   157  H    0.034777
   158  H    0.047271
 Sum of Mulliken charges =  -0.00000

 Dipole moment (field-independent basis, Debye):
    X=              0.0583    Y=              5.7529    Z=             -2.1170  Tot=              6.1304
 Quadrupole moment (field-independent basis, Debye-Ang):
   XX=           -289.7096   YY=           -588.6417   ZZ=           -507.0077
   XY=             92.5474   XZ=             -8.9077   YZ=            -20.8867

 Normal termination of Gaussian 16 at Thu Sep  2 14:24:39 2021.
