 Gaussian 16, Revision A.03,
 Gaussian 16:  ES64L-G16RevA.03 25-Dec-2016

 -----------------------------------
 #p cam-b3lyp/Def2SVP td=(nstates=5)
 -----------------------------------

 --------------------------------
 TDDFT excited states in gaussian
 --------------------------------
 Symbolic Z-matrix:
 Charge =  0 Multiplicity = 1

                         Standard orientation:
 ---------------------------------------------------------------------
 Center     Atomic      Atomic             Coordinates (Angstroms)
 Number     Number       Type             X           Y           Z
 ---------------------------------------------------------------------
      1         12           0       25.178663   -0.735402    0.239263
      2          6           0       25.431252    2.313698   -1.513836
      3          6           0       25.143302    1.049426    3.176022
      4          6           0       25.016292   -3.598989    1.986840
      5          6           0       25.796899   -2.511047   -2.711678
      6          7           0       25.144854    1.409840    0.661258
      7          6           0       25.241047    2.495555   -0.100817
      8          6           0       25.191473    3.855311    0.626628
      9          6           0       25.395604    3.285815    2.113309
     10          6           0       25.262791    1.789298    1.970303
     11          6           0       26.713490    3.675661    2.737431
     12          6           0       23.788565    4.661032    0.447100
     13          6           0       23.944267    6.177785    0.590856
     14          1           0       23.549889    6.978767   -0.676726
     15          7           0       24.923443   -1.241334    2.320807
     16          6           0       24.987934   -0.307554    3.384519
     17          6           0       24.570594   -1.008343    4.578023
     18          6           0       24.501791   -2.362272    4.262213
     19          6           0       24.797858   -2.475485    2.799571
     20          6           0       24.485590   -0.365976    5.949730
     21          6           0       24.138627   -3.569737    5.095820
     22          8           0       24.067850   -4.647357    4.580987
     23          6           0       23.786227   -3.458102    6.545610
     24          7           0       25.569947   -2.749014   -0.226939
     25          6           0       25.363811   -3.770606    0.653731
     26          6           0       25.553064   -5.086076   -0.151551
     27          6           0       25.228775   -4.747142   -1.595465
     28          6           0       25.566064   -3.237701   -1.571047
     29          6           0       27.010594   -5.534058   -0.052753
     30          6           0       23.839045   -5.061058   -2.010333
     31          6           0       22.695752   -4.649970   -1.115920
     32          7           0       25.512958   -0.263540   -1.737685
     33          6           0       25.759903   -1.062819   -2.837981
     34          6           0       25.912804   -0.204082   -4.022593
     35          6           0       25.763911    1.106854   -3.537458
     36          6           0       25.530387    1.018027   -2.192261
     37          6           0       26.211908   -0.648620   -5.388926
     38          6           0       25.616614    2.489769   -3.904537
     39          8           0       25.639192    3.052891   -5.038270
     40          6           0       25.358904    3.313956   -2.555704
     41          6           0       26.500097    4.289739   -2.429802
     42          8           0       27.644042    3.972650   -2.569613
     43          8           0       26.135985    5.615788   -2.070719
     44          6           0       27.267591    6.488195   -1.632319
     45          1           0       25.182866    1.594333    4.120905
     46          1           0       25.069893   -4.546804    2.527169
     47          1           0       25.818570   -3.000164   -3.688039
     48          1           0       25.966373    4.516047    0.235970
     49          1           0       24.570185    3.725252    2.674741
     50          1           0       26.504758    4.539443    3.368424
     51          1           0       27.503744    3.823984    2.001191
     52          1           0       26.910722    2.873729    3.448767
     53          1           0       23.074688    4.333360    1.203455
     54          1           0       23.324307    4.414841   -0.508077
     55          1           0       24.995907    6.260856    0.865955
     56          1           0       23.410875    6.565027    1.458769
     57          1           0       24.425871    0.701455    5.740707
     58          1           0       25.470236   -0.568363    6.370207
     59          1           0       23.607317   -0.690321    6.508257
     60          1           0       22.811276   -2.979101    6.453835
     61          1           0       24.444111   -2.810699    7.124771
     62          1           0       23.726518   -4.448265    6.998700
     63          1           0       24.973532   -5.936977    0.204834
     64          1           0       25.821978   -5.273325   -2.342621
     65          1           0       27.689393   -5.355910   -0.886840
     66          1           0       27.006555   -6.605198    0.148834
     67          1           0       27.446025   -5.063892    0.829710
     68          1           0       23.713494   -6.118454   -2.244453
     69          1           0       23.722801   -4.526292   -2.952812
     70          1           0       22.167201   -3.865198   -1.657855
     71          1           0       22.827215   -4.264706   -0.104352
     72          1           0       22.002821   -5.488503   -1.048405
     73          1           0       27.240513   -1.008505   -5.409932
     74          1           0       26.023778    0.237505   -5.995031
     75          1           0       25.592172   -1.498746   -5.677238
     76          1           0       24.367256    3.747163   -2.687642
     77          1           0       27.829425    6.841435   -2.496938
     78          1           0       27.953976    5.989511   -0.946485
     79          1           0       26.988946    7.427426   -1.155366
     80         12           0      -24.893759   -0.586267   -0.493425
     81          6           0      -26.345076    2.195085    1.313819
     82          6           0      -24.056137    1.582449   -2.736735
     83          6           0      -23.884599   -3.278796   -2.104149
     84          6           0      -26.616723   -2.908223    1.708747
     85          7           0      -25.084605    1.700677   -0.599476
     86          6           0      -25.696390    2.644827    0.198740
     87          6           0      -25.578049    3.993916   -0.413492
     88          6           0      -25.284936    3.690475   -1.905348
     89          6           0      -24.815000    2.222330   -1.776096
     90          6           0      -26.516789    3.794051   -2.831146
     91          6           0      -24.360573    4.746516    0.204791
     92          6           0      -24.589543    6.260921    0.583941
     93          1           0      -23.626821    6.971849    1.616305
     94          7           0      -23.995250   -0.780070   -2.261225
     95          6           0      -23.618444    0.218820   -3.014169
     96          6           0      -22.859717   -0.316062   -4.129030
     97          6           0      -22.731964   -1.694329   -3.836210
     98          6           0      -23.579967   -1.961077   -2.706170
     99          6           0      -22.243653    0.616883   -5.187371
    100          6           0      -21.919764   -2.697744   -4.606597
    101          8           0      -21.915361   -3.846522   -4.278491
    102          6           0      -21.041859   -2.225250   -5.719214
    103          7           0      -25.484544   -2.836332   -0.342090
    104          6           0      -24.739363   -3.657296   -1.079218
    105          6           0      -24.831537   -5.062411   -0.615260
    106          6           0      -25.898773   -4.923890    0.516210
    107          6           0      -26.054513   -3.434928    0.678882
    108          6           0      -25.109277   -6.175245   -1.688903
    109          6           0      -25.441854   -5.678114    1.825511
    110          6           0      -26.118176   -7.021717    2.216353
    111          7           0      -26.157798   -0.486676    1.100149
    112          6           0      -26.726261   -1.455994    1.956490
    113          6           0      -27.476681   -0.779058    3.034303
    114          6           0      -27.321320    0.582201    2.809202
    115          6           0      -26.584720    0.741154    1.647628
    116          6           0      -28.373469   -1.487724    4.078166
    117          6           0      -27.704563    1.915067    3.376267
    118          8           0      -28.311119    2.263199    4.361690
    119          6           0      -27.224447    3.030557    2.318955
    120          6           0      -26.611800    4.135081    2.960905
    121          8           0      -25.387707    4.193853    3.143067
    122          8           0      -27.456302    5.140893    3.420427
    123          6           0      -26.857594    6.415386    3.923100
    124          1           0      -23.677037    2.210848   -3.544577
    125          1           0      -23.496371   -4.169838   -2.601728
    126          1           0      -27.132570   -3.592156    2.384464
    127          1           0      -26.542316    4.501810   -0.381586
    128          1           0      -24.531810    4.312042   -2.389267
    129          1           0      -26.355778    4.552805   -3.597536
    130          1           0      -27.362311    4.071082   -2.202192
    131          1           0      -26.800351    2.860242   -3.317443
    132          1           0      -23.588237    4.698104   -0.563057
    133          1           0      -24.042587    4.145209    1.056262
    134          1           0      -25.621399    6.362746    0.919011
    135          1           0      -24.486697    6.755084   -0.382881
    136          1           0      -21.157448    0.553741   -5.110175
    137          1           0      -22.573604    1.654795   -5.159193
    138          1           0      -22.416178    0.216106   -6.185817
    139          1           0      -20.263005   -1.545000   -5.375614
    140          1           0      -21.509343   -1.606653   -6.485225
    141          1           0      -20.513828   -3.083477   -6.135575
    142          1           0      -23.879351   -5.316775   -0.149687
    143          1           0      -26.865458   -5.260901    0.141358
    144          1           0      -25.072014   -5.678282   -2.657748
    145          1           0      -25.999631   -6.790439   -1.554171
    146          1           0      -24.311391   -6.915554   -1.628031
    147          1           0      -25.614154   -5.028586    2.684155
    148          1           0      -24.352765   -5.653128    1.788825
    149          1           0      -25.358145   -7.749551    2.499983
    150          1           0      -26.715812   -7.384085    1.379745
    151          1           0      -26.765760   -6.888020    3.083706
    152          1           0      -27.930757   -2.461109    4.287550
    153          1           0      -29.341818   -1.704824    3.626716
    154          1           0      -28.475390   -0.905655    4.994379
    155          1           0      -28.104173    3.375315    1.776313
    156          1           0      -26.315748    6.933694    3.130725
    157          1           0      -26.361862    6.273474    4.882669
    158          1           0      -27.683578    7.116343    4.042896
 ---------------------------------------------------------------------

 SCF Done:  E(RCAM-B3LYP) =  -4069.77614873     A.U. after   18 cycles

 Excitation energies and oscillator strengths:

 Excited State   1:      Singlet-A      1.6958 eV  731.11 nm  f=0.3664  <S**2>=0.000
     309 -> 315       -0.17411
     312 -> 314        0.68769
     309 <- 315       -0.10610
 This state for optimization and/or second-order correction.
 Total Energy, E(TD-HF/TD-DFT) =  -4069.71382836
 Copying the excited state density for this state as the 1-particle RhoCI density.

 Excited State   2:      Singlet-A      1.7382 eV  713.30 nm  f=0.3828  <S**2>=0.000
     310 -> 316        0.16387
     311 -> 313        0.68893
     310 <- 316        0.10278

 Excited State   3:      Singlet-A      2.1720 eV  570.82 nm  f=0.2236  <S**2>=0.000
     310 -> 313        0.67442
     311 -> 316       -0.20201

 Excited State   4:      Singlet-A      2.1842 eV  567.65 nm  f=0.1209  <S**2>=0.000
     309 -> 314        0.64716
     312 -> 315        0.27030

 Excited State   5:      Singlet-A      3.1660 eV  391.61 nm  f=0.0000  <S**2>=0.000
     312 -> 313        0.70711

 The electronic state is 1-A.
 Alpha  occ. eigenvalues --  -46.89457 -46.88636 -19.24511 -19.23988 -19.20056
 Alpha  occ. eigenvalues --  -19.19658 -19.19274 -19.19094 -19.18547 -19.18253
 Alpha  occ. eigenvalues --  -14.43427 -14.41777 -14.41353 -14.40188 -14.39839
 Alpha  occ. eigenvalues --  -14.39789 -14.39719 -14.39069 -10.39410 -10.38534
 Alpha  occ. eigenvalues --  -10.35973 -10.35199 -10.35146 -10.34754 -10.31863
 Alpha  occ. eigenvalues --  -10.31695 -10.31636 -10.31284 -10.31155 -10.31133
 Alpha  occ. eigenvalues --  -10.31039 -10.30961 -10.30621 -10.30613 -10.30531
 Alpha  occ. eigenvalues --  -10.30055 -10.30040 -10.29854 -10.29449 -10.29401
 Alpha  occ. eigenvalues --  -10.29388 -10.29331 -10.28962 -10.28869 -10.28817
 Alpha  occ. eigenvalues --  -10.28727 -10.28399 -10.28379 -10.28322 -10.28262
 Alpha  occ. eigenvalues --  -10.28254 -10.28212 -10.28203 -10.28140 -10.28122
 Alpha  occ. eigenvalues --  -10.28019 -10.27923 -10.27541 -10.27280 -10.27238
 Alpha  occ. eigenvalues --  -10.27178 -10.27156 -10.27139 -10.27131 -10.26820
 Alpha  occ. eigenvalues --  -10.26706 -10.26663 -10.26600 -10.26540 -10.26429
 Alpha  occ. eigenvalues --  -10.26370 -10.26307 -10.26298 -10.26065 -10.25938
 Alpha  occ. eigenvalues --  -10.25745 -10.25724 -10.25633 -10.25549 -10.25458
 Alpha  occ. eigenvalues --  -10.25409 -10.25129 -10.25118 -10.25118 -10.24475
 Alpha  occ. eigenvalues --  -10.24438  -3.17980  -3.17130  -1.92867  -1.92443
 Alpha  occ. eigenvalues --   -1.92280  -1.92053  -1.91562  -1.91447  -1.15626
 Alpha  occ. eigenvalues --   -1.14201  -1.12183  -1.12129  -1.10866  -1.07394
 Alpha  occ. eigenvalues --   -1.06667  -1.06425  -1.05673  -1.05310  -1.04972
 Alpha  occ. eigenvalues --   -1.04899  -1.03551  -1.02948  -1.01781  -1.01001
 Alpha  occ. eigenvalues --   -0.92964  -0.91273  -0.90061  -0.89452  -0.89274
 Alpha  occ. eigenvalues --   -0.88885  -0.88846  -0.88008  -0.87861  -0.87813
 Alpha  occ. eigenvalues --   -0.87653  -0.86948  -0.86234  -0.85210  -0.84720
 Alpha  occ. eigenvalues --   -0.84359  -0.83586  -0.83072  -0.82642  -0.82487
 Alpha  occ. eigenvalues --   -0.82156  -0.82031  -0.81126  -0.80971  -0.80419
 Alpha  occ. eigenvalues --   -0.79936  -0.78925  -0.78784  -0.77360  -0.77140
 Alpha  occ. eigenvalues --   -0.77120  -0.76715  -0.76298  -0.76237  -0.75421
 Alpha  occ. eigenvalues --   -0.75003  -0.72790  -0.72471  -0.71346  -0.71117
 Alpha  occ. eigenvalues --   -0.69717  -0.69231  -0.68863  -0.68799  -0.67951
 Alpha  occ. eigenvalues --   -0.67856  -0.67354  -0.67137  -0.66126  -0.65843
 Alpha  occ. eigenvalues --   -0.65638  -0.64989  -0.64953  -0.64238  -0.64217
 Alpha  occ. eigenvalues --   -0.63422  -0.61782  -0.61453  -0.61059  -0.60397
 Alpha  occ. eigenvalues --   -0.60120  -0.59953  -0.59159  -0.59078  -0.58995
 Alpha  occ. eigenvalues --   -0.58623  -0.58068  -0.57607  -0.57584  -0.57195
 Alpha  occ. eigenvalues --   -0.56565  -0.56409  -0.55775  -0.55760  -0.55522
 Alpha  occ. eigenvalues --   -0.54800  -0.54555  -0.54103  -0.54024  -0.53994
 Alpha  occ. eigenvalues --   -0.53888  -0.53731  -0.53629  -0.53406  -0.53058
 Alpha  occ. eigenvalues --   -0.53049  -0.52654  -0.52449  -0.52446  -0.51998
 Alpha  occ. eigenvalues --   -0.51895  -0.51866  -0.51646  -0.51542  -0.51329
 Alpha  occ. eigenvalues --   -0.50855  -0.50747  -0.50563  -0.50254  -0.50216
 Alpha  occ. eigenvalues --   -0.50101  -0.50024  -0.49871  -0.49718  -0.49706
 Alpha  occ. eigenvalues --   -0.49599  -0.49573  -0.49289  -0.49223  -0.49089
 Alpha  occ. eigenvalues --   -0.48849  -0.48755  -0.48322  -0.48315  -0.48235
 Alpha  occ. eigenvalues --   -0.47955  -0.47791  -0.47748  -0.47664  -0.47570
 Alpha  occ. eigenvalues --   -0.47456  -0.47190  -0.46723  -0.46446  -0.46369
 Alpha  occ. eigenvalues --   -0.46247  -0.45892  -0.45799  -0.45572  -0.45545
 Alpha  occ. eigenvalues --   -0.45419  -0.45418  -0.45234  -0.44971  -0.44935
 Alpha  occ. eigenvalues --   -0.44794  -0.44566  -0.44479  -0.44334  -0.44184
 Alpha  occ. eigenvalues --   -0.44033  -0.43746  -0.43517  -0.43453  -0.43348
 Alpha  occ. eigenvalues --   -0.43170  -0.43120  -0.43006  -0.42865  -0.42763
 Alpha  occ. eigenvalues --   -0.42679  -0.42539  -0.42480  -0.42231  -0.41890
 Alpha  occ. eigenvalues --   -0.41837  -0.41572  -0.41315  -0.41057  -0.41057
 Alpha  occ. eigenvalues --   -0.40944  -0.40648  -0.40394  -0.40381  -0.40286
 Alpha  occ. eigenvalues --   -0.40209  -0.39908  -0.39868  -0.39761  -0.39537
 Alpha  occ. eigenvalues --   -0.38358  -0.38340  -0.37730  -0.37678  -0.37299
 Alpha  occ. eigenvalues --   -0.37143  -0.37053  -0.36536  -0.36445  -0.36208
 Alpha  occ. eigenvalues --   -0.36075  -0.35744  -0.34697  -0.34533  -0.33609
 Alpha  occ. eigenvalues --   -0.33220  -0.33069  -0.32621  -0.31859  -0.31727
 Alpha  occ. eigenvalues --   -0.31541  -0.31382  -0.31113  -0.30757  -0.30329
 Alpha  occ. eigenvalues --   -0.30024  -0.29694  -0.29344  -0.24157  -0.23549
 Alpha  occ. eigenvalues --   -0.21637  -0.21401
 Alpha virt. eigenvalues --   -0.09084  -0.08975  -0.01752  -0.00366   0.00423
 Alpha virt. eigenvalues --    0.00924   0.02159   0.02305   0.02647   0.03247
 Alpha virt. eigenvalues --    0.04518   0.04639   0.05140   0.05286   0.05604

 Mulliken charges:
               1
     1  Mg   0.813716
     2  C   -0.040368
     3  C   -0.100329
     4  C   -0.056092
     5  C   -0.065206
     6  N   -0.248686
     7  C   -0.044802
     8  C   -0.042239
     9  C   -0.088363
    10  C    0.097225
    11  C    0.104626
    12  C    0.047553
    13  C   -0.047317
    14  H    0.045002
    15  N   -0.365827
    16  C    0.130102
    17  C   -0.165501
    18  C   -0.010031
    19  C    0.115996
    20  C    0.118450
    21  C   -0.027535
    22  O   -0.177938
    23  C    0.053330
    24  N   -0.336409
    25  C    0.059144
    26  C   -0.036014
    27  C    0.001053
    28  C    0.092596
    29  C    0.078979
    30  C    0.053804
    31  C   -0.013970
    32  N   -0.352940
    33  C    0.068143
    34  C   -0.192123
    35  C    0.046564
    36  C    0.100711
    37  C    0.125870
    38  C    0.022996
    39  O   -0.217237
    40  C    0.037692
    41  C    0.193555
    42  O   -0.181813
    43  O   -0.372704
    44  C    0.178955
    45  H   -0.015769
    46  H   -0.006729
    47  H   -0.026816
    48  H    0.020219
    49  H    0.010237
    50  H    0.008616
    51  H    0.034975
    52  H    0.001636
    53  H    0.003179
    54  H    0.019040
    55  H    0.008191
    56  H    0.020938
    57  H    0.008452
    58  H    0.052504
    59  H    0.037136
    60  H    0.038113
    61  H    0.030892
    62  H    0.035335
    63  H   -0.003200
    64  H   -0.009956
    65  H    0.023924
    66  H    0.009698
    67  H    0.009339
    68  H    0.006472
    69  H   -0.008913
    70  H    0.008029
    71  H    0.038125
    72  H    0.006341
    73  H    0.030657
    74  H    0.042255
    75  H    0.013569
    76  H    0.046803
    77  H    0.037692
    78  H    0.033003
    79  H    0.033396
    80  Mg   0.836515
    81  C   -0.017218
    82  C   -0.043205
    83  C   -0.045035
    84  C   -0.101695
    85  N   -0.239122
    86  C   -0.040141
    87  C   -0.024319
    88  C   -0.084513
    89  C    0.050322
    90  C    0.081898
    91  C    0.071441
    92  C   -0.043356
    93  H    0.034221
    94  N   -0.366954
    95  C    0.065578
    96  C   -0.128884
    97  C   -0.029953
    98  C    0.104894
    99  C    0.110683
   100  C    0.002118
   101  O   -0.168072
   102  C    0.040323
   103  N   -0.199797
   104  C   -0.011551
   105  C   -0.045229
   106  C    0.011802
   107  C    0.027140
   108  C    0.070632
   109  C    0.014211
   110  C    0.026941
   111  N   -0.397686
   112  C    0.109376
   113  C   -0.209698
   114  C   -0.008120
   115  C    0.122781
   116  C    0.119313
   117  C    0.086572
   118  O   -0.138074
   119  C   -0.010424
   120  C    0.199147
   121  O   -0.246417
   122  O   -0.357438
   123  C    0.195817
   124  H   -0.050848
   125  H   -0.004295
   126  H   -0.024477
   127  H   -0.003103
   128  H    0.009588
   129  H    0.019459
   130  H    0.006408
   131  H    0.023227
   132  H    0.001090
   133  H    0.050099
   134  H    0.026214
   135  H    0.014084
   136  H    0.026309
   137  H    0.029689
   138  H    0.019841
   139  H    0.028389
   140  H    0.022329
   141  H    0.029407
   142  H    0.020268
   143  H    0.004798
   144  H    0.029009
   145  H    0.015516
   146  H    0.009552
   147  H   -0.002233
   148  H   -0.009408
   149  H    0.017892
   150  H    0.014479
   151  H    0.016685
   152  H    0.008482
   153  H    0.029964
   154  H    0.038347
   155  H    0.050231
   156  H    0.028690
   157  H    0.055444
   158  H    0.024052
 Sum of Mulliken charges =  -0.00000

 Dipole moment (field-independent basis, Debye):
    X=             -0.2289    Y=              0.7860    Z=              2.0219  Tot=              2.1813
 Quadrupole moment (field-independent basis, Debye-Ang):
   XX=           -653.1689   YY=           -481.5249   ZZ=           -516.5235
   XY=            -21.1569   XZ=            298.1194   YZ=             11.8656

 Normal termination of Gaussian 16 at Tue Sep 14 16:31:48 2021.
