 Gaussian 16, Revision A.03,
 Gaussian 16:  ES64L-G16RevA.03 25-Dec-2016

 -----------------------------------
 #p cam-b3lyp/Def2SVP td=(nstates=5)
 -----------------------------------

 --------------------------------
 TDDFT excited states in gaussian
 --------------------------------
 Symbolic Z-matrix:
 Charge =  0 Multiplicity = 1

                         Standard orientation:
 ---------------------------------------------------------------------
 Center     Atomic      Atomic             Coordinates (Angstroms)
 Number     Number       Type             X           Y           Z
 ---------------------------------------------------------------------
      1         12           0       25.807049   -0.413590    0.268925
      2          6           0       24.343226    2.689333    0.923205
      3          6           0       25.940559    0.559959   -3.096904
      4          6           0       26.694178   -3.518259   -0.610287
      5          6           0       24.656700   -1.529442    3.314392
      6          7           0       25.299722    1.499336   -0.985171
      7          6           0       24.660721    2.561095   -0.425909
      8          6           0       24.354917    3.661719   -1.517661
      9          6           0       24.657096    2.828393   -2.863534
     10          6           0       25.292827    1.537496   -2.320718
     11          6           0       23.272144    2.453176   -3.500810
     12          6           0       25.402379    4.818791   -1.322593
     13          6           0       25.398029    5.970232   -2.364696
     14          1           0       26.560259    6.633361   -3.042070
     15          7           0       26.432136   -1.253115   -1.542118
     16          6           0       26.467906   -0.708994   -2.836855
     17          6           0       26.936204   -1.703625   -3.707675
     18          6           0       27.336501   -2.821301   -2.987671
     19          6           0       26.830893   -2.559289   -1.650254
     20          6           0       27.130230   -1.401305   -5.157485
     21          6           0       27.991774   -4.161920   -3.457293
     22          8           0       28.316689   -5.081503   -2.713831
     23          6           0       28.490600   -4.364275   -4.890668
     24          7           0       25.572513   -2.257716    1.189320
     25          6           0       26.158218   -3.362243    0.675308
     26          6           0       26.200356   -4.551910    1.654230
     27          6           0       25.421986   -3.958527    2.861210
     28          6           0       25.295315   -2.483677    2.524210
     29          6           0       25.725210   -5.912664    1.044965
     30          6           0       25.996940   -4.226814    4.279039
     31          6           0       27.183130   -3.448965    4.664123
     32          7           0       24.807361    0.389046    1.871229
     33          6           0       24.418098   -0.147728    3.004340
     34          6           0       23.834833    0.846608    3.910833
     35          6           0       23.809962    2.004886    3.069964
     36          6           0       24.365473    1.676790    1.848735
     37          6           0       23.730840    0.817106    5.363896
     38          6           0       23.440388    3.409521    3.063874
     39          8           0       23.035250    4.123036    3.953379
     40          6           0       23.719009    3.861079    1.625094
     41          6           0       22.466782    4.440746    0.958888
     42          8           0       21.569899    3.777872    0.506401
     43          8           0       22.505746    5.812569    1.033884
     44          6           0       21.327844    6.448809    0.400380
     45          1           0       26.096682    0.921583   -4.114548
     46          1           0       27.170653   -4.484322   -0.791027
     47          1           0       24.527647   -2.086663    4.243889
     48          1           0       23.310378    3.974263   -1.515309
     49          1           0       25.278885    3.350737   -3.591676
     50          1           0       22.954556    1.415841   -3.400068
     51          1           0       23.321564    2.451463   -4.589965
     52          1           0       22.444514    3.073471   -3.157366
     53          1           0       26.388109    4.356355   -1.279481
     54          1           0       25.252818    5.213881   -0.317422
     55          1           0       24.761519    6.728598   -1.907861
     56          1           0       24.883773    5.481960   -3.191561
     57          1           0       26.823755   -0.405191   -5.477872
     58          1           0       26.711734   -2.230631   -5.729374
     59          1           0       28.213344   -1.427541   -5.280089
     60          1           0       27.692959   -4.399235   -5.632805
     61          1           0       29.177509   -5.200881   -5.019521
     62          1           0       29.144362   -3.518979   -5.106361
     63          1           0       27.279247   -4.565167    1.806349
     64          1           0       24.424112   -4.386575    2.765671
     65          1           0       25.925792   -5.952345   -0.025174
     66          1           0       24.650076   -6.015963    1.193988
     67          1           0       26.243327   -6.770933    1.473286
     68          1           0       26.245365   -5.285440    4.210417
     69          1           0       25.198931   -4.155258    5.018319
     70          1           0       26.871567   -2.473359    5.036913
     71          1           0       27.890549   -3.376978    3.838230
     72          1           0       27.703488   -3.893909    5.512790
     73          1           0       24.515488    0.130601    5.682798
     74          1           0       22.843582    0.395053    5.836119
     75          1           0       23.871405    1.842573    5.703956
     76          1           0       24.504357    4.616730    1.662580
     77          1           0       21.076428    7.345124    0.967086
     78          1           0       20.385485    5.907330    0.485872
     79          1           0       21.555818    6.767334   -0.616289
     80         12           0      -24.837663   -0.880626   -0.221607
     81          6           0      -26.353076    2.266245    0.118680
     82          6           0      -23.673548   -0.071364   -3.240123
     83          6           0      -23.581136   -3.858488   -0.386229
     84          6           0      -26.981352   -1.920941    2.500712
     85          7           0      -25.115094    0.883060   -1.427727
     86          6           0      -25.592904    2.083868   -1.077629
     87          6           0      -25.527173    3.070353   -2.214890
     88          6           0      -25.037169    2.168594   -3.418007
     89          6           0      -24.565545    0.933949   -2.674491
     90          6           0      -26.049550    1.838811   -4.562507
     91          6           0      -24.432630    4.215406   -1.907881
     92          6           0      -24.957375    5.664652   -2.172608
     93          1           0      -23.951727    6.784334   -1.563204
     94          7           0      -23.602230   -1.718427   -1.466991
     95          6           0      -23.170715   -1.220412   -2.684586
     96          6           0      -22.098639   -2.049981   -3.161584
     97          6           0      -21.977216   -3.229026   -2.317941
     98          6           0      -23.001428   -2.944236   -1.241263
     99          6           0      -21.408105   -1.685732   -4.507253
    100          6           0      -21.107943   -4.481295   -2.307934
    101          8           0      -21.090041   -5.360786   -1.427912
    102          6           0      -20.145764   -4.517125   -3.442063
    103          7           0      -25.391396   -2.618989    0.828943
    104          6           0      -24.654234   -3.731933    0.507710
    105          6           0      -25.157189   -4.959451    1.268241
    106          6           0      -25.997558   -4.297943    2.391890
    107          6           0      -26.202992   -2.874496    1.870066
    108          6           0      -25.872343   -5.956607    0.272560
    109          6           0      -25.358195   -4.317355    3.844959
    110          6           0      -26.331048   -4.214305    5.030512
    111          7           0      -26.341234   -0.033882    1.102230
    112          6           0      -27.073013   -0.585094    2.110032
    113          6           0      -27.854687    0.418034    2.797795
    114          6           0      -27.523421    1.571069    2.062816
    115          6           0      -26.657541    1.244131    1.009453
    116          6           0      -28.811297    0.336570    4.009591
    117          6           0      -27.757457    2.987015    2.005418
    118          8           0      -28.280850    3.770046    2.754091
    119          6           0      -27.113254    3.460099    0.600838
    120          6           0      -26.442261    4.696154    1.011948
    121          8           0      -25.316171    4.844315    1.550483
    122          8           0      -27.306280    5.678416    0.702940
    123          6           0      -26.936471    7.055615    1.032514
    124          1           0      -23.212883    0.217318   -4.187328
    125          1           0      -23.104588   -4.841202   -0.391390
    126          1           0      -27.533492   -2.268285    3.376467
    127          1           0      -26.458084    3.596774   -2.427394
    128          1           0      -24.146469    2.513743   -3.943350
    129          1           0      -26.294779    0.779125   -4.491811
    130          1           0      -25.504733    2.035349   -5.485731
    131          1           0      -27.005455    2.361072   -4.581527
    132          1           0      -23.469625    4.099502   -2.406564
    133          1           0      -24.117656    4.062093   -0.875645
    134          1           0      -25.938164    5.805093   -1.718732
    135          1           0      -25.019299    5.951448   -3.222100
    136          1           0      -20.567291   -1.030272   -4.284523
    137          1           0      -21.984889   -0.993902   -5.122316
    138          1           0      -21.243031   -2.497056   -5.215814
    139          1           0      -19.431441   -3.694728   -3.458032
    140          1           0      -20.814583   -4.539164   -4.303333
    141          1           0      -19.570511   -5.441602   -3.499729
    142          1           0      -24.259559   -5.443936    1.652701
    143          1           0      -26.940470   -4.834547    2.496720
    144          1           0      -26.951138   -5.933350    0.426187
    145          1           0      -25.620528   -7.015666    0.321688
    146          1           0      -25.815491   -5.714510   -0.788899
    147          1           0      -24.808145   -3.376390    3.874401
    148          1           0      -24.685675   -5.139700    4.089970
    149          1           0      -26.203771   -3.284711    5.586788
    150          1           0      -26.326818   -4.995173    5.791266
    151          1           0      -27.318317   -4.112989    4.581993
    152          1           0      -29.169231   -0.692720    4.033045
    153          1           0      -29.640952    1.036673    3.902912
    154          1           0      -28.203263    0.536642    4.891779
    155          1           0      -27.909413    3.722565   -0.096053
    156          1           0      -26.744785    7.592671    0.103740
    157          1           0      -26.141428    7.102931    1.775909
    158          1           0      -27.813601    7.551851    1.447653
 ---------------------------------------------------------------------

 SCF Done:  E(RCAM-B3LYP) =  -4069.81708748     A.U. after   17 cycles

 Excitation energies and oscillator strengths:

 Excited State   1:      Singlet-A      1.7272 eV  717.85 nm  f=0.3769  <S**2>=0.000
     309 -> 315       -0.19745
     311 -> 313        0.68096
     309 <- 315       -0.11062
 This state for optimization and/or second-order correction.
 Total Energy, E(TD-HF/TD-DFT) =  -4069.75361517
 Copying the excited state density for this state as the 1-particle RhoCI density.

 Excited State   2:      Singlet-A      1.7450 eV  710.50 nm  f=0.3934  <S**2>=0.000
     310 -> 316       -0.18611
     312 -> 314        0.68383
     310 <- 316       -0.10700

 Excited State   3:      Singlet-A      2.2496 eV  551.13 nm  f=0.0620  <S**2>=0.000
     309 -> 313        0.61703
     311 -> 315        0.33568

 Excited State   4:      Singlet-A      2.2617 eV  548.20 nm  f=0.1162  <S**2>=0.000
     310 -> 314        0.64504
     312 -> 316        0.27672

 Excited State   5:      Singlet-A      3.2536 eV  381.07 nm  f=0.0000  <S**2>=0.000
     312 -> 313        0.70710

 The electronic state is 1-A.
 Alpha  occ. eigenvalues --  -46.88708 -46.87566 -19.25788 -19.24861 -19.20416
 Alpha  occ. eigenvalues --  -19.19664 -19.19435 -19.19031 -19.18836 -19.18421
 Alpha  occ. eigenvalues --  -14.42592 -14.42247 -14.41723 -14.41062 -14.39451
 Alpha  occ. eigenvalues --  -14.39147 -14.39140 -14.38399 -10.39782 -10.38562
 Alpha  occ. eigenvalues --  -10.36170 -10.35989 -10.34654 -10.34511 -10.31816
 Alpha  occ. eigenvalues --  -10.31706 -10.31186 -10.31079 -10.30998 -10.30781
 Alpha  occ. eigenvalues --  -10.30632 -10.30598 -10.30577 -10.30361 -10.30268
 Alpha  occ. eigenvalues --  -10.30108 -10.30034 -10.29963 -10.29651 -10.29619
 Alpha  occ. eigenvalues --  -10.29461 -10.29223 -10.28716 -10.28701 -10.28678
 Alpha  occ. eigenvalues --  -10.28560 -10.28536 -10.28396 -10.28362 -10.27964
 Alpha  occ. eigenvalues --  -10.27858 -10.27830 -10.27740 -10.27736 -10.27729
 Alpha  occ. eigenvalues --  -10.27706 -10.27673 -10.27646 -10.27603 -10.27600
 Alpha  occ. eigenvalues --  -10.27507 -10.27427 -10.27294 -10.27276 -10.27102
 Alpha  occ. eigenvalues --  -10.27038 -10.26962 -10.26799 -10.26642 -10.26497
 Alpha  occ. eigenvalues --  -10.26425 -10.26354 -10.26252 -10.26193 -10.26056
 Alpha  occ. eigenvalues --  -10.25992 -10.25991 -10.25867 -10.25837 -10.25815
 Alpha  occ. eigenvalues --  -10.25357 -10.25290 -10.25273 -10.25130 -10.24433
 Alpha  occ. eigenvalues --  -10.24297  -3.17271  -3.16409  -1.92159  -1.91740
 Alpha  occ. eigenvalues --   -1.91559  -1.91294  -1.90876  -1.90723  -1.16835
 Alpha  occ. eigenvalues --   -1.15929  -1.10767  -1.10401  -1.10301  -1.09385
 Alpha  occ. eigenvalues --   -1.08771  -1.05542  -1.05185  -1.04973  -1.04297
 Alpha  occ. eigenvalues --   -1.03785  -1.03586  -1.03350  -1.02443  -1.02405
 Alpha  occ. eigenvalues --   -0.93824  -0.92708  -0.89436  -0.89105  -0.88566
 Alpha  occ. eigenvalues --   -0.88256  -0.88250  -0.88041  -0.87486  -0.87442
 Alpha  occ. eigenvalues --   -0.87224  -0.86965  -0.86258  -0.86201  -0.84528
 Alpha  occ. eigenvalues --   -0.84069  -0.83820  -0.83626  -0.82473  -0.82407
 Alpha  occ. eigenvalues --   -0.82264  -0.81541  -0.81262  -0.80928  -0.80414
 Alpha  occ. eigenvalues --   -0.80296  -0.78514  -0.78213  -0.77597  -0.77314
 Alpha  occ. eigenvalues --   -0.76912  -0.76586  -0.76155  -0.75914  -0.75397
 Alpha  occ. eigenvalues --   -0.74865  -0.72781  -0.72484  -0.72126  -0.71802
 Alpha  occ. eigenvalues --   -0.70053  -0.69242  -0.69165  -0.68792  -0.68358
 Alpha  occ. eigenvalues --   -0.67909  -0.67211  -0.67008  -0.66047  -0.65540
 Alpha  occ. eigenvalues --   -0.65374  -0.64856  -0.64830  -0.64443  -0.64439
 Alpha  occ. eigenvalues --   -0.64012  -0.62491  -0.61763  -0.60230  -0.60073
 Alpha  occ. eigenvalues --   -0.59835  -0.59450  -0.59380  -0.59143  -0.58636
 Alpha  occ. eigenvalues --   -0.58633  -0.58244  -0.57970  -0.57352  -0.57149
 Alpha  occ. eigenvalues --   -0.56554  -0.56318  -0.55921  -0.55730  -0.55507
 Alpha  occ. eigenvalues --   -0.55436  -0.55237  -0.54599  -0.54359  -0.54016
 Alpha  occ. eigenvalues --   -0.53915  -0.53428  -0.53251  -0.53209  -0.53142
 Alpha  occ. eigenvalues --   -0.52770  -0.52691  -0.52550  -0.52549  -0.52217
 Alpha  occ. eigenvalues --   -0.52097  -0.51596  -0.51426  -0.51134  -0.51020
 Alpha  occ. eigenvalues --   -0.51017  -0.50724  -0.50602  -0.50383  -0.50287
 Alpha  occ. eigenvalues --   -0.50161  -0.50017  -0.49924  -0.49630  -0.49457
 Alpha  occ. eigenvalues --   -0.49419  -0.49222  -0.49046  -0.48976  -0.48920
 Alpha  occ. eigenvalues --   -0.48823  -0.48499  -0.48479  -0.48108  -0.48017
 Alpha  occ. eigenvalues --   -0.47904  -0.47501  -0.47414  -0.47256  -0.47097
 Alpha  occ. eigenvalues --   -0.46868  -0.46661  -0.46498  -0.46340  -0.46118
 Alpha  occ. eigenvalues --   -0.46002  -0.45903  -0.45738  -0.45710  -0.45518
 Alpha  occ. eigenvalues --   -0.45370  -0.45144  -0.45078  -0.44971  -0.44880
 Alpha  occ. eigenvalues --   -0.44736  -0.44428  -0.44210  -0.44081  -0.44029
 Alpha  occ. eigenvalues --   -0.43856  -0.43727  -0.43669  -0.43555  -0.43472
 Alpha  occ. eigenvalues --   -0.43339  -0.43246  -0.43091  -0.42904  -0.42870
 Alpha  occ. eigenvalues --   -0.42855  -0.42653  -0.42576  -0.42407  -0.42393
 Alpha  occ. eigenvalues --   -0.42204  -0.42072  -0.41904  -0.41850  -0.41660
 Alpha  occ. eigenvalues --   -0.41339  -0.41194  -0.40812  -0.40773  -0.40577
 Alpha  occ. eigenvalues --   -0.40314  -0.40256  -0.39612  -0.39592  -0.38843
 Alpha  occ. eigenvalues --   -0.38774  -0.38478  -0.37849  -0.37838  -0.37749
 Alpha  occ. eigenvalues --   -0.37377  -0.37328  -0.36993  -0.36716  -0.36359
 Alpha  occ. eigenvalues --   -0.35495  -0.35215  -0.34929  -0.34271  -0.33977
 Alpha  occ. eigenvalues --   -0.33929  -0.33164  -0.32966  -0.31721  -0.31444
 Alpha  occ. eigenvalues --   -0.31312  -0.31093  -0.30809  -0.30538  -0.30327
 Alpha  occ. eigenvalues --   -0.30054  -0.29602  -0.29183  -0.24180  -0.23794
 Alpha  occ. eigenvalues --   -0.21111  -0.21076
 Alpha virt. eigenvalues --   -0.08434  -0.08385  -0.02294  -0.01331  -0.00287
 Alpha virt. eigenvalues --    0.00434   0.01897   0.02409   0.02555   0.03150
 Alpha virt. eigenvalues --    0.04794   0.05146   0.05147   0.05543   0.06113

 Mulliken charges:
               1
     1  Mg   0.838633
     2  C    0.003034
     3  C   -0.061073
     4  C   -0.104784
     5  C   -0.054738
     6  N   -0.218640
     7  C   -0.092750
     8  C   -0.042361
     9  C   -0.061297
    10  C    0.010987
    11  C    0.050375
    12  C    0.024647
    13  C   -0.040713
    14  H    0.041612
    15  N   -0.391178
    16  C    0.155155
    17  C   -0.142609
    18  C   -0.042406
    19  C    0.127186
    20  C    0.119219
    21  C    0.040019
    22  O   -0.203576
    23  C    0.039544
    24  N   -0.333291
    25  C    0.048243
    26  C   -0.057763
    27  C    0.015432
    28  C   -0.039431
    29  C    0.082148
    30  C    0.031343
    31  C    0.039668
    32  N   -0.320466
    33  C    0.146487
    34  C   -0.155199
    35  C   -0.024216
    36  C    0.123356
    37  C    0.118388
    38  C    0.036040
    39  O   -0.149033
    40  C   -0.004675
    41  C    0.202111
    42  O   -0.198435
    43  O   -0.329896
    44  C    0.164261
    45  H   -0.038357
    46  H   -0.000493
    47  H   -0.043687
    48  H    0.025026
    49  H    0.023754
    50  H    0.021434
    51  H    0.003541
    52  H    0.029311
    53  H    0.011282
    54  H    0.008517
    55  H    0.027379
    56  H    0.016219
    57  H    0.020639
    58  H    0.026102
    59  H    0.028284
    60  H    0.036693
    61  H    0.028214
    62  H    0.021109
    63  H    0.014652
    64  H    0.015006
    65  H    0.028215
    66  H    0.010043
    67  H    0.017429
    68  H   -0.003783
    69  H    0.009901
    70  H    0.011556
    71  H    0.012328
    72  H    0.011290
    73  H    0.009266
    74  H    0.018040
    75  H    0.040681
    76  H    0.048860
    77  H    0.031874
    78  H    0.052094
    79  H    0.038224
    80  Mg   0.852757
    81  C    0.059583
    82  C   -0.070807
    83  C   -0.057477
    84  C   -0.106734
    85  N   -0.270990
    86  C    0.000304
    87  C   -0.067218
    88  C   -0.030269
    89  C    0.007039
    90  C    0.073758
    91  C    0.057203
    92  C   -0.089410
    93  H    0.003792
    94  N   -0.473314
    95  C    0.176008
    96  C   -0.108111
    97  C   -0.095513
    98  C    0.154274
    99  C    0.089104
   100  C    0.047435
   101  O   -0.208999
   102  C    0.040316
   103  N   -0.291852
   104  C    0.056798
   105  C   -0.031481
   106  C   -0.009910
   107  C    0.037018
   108  C    0.062905
   109  C    0.033912
   110  C   -0.009099
   111  N   -0.270795
   112  C    0.124395
   113  C   -0.199726
   114  C    0.032762
   115  C    0.059074
   116  C    0.139568
   117  C    0.025857
   118  O   -0.148467
   119  C   -0.069269
   120  C    0.203339
   121  O   -0.256608
   122  O   -0.319716
   123  C    0.175293
   124  H   -0.039469
   125  H    0.000575
   126  H   -0.042871
   127  H    0.011935
   128  H    0.003432
   129  H    0.020775
   130  H    0.015863
   131  H    0.020552
   132  H    0.007594
   133  H    0.035339
   134  H    0.036299
   135  H    0.033615
   136  H    0.029969
   137  H    0.006216
   138  H    0.032716
   139  H    0.052589
   140  H    0.030727
   141  H    0.020736
   142  H    0.015904
   143  H    0.001399
   144  H   -0.000330
   145  H    0.021553
   146  H    0.019813
   147  H    0.012314
   148  H    0.017935
   149  H    0.013140
   150  H    0.020651
   151  H    0.010245
   152  H    0.013425
   153  H    0.043206
   154  H    0.041356
   155  H    0.043553
   156  H    0.032019
   157  H    0.059373
   158  H    0.031124
 Sum of Mulliken charges =  -0.00000

 Dipole moment (field-independent basis, Debye):
    X=              1.5697    Y=             -1.5813    Z=             -8.2524  Tot=              8.5480
 Quadrupole moment (field-independent basis, Debye-Ang):
   XX=           -419.6757   YY=           -515.0704   ZZ=           -475.5505
   XY=             37.7798   XZ=             25.0010   YZ=            -47.9267

 Normal termination of Gaussian 16 at Tue Aug 31 21:24:59 2021.
