 Gaussian 16, Revision A.03,
 Gaussian 16:  ES64L-G16RevA.03 25-Dec-2016

 -----------------------------------
 #p cam-b3lyp/Def2SVP td=(nstates=5)
 -----------------------------------

 --------------------------------
 TDDFT excited states in gaussian
 --------------------------------
 Symbolic Z-matrix:
 Charge =  0 Multiplicity = 1

                         Standard orientation:
 ---------------------------------------------------------------------
 Center     Atomic      Atomic             Coordinates (Angstroms)
 Number     Number       Type             X           Y           Z
 ---------------------------------------------------------------------
      1         12           0      -24.795086   -0.566878   -0.148805
      2          6           0      -23.231289    2.423317   -0.855372
      3          6           0      -24.924346    0.543900    3.253747
      4          6           0      -25.972370   -3.482883    0.725314
      5          6           0      -24.301380   -1.647573   -3.397429
      6          7           0      -23.927468    1.248501    1.082501
      7          6           0      -23.556445    2.380859    0.508910
      8          6           0      -23.651765    3.568655    1.507733
      9          6           0      -23.641013    2.778189    2.862722
     10          6           0      -24.200779    1.413334    2.430922
     11          6           0      -22.201315    2.666169    3.479126
     12          6           0      -24.987735    4.280788    1.199734
     13          6           0      -25.257831    5.588073    1.957019
     14          1           0      -24.374387    5.991702    3.120383
     15          7           0      -25.479401   -1.386839    1.634815
     16          6           0      -25.472850   -0.735856    2.916268
     17          6           0      -26.225424   -1.605675    3.809856
     18          6           0      -26.631493   -2.740403    3.040279
     19          6           0      -25.997884   -2.604593    1.729507
     20          6           0      -26.553219   -1.280112    5.314762
     21          6           0      -27.589099   -3.892253    3.491701
     22          8           0      -27.727496   -4.831275    2.756646
     23          6           0      -28.275614   -3.834632    4.817647
     24          7           0      -25.181775   -2.306418   -1.226444
     25          6           0      -25.686223   -3.419897   -0.648558
     26          6           0      -25.800096   -4.600964   -1.611680
     27          6           0      -25.392104   -3.955461   -2.956265
     28          6           0      -24.918201   -2.518355   -2.492400
     29          6           0      -24.934981   -5.862941   -1.247069
     30          6           0      -26.389967   -4.013932   -4.084631
     31          6           0      -27.876606   -3.644191   -3.863797
     32          7           0      -23.945189    0.149610   -1.832960
     33          6           0      -23.816051   -0.373533   -3.087686
     34          6           0      -23.253249    0.663820   -3.926140
     35          6           0      -23.014589    1.833091   -3.125034
     36          6           0      -23.456168    1.431820   -1.834493
     37          6           0      -22.969760    0.498247   -5.386569
     38          6           0      -22.482418    3.153406   -3.077455
     39          8           0      -21.944194    3.885874   -3.936020
     40          6           0      -22.378163    3.450440   -1.483408
     41          6           0      -22.717387    4.930066   -1.295715
     42          8           0      -23.682470    5.464000   -1.690424
     43          8           0      -21.679125    5.517805   -0.630737
     44          6           0      -21.907897    6.810890   -0.019484
     45          1           0      -24.899852    0.861070    4.297945
     46          1           0      -26.312706   -4.490887    0.971460
     47          1           0      -24.100454   -1.933708   -4.431212
     48          1           0      -22.768539    4.206469    1.476245
     49          1           0      -24.346875    3.331727    3.482428
     50          1           0      -22.112693    3.356759    4.316871
     51          1           0      -21.483613    2.895059    2.691102
     52          1           0      -21.985853    1.686644    3.906080
     53          1           0      -25.789346    3.610402    1.508655
     54          1           0      -25.158897    4.385755    0.128825
     55          1           0      -26.317747    5.767344    2.138795
     56          1           0      -25.128254    6.363187    1.201465
     57          1           0      -26.291575   -2.100780    5.983363
     58          1           0      -27.613455   -1.028353    5.333720
     59          1           0      -26.047869   -0.358245    5.605177
     60          1           0      -29.179255   -4.413168    4.624450
     61          1           0      -28.630438   -2.834669    5.064567
     62          1           0      -27.720094   -4.012955    5.738311
     63          1           0      -26.855545   -4.871978   -1.598264
     64          1           0      -24.458390   -4.353647   -3.353352
     65          1           0      -24.614580   -6.280858   -2.201050
     66          1           0      -25.663192   -6.505156   -0.751284
     67          1           0      -24.159259   -5.598777   -0.528406
     68          1           0      -26.471934   -5.093711   -4.204352
     69          1           0      -26.117307   -3.535722   -5.026011
     70          1           0      -28.629528   -4.413586   -4.029584
     71          1           0      -28.215471   -2.909020   -4.593687
     72          1           0      -28.010997   -3.302199   -2.837496
     73          1           0      -22.499514    1.430094   -5.699329
     74          1           0      -23.905491    0.414939   -5.940979
     75          1           0      -22.426393   -0.406736   -5.656739
     76          1           0      -21.355749    3.180693   -1.218009
     77          1           0      -21.043371    7.233450   -0.531679
     78          1           0      -21.942329    6.782919    1.069821
     79          1           0      -22.801852    7.325144   -0.373272
     80         12           0       24.190315   -0.871870   -0.185873
     81          6           0       25.179777    2.522359   -0.257474
     82          6           0       22.660032   -0.261810    2.816649
     83          6           0       23.836989   -4.143152    0.190552
     84          6           0       26.204569   -1.416348   -2.996172
     85          7           0       24.090447    0.898991    1.207766
     86          6           0       24.483250    2.200627    0.884982
     87          6           0       23.866800    3.202461    1.892236
     88          6           0       23.075159    2.274428    2.884454
     89          6           0       23.224421    0.851973    2.277143
     90          6           0       23.343054    2.457727    4.368078
     91          6           0       23.000870    4.325385    1.300244
     92          6           0       23.451287    5.753260    1.714227
     93          1           0       22.390271    6.603280    2.377314
     94          7           0       23.274918   -2.016710    1.282326
     95          6           0       22.726168   -1.616503    2.465174
     96          6           0       22.082596   -2.763506    3.060136
     97          6           0       22.551645   -3.958258    2.363568
     98          6           0       23.270911   -3.361186    1.248761
     99          6           0       21.264807   -2.675811    4.450841
    100          6           0       22.609116   -5.368247    2.768356
    101          8           0       23.009256   -6.295983    2.124579
    102          6           0       22.112983   -5.677210    4.177757
    103          7           0       25.115885   -2.560787   -1.166902
    104          6           0       24.739623   -3.814804   -0.848992
    105          6           0       25.224331   -4.809800   -1.906045
    106          6           0       25.647681   -3.894006   -3.065712
    107          6           0       25.630000   -2.528480   -2.415793
    108          6           0       26.435746   -5.696654   -1.360524
    109          6           0       24.523798   -3.977775   -4.219575
    110          6           0       23.178218   -3.269934   -3.902393
    111          7           0       25.376003    0.269660   -1.516693
    112          6           0       26.100197   -0.090777   -2.588528
    113          6           0       26.714880    1.090286   -3.132389
    114          6           0       26.343856    2.122555   -2.291324
    115          6           0       25.569169    1.584730   -1.259921
    116          6           0       27.613834    1.229441   -4.346185
    117          6           0       26.569392    3.557914   -2.101122
    118          8           0       27.232149    4.434100   -2.580723
    119          6           0       25.761535    3.896667   -0.820494
    120          6           0       26.746879    4.465331    0.132440
    121          8           0       27.748445    3.866135    0.433742
    122          8           0       26.437748    5.751180    0.545907
    123          6           0       27.523514    6.499626    1.263325
    124          1           0       22.005882   -0.013137    3.655069
    125          1           0       23.650244   -5.219371    0.201195
    126          1           0       26.673079   -1.450874   -3.981982
    127          1           0       24.670904    3.638758    2.485190
    128          1           0       22.025034    2.564792    2.846902
    129          1           0       24.263685    3.014570    4.536241
    130          1           0       23.377133    1.522385    4.927283
    131          1           0       22.545124    3.102736    4.735145
    132          1           0       21.941845    4.344982    1.557559
    133          1           0       22.997246    4.275946    0.211607
    134          1           0       23.944204    6.270912    0.891389
    135          1           0       24.215323    5.644258    2.482895
    136          1           0       20.314854   -3.191438    4.310507
    137          1           0       20.989530   -1.676649    4.786355
    138          1           0       21.737038   -3.046612    5.360539
    139          1           0       21.064666   -5.379668    4.143840
    140          1           0       22.707797   -5.035163    4.826659
    141          1           0       22.135751   -6.733387    4.448003
    142          1           0       24.434067   -5.453493   -2.293825
    143          1           0       26.637040   -3.992712   -3.512947
    144          1           0       26.387633   -6.651574   -1.884553
    145          1           0       26.465887   -5.942951   -0.298604
    146          1           0       27.324134   -5.149501   -1.675567
    147          1           0       24.306256   -5.001536   -4.523393
    148          1           0       24.840718   -3.386315   -5.078660
    149          1           0       22.367126   -3.471042   -4.601438
    150          1           0       23.361329   -2.195547   -3.925219
    151          1           0       22.889099   -3.554710   -2.890228
    152          1           0       27.138639    0.964224   -5.290343
    153          1           0       28.416706    0.519067   -4.150778
    154          1           0       28.090384    2.207824   -4.407305
    155          1           0       25.084710    4.682470   -1.155460
    156          1           0       26.924101    6.927006    2.067159
    157          1           0       27.958495    7.299600    0.664502
    158          1           0       28.387423    5.967984    1.661441
 ---------------------------------------------------------------------

 SCF Done:  E(RCAM-B3LYP) =  -4069.81464049     A.U. after   19 cycles

 Excitation energies and oscillator strengths:

 Excited State   1:      Singlet-A      1.7037 eV  727.75 nm  f=0.3985  <S**2>=0.000
     309 -> 316        0.17557
     311 -> 313        0.68731
     309 <- 316        0.10763
 This state for optimization and/or second-order correction.
 Total Energy, E(TD-HF/TD-DFT) =  -4069.75203173
 Copying the excited state density for this state as the 1-particle RhoCI density.

 Excited State   2:      Singlet-A      1.7338 eV  715.11 nm  f=0.3783  <S**2>=0.000
     310 -> 315       -0.19618
     312 -> 314        0.68088
     310 <- 315       -0.11070

 Excited State   3:      Singlet-A      2.1918 eV  565.68 nm  f=0.1384  <S**2>=0.000
     309 -> 313        0.65684
     311 -> 316       -0.24836

 Excited State   4:      Singlet-A      2.2193 eV  558.65 nm  f=0.0923  <S**2>=0.000
     310 -> 314        0.63504
     312 -> 315        0.29923

 Excited State   5:      Singlet-A      3.0570 eV  405.58 nm  f=0.0000  <S**2>=0.000
     312 -> 313        0.70711

 The electronic state is 1-A.
 Alpha  occ. eigenvalues --  -46.89555 -46.88285 -19.25153 -19.24403 -19.20278
 Alpha  occ. eigenvalues --  -19.19616 -19.19289 -19.19111 -19.19033 -19.18411
 Alpha  occ. eigenvalues --  -14.42122 -14.41933 -14.41749 -14.41746 -14.39783
 Alpha  occ. eigenvalues --  -14.39322 -14.39291 -14.39241 -10.38933 -10.38804
 Alpha  occ. eigenvalues --  -10.35290 -10.35166 -10.35075 -10.34386 -10.31817
 Alpha  occ. eigenvalues --  -10.31539 -10.31480 -10.30786 -10.30770 -10.30766
 Alpha  occ. eigenvalues --  -10.30728 -10.30636 -10.30608 -10.30444 -10.30300
 Alpha  occ. eigenvalues --  -10.30251 -10.29974 -10.29640 -10.29639 -10.29364
 Alpha  occ. eigenvalues --  -10.29330 -10.29172 -10.29024 -10.28787 -10.28687
 Alpha  occ. eigenvalues --  -10.28616 -10.28473 -10.28197 -10.28093 -10.28042
 Alpha  occ. eigenvalues --  -10.28037 -10.28008 -10.27902 -10.27818 -10.27798
 Alpha  occ. eigenvalues --  -10.27776 -10.27714 -10.27671 -10.27637 -10.27599
 Alpha  occ. eigenvalues --  -10.27598 -10.27519 -10.27405 -10.27041 -10.26999
 Alpha  occ. eigenvalues --  -10.26758 -10.26658 -10.26575 -10.26564 -10.26520
 Alpha  occ. eigenvalues --  -10.26482 -10.26478 -10.26293 -10.26284 -10.26284
 Alpha  occ. eigenvalues --  -10.26222 -10.26184 -10.25974 -10.25967 -10.25808
 Alpha  occ. eigenvalues --  -10.25761 -10.25620 -10.25286 -10.25075 -10.25053
 Alpha  occ. eigenvalues --  -10.24962  -3.17957  -3.16921  -1.92840  -1.92427
 Alpha  occ. eigenvalues --   -1.92251  -1.91821  -1.91393  -1.91212  -1.17629
 Alpha  occ. eigenvalues --   -1.15699  -1.11680  -1.11539  -1.11079  -1.09817
 Alpha  occ. eigenvalues --   -1.08026  -1.07632  -1.05252  -1.05198  -1.04301
 Alpha  occ. eigenvalues --   -1.04097  -1.03845  -1.03069  -1.02092  -1.02009
 Alpha  occ. eigenvalues --   -0.93037  -0.92372  -0.89396  -0.88890  -0.88823
 Alpha  occ. eigenvalues --   -0.88686  -0.88555  -0.88230  -0.87753  -0.87325
 Alpha  occ. eigenvalues --   -0.86555  -0.86450  -0.86342  -0.85697  -0.84423
 Alpha  occ. eigenvalues --   -0.84084  -0.83752  -0.83508  -0.82518  -0.82447
 Alpha  occ. eigenvalues --   -0.81780  -0.81442  -0.81222  -0.80875  -0.80298
 Alpha  occ. eigenvalues --   -0.80178  -0.78390  -0.78012  -0.77433  -0.77377
 Alpha  occ. eigenvalues --   -0.76839  -0.76774  -0.76176  -0.75890  -0.75529
 Alpha  occ. eigenvalues --   -0.75235  -0.73115  -0.72702  -0.72024  -0.71776
 Alpha  occ. eigenvalues --   -0.70288  -0.69378  -0.69209  -0.68901  -0.68124
 Alpha  occ. eigenvalues --   -0.68089  -0.67312  -0.66220  -0.65495  -0.65333
 Alpha  occ. eigenvalues --   -0.65206  -0.65168  -0.64940  -0.64452  -0.64317
 Alpha  occ. eigenvalues --   -0.64173  -0.62390  -0.62290  -0.60525  -0.60424
 Alpha  occ. eigenvalues --   -0.59731  -0.59669  -0.59296  -0.59181  -0.58841
 Alpha  occ. eigenvalues --   -0.58763  -0.58163  -0.58137  -0.57937  -0.57548
 Alpha  occ. eigenvalues --   -0.56244  -0.56156  -0.55998  -0.55670  -0.55380
 Alpha  occ. eigenvalues --   -0.55369  -0.55234  -0.54589  -0.54246  -0.54208
 Alpha  occ. eigenvalues --   -0.53656  -0.53539  -0.53438  -0.52984  -0.52954
 Alpha  occ. eigenvalues --   -0.52683  -0.52450  -0.52411  -0.52326  -0.52139
 Alpha  occ. eigenvalues --   -0.52102  -0.51897  -0.51828  -0.51505  -0.51272
 Alpha  occ. eigenvalues --   -0.50782  -0.50775  -0.50738  -0.50167  -0.50043
 Alpha  occ. eigenvalues --   -0.50007  -0.49810  -0.49710  -0.49580  -0.49518
 Alpha  occ. eigenvalues --   -0.49394  -0.49344  -0.49331  -0.49330  -0.49046
 Alpha  occ. eigenvalues --   -0.48794  -0.48418  -0.48299  -0.48252  -0.48159
 Alpha  occ. eigenvalues --   -0.47996  -0.47952  -0.47658  -0.47587  -0.47482
 Alpha  occ. eigenvalues --   -0.47018  -0.46868  -0.46642  -0.46565  -0.46443
 Alpha  occ. eigenvalues --   -0.46143  -0.46110  -0.45979  -0.45909  -0.45855
 Alpha  occ. eigenvalues --   -0.45606  -0.45605  -0.45318  -0.45227  -0.45114
 Alpha  occ. eigenvalues --   -0.45032  -0.44760  -0.44529  -0.44067  -0.43879
 Alpha  occ. eigenvalues --   -0.43697  -0.43397  -0.43378  -0.43342  -0.43283
 Alpha  occ. eigenvalues --   -0.43066  -0.43000  -0.42910  -0.42879  -0.42715
 Alpha  occ. eigenvalues --   -0.42448  -0.42326  -0.42321  -0.42107  -0.42084
 Alpha  occ. eigenvalues --   -0.42008  -0.41998  -0.41897  -0.41590  -0.41475
 Alpha  occ. eigenvalues --   -0.41451  -0.41379  -0.41011  -0.40934  -0.40327
 Alpha  occ. eigenvalues --   -0.40243  -0.39745  -0.39572  -0.39461  -0.39093
 Alpha  occ. eigenvalues --   -0.38419  -0.38338  -0.38076  -0.37972  -0.37850
 Alpha  occ. eigenvalues --   -0.37530  -0.37150  -0.37034  -0.36407  -0.36374
 Alpha  occ. eigenvalues --   -0.36246  -0.35871  -0.35154  -0.34414  -0.34093
 Alpha  occ. eigenvalues --   -0.33979  -0.33408  -0.33364  -0.31628  -0.31600
 Alpha  occ. eigenvalues --   -0.31231  -0.31031  -0.30438  -0.30402  -0.30312
 Alpha  occ. eigenvalues --   -0.30162  -0.29841  -0.29381  -0.24188  -0.23828
 Alpha  occ. eigenvalues --   -0.21592  -0.21115
 Alpha virt. eigenvalues --   -0.09183  -0.08455  -0.01906  -0.01440   0.00170
 Alpha virt. eigenvalues --    0.00547   0.01677   0.02500   0.02591   0.03005
 Alpha virt. eigenvalues --    0.05298   0.05318   0.05661   0.05832   0.06047

 Mulliken charges:
               1
     1  Mg   0.826034
     2  C   -0.012302
     3  C   -0.069441
     4  C   -0.074876
     5  C   -0.110735
     6  N   -0.226788
     7  C   -0.083335
     8  C   -0.038275
     9  C   -0.040670
    10  C    0.001550
    11  C    0.086690
    12  C    0.038263
    13  C   -0.033820
    14  H    0.030037
    15  N   -0.395523
    16  C    0.163786
    17  C   -0.171008
    18  C   -0.041627
    19  C    0.168868
    20  C    0.109758
    21  C    0.017407
    22  O   -0.181327
    23  C    0.052851
    24  N   -0.266013
    25  C   -0.012101
    26  C   -0.046941
    27  C   -0.006081
    28  C    0.066901
    29  C    0.083994
    30  C    0.038650
    31  C   -0.018433
    32  N   -0.393949
    33  C    0.127035
    34  C   -0.170485
    35  C    0.015079
    36  C    0.149471
    37  C    0.114106
    38  C    0.076149
    39  O   -0.199760
    40  C   -0.076688
    41  C    0.177531
    42  O   -0.154502
    43  O   -0.338146
    44  C    0.149823
    45  H   -0.021745
    46  H   -0.018189
    47  H   -0.032788
    48  H   -0.002285
    49  H   -0.002000
    50  H    0.017261
    51  H    0.023458
    52  H    0.018033
    53  H    0.001283
    54  H    0.042103
    55  H    0.018718
    56  H    0.015680
    57  H    0.037187
    58  H    0.036383
    59  H    0.006410
    60  H    0.032728
    61  H   -0.000047
    62  H    0.047142
    63  H    0.021820
    64  H    0.003758
    65  H    0.024778
    66  H    0.026010
    67  H    0.031876
    68  H    0.004417
    69  H    0.015881
    70  H    0.010623
    71  H    0.010210
    72  H    0.020208
    73  H    0.037301
    74  H    0.019402
    75  H    0.024870
    76  H    0.054918
    77  H    0.050910
    78  H    0.046123
    79  H    0.046404
    80  Mg   0.813094
    81  C   -0.023641
    82  C   -0.077251
    83  C   -0.062036
    84  C   -0.064335
    85  N   -0.302467
    86  C   -0.035106
    87  C    0.006874
    88  C   -0.058615
    89  C    0.050767
    90  C    0.068882
    91  C    0.056714
    92  C   -0.088705
    93  H    0.008347
    94  N   -0.363091
    95  C    0.161210
    96  C   -0.117005
    97  C   -0.041649
    98  C    0.130667
    99  C    0.062506
   100  C   -0.022262
   101  O   -0.176341
   102  C    0.054560
   103  N   -0.263261
   104  C    0.030065
   105  C   -0.035213
   106  C   -0.014435
   107  C    0.032486
   108  C    0.066526
   109  C    0.004393
   110  C   -0.014671
   111  N   -0.320757
   112  C    0.065156
   113  C   -0.162598
   114  C   -0.035081
   115  C    0.140040
   116  C    0.116967
   117  C    0.069097
   118  O   -0.136681
   119  C    0.003818
   120  C    0.181214
   121  O   -0.201513
   122  O   -0.351210
   123  C    0.165225
   124  H   -0.034094
   125  H   -0.000972
   126  H   -0.031183
   127  H    0.018631
   128  H    0.008125
   129  H    0.008568
   130  H    0.022437
   131  H    0.009354
   132  H    0.019155
   133  H    0.009149
   134  H    0.046125
   135  H    0.015636
   136  H    0.027184
   137  H    0.003881
   138  H    0.033280
   139  H    0.021865
   140  H    0.036827
   141  H    0.022616
   142  H    0.016585
   143  H    0.012839
   144  H    0.017351
   145  H    0.035550
   146  H    0.016225
   147  H    0.020204
   148  H    0.002076
   149  H    0.023683
   150  H    0.021704
   151  H    0.021060
   152  H    0.029140
   153  H    0.019751
   154  H    0.036356
   155  H    0.033846
   156  H    0.035892
   157  H    0.044054
   158  H    0.056416
 Sum of Mulliken charges =  -0.00000

 Dipole moment (field-independent basis, Debye):
    X=             -4.5349    Y=             -1.2551    Z=              4.6866  Tot=              6.6411
 Quadrupole moment (field-independent basis, Debye-Ang):
   XX=           -605.8115   YY=           -532.3938   ZZ=           -476.4421
   XY=             23.4491   XZ=            -76.6160   YZ=             60.5045

 Normal termination of Gaussian 16 at Wed Sep  1 05:02:31 2021.
