 Gaussian 16, Revision A.03,
 Gaussian 16:  ES64L-G16RevA.03 25-Dec-2016

 ----------------------------------------------------------
 #p cam-b3lyp/Def2SVP td=(nstates=5) density=(transition=1)
 ----------------------------------------------------------

 --------------------------------
 TDDFT excited states in gaussian
 --------------------------------
 Symbolic Z-matrix:
 Charge =  0 Multiplicity = 1

                         Standard orientation:
 ---------------------------------------------------------------------
 Center     Atomic      Atomic             Coordinates (Angstroms)
 Number     Number       Type             X           Y           Z
 ---------------------------------------------------------------------
      1         12           0       14.124410   -0.513878    0.288439
      2          6           0       11.138332   -2.136585   -0.773302
      3          6           0       14.938977    0.074905   -2.986093
      4          6           0       16.402400    1.923820    1.344587
      5          6           0       12.935560   -0.636024    3.593009
      6          7           0       12.901846   -0.816341   -1.677707
      7          6           0       11.887965   -1.672991   -1.882502
      8          6           0       11.869890   -2.090511   -3.341583
      9          6           0       13.059887   -1.324394   -4.096504
     10          6           0       13.765522   -0.756906   -2.762860
     11          6           0       13.913334   -2.361280   -4.860881
     12          6           0       10.515662   -1.803971   -3.970110
     13          6           0        9.805517   -0.500054   -3.535039
     14          1           0        9.767218    0.656463   -4.571032
     15          7           0       15.576987    0.782515   -0.693008
     16          6           0       15.696857    0.842271   -2.064412
     17          6           0       16.847316    1.651690   -2.317906
     18          6           0       17.273680    2.306497   -1.100089
     19          6           0       16.453598    1.659558   -0.044763
     20          6           0       17.333272    1.961397   -3.714915
     21          6           0       18.228756    3.492399   -0.955654
     22          8           0       18.701294    4.017149   -1.945530
     23          6           0       18.603865    4.054584    0.307131
     24          7           0       14.542645    0.581603    2.170449
     25          6           0       15.587215    1.377366    2.346055
     26          6           0       15.704138    1.915225    3.762939
     27          6           0       14.347345    1.354667    4.371622
     28          6           0       13.930878    0.330663    3.378313
     29          6           0       17.009928    1.404393    4.546665
     30          6           0       13.315115    2.546942    4.628900
     31          6           0       12.940821    2.943257    6.029026
     32          7           0       12.596580   -1.401494    1.246189
     33          6           0       12.304465   -1.472720    2.623538
     34          6           0       11.160103   -2.370692    2.866680
     35          6           0       10.734993   -2.637448    1.565342
     36          6           0       11.528518   -1.950827    0.581137
     37          6           0       10.629031   -2.970990    4.214110
     38          6           0        9.695620   -3.360871    0.825924
     39          8           0        8.754395   -4.090724    1.178509
     40          6           0        9.909953   -3.092715   -0.700301
     41          6           0        8.634720   -2.388582   -1.012402
     42          8           0        8.251903   -1.375741   -0.485147
     43          8           0        7.914180   -3.108210   -1.867782
     44          6           0        6.619575   -2.550607   -2.394097
     45          1           0       15.355721    0.007089   -3.993011
     46          1           0       17.105659    2.609183    1.821844
     47          1           0       12.596193   -0.518834    4.624810
     48          1           0       12.014892   -3.161419   -3.199151
     49          1           0       12.697560   -0.536883   -4.757832
     50          1           0       13.890767   -2.103900   -5.919628
     51          1           0       13.548551   -3.386501   -4.792892
     52          1           0       14.929646   -2.242076   -4.486340
     53          1           0        9.831756   -2.623819   -3.750344
     54          1           0       10.610046   -1.702195   -5.051628
     55          1           0       10.247860    0.070219   -2.718320
     56          1           0        8.794028   -0.816303   -3.279871
     57          1           0       16.682926    1.529227   -4.475858
     58          1           0       18.378140    1.654910   -3.774874
     59          1           0       17.398232    3.045514   -3.800614
     60          1           0       17.793330    4.511249    0.875510
     61          1           0       19.351059    4.831606    0.146900
     62          1           0       18.971694    3.186163    0.854690
     63          1           0       15.621157    2.999388    3.834807
     64          1           0       14.673038    1.059925    5.369357
     65          1           0       17.624088    0.802824    3.875935
     66          1           0       16.666752    0.755059    5.352306
     67          1           0       17.612618    2.176562    5.027290
     68          1           0       12.323578    2.298976    4.249951
     69          1           0       13.646171    3.462264    4.140219
     70          1           0       11.972405    2.561264    6.352160
     71          1           0       12.898275    4.025517    5.902180
     72          1           0       13.739662    2.841369    6.763769
     73          1           0       10.088954   -2.181758    4.736398
     74          1           0       11.492648   -3.364640    4.750369
     75          1           0        9.893656   -3.740485    3.979858
     76          1           0       10.052701   -4.072022   -1.158593
     77          1           0        5.776375   -2.739970   -1.729436
     78          1           0        6.374958   -2.975616   -3.368411
     79          1           0        6.806954   -1.483265   -2.511309
     80         12           0      -13.192897    0.929130   -0.565633
     81          6           0      -13.986264   -2.419098    0.234252
     82          6           0      -10.008729    0.128643   -0.873427
     83          6           0      -12.477205    4.266762   -0.421306
     84          6           0      -16.507164    1.790487    0.830395
     85          7           0      -12.147015   -0.958422   -0.276386
     86          6           0      -12.678378   -2.195797   -0.199953
     87          6           0      -11.578619   -3.236300   -0.488841
     88          6           0      -10.361888   -2.448170   -0.854570
     89          6           0      -10.823103   -0.976894   -0.625911
     90          6           0       -9.053820   -2.955732   -0.120664
     91          6           0      -11.894173   -4.397996   -1.489465
     92          6           0      -10.799193   -4.998322   -2.471624
     93          1           0      -10.702042   -6.524257   -2.614817
     94          7           0      -11.491439    2.025645   -0.887732
     95          6           0      -10.232352    1.481149   -1.002996
     96          6           0       -9.316140    2.554580   -1.264523
     97          6           0       -9.986189    3.829746   -1.104933
     98          6           0      -11.357103    3.408971   -0.740706
     99          6           0       -7.895211    2.218498   -1.473699
    100          6           0       -9.475378    5.275723   -1.320939
    101          8           0      -10.183465    6.199965   -1.090962
    102          6           0       -8.195026    5.523570   -2.049929
    103          7           0      -14.349939    2.753580    0.175541
    104          6           0      -13.798397    3.969509   -0.036903
    105          6           0      -14.769607    5.130298    0.350141
    106          6           0      -16.077453    4.363702    0.715345
    107          6           0      -15.658893    2.877428    0.594509
    108          6           0      -14.302834    6.025509    1.467081
    109          6           0      -17.365685    4.652357   -0.132081
    110          6           0      -17.499350    4.040466   -1.485522
    111          7           0      -14.955329    0.003481    0.342143
    112          6           0      -16.163356    0.472860    0.772068
    113          6           0      -17.017640   -0.641229    1.103828
    114          6           0      -16.240277   -1.815565    0.923989
    115          6           0      -14.974941   -1.358788    0.502683
    116          6           0      -18.375919   -0.599764    1.710071
    117          6           0      -16.207589   -3.245599    1.039479
    118          8           0      -17.045508   -4.084654    1.349556
    119          6           0      -14.762481   -3.709912    0.551177
    120          6           0      -14.088551   -4.668296    1.518562
    121          8           0      -13.751145   -4.368672    2.634770
    122          8           0      -13.897340   -5.889253    0.891527
    123          6           0      -13.283377   -6.894676    1.759588
    124          1           0       -8.982495   -0.068633   -1.191476
    125          1           0      -12.181995    5.317519   -0.447324
    126          1           0      -17.524447    2.034698    1.143063
    127          1           0      -11.537361   -3.694942    0.499121
    128          1           0      -10.152315   -2.641656   -1.906948
    129          1           0       -9.273869   -3.881221    0.411203
    130          1           0       -8.660616   -2.123442    0.463038
    131          1           0       -8.302668   -3.288888   -0.837061
    132          1           0      -12.703627   -4.044181   -2.128450
    133          1           0      -12.318573   -5.265533   -0.983450
    134          1           0       -9.856218   -4.599573   -2.097061
    135          1           0      -10.948576   -4.578571   -3.466480
    136          1           0       -7.333151    3.027509   -1.007668
    137          1           0       -7.712466    2.263452   -2.546678
    138          1           0       -7.467811    1.276027   -1.130983
    139          1           0       -7.471536    5.561861   -1.236609
    140          1           0       -8.308233    6.408922   -2.676323
    141          1           0       -7.850100    4.698160   -2.673075
    142          1           0      -15.050528    5.730250   -0.515679
    143          1           0      -16.440844    4.377039    1.742422
    144          1           0      -13.255133    5.845409    1.711368
    145          1           0      -14.850245    5.849154    2.393386
    146          1           0      -14.440232    7.042768    1.101306
    147          1           0      -17.481528    5.727858   -0.266596
    148          1           0      -18.228519    4.441542    0.500126
    149          1           0      -16.512139    3.793874   -1.876777
    150          1           0      -17.924630    4.601184   -2.318186
    151          1           0      -18.167207    3.190385   -1.342557
    152          1           0      -18.431000   -0.100589    2.677056
    153          1           0      -18.567653   -1.617234    2.051711
    154          1           0      -19.120763   -0.219091    1.010670
    155          1           0      -14.920277   -4.193890   -0.412862
    156          1           0      -12.376557   -6.866503    1.156242
    157          1           0      -13.898630   -7.778165    1.590907
    158          1           0      -13.191460   -6.569681    2.796166
 ---------------------------------------------------------------------

 SCF Done:  E(RCAM-B3LYP) =  -4069.75532647     A.U. after   19 cycles

 Excitation energies and oscillator strengths:

 Excited State   1:      Singlet-A      1.6888 eV  734.15 nm  f=0.4320  <S**2>=0.000
     309 -> 315       -0.19954
     311 -> 313        0.67660
     309 <- 315       -0.11424
 This state for optimization and/or second-order correction.
 Total Energy, E(TD-HF/TD-DFT) =  -4069.69326382
 Copying the excited state density for this state as the 1-particle RhoCI density.

 Excited State   2:      Singlet-A      1.7019 eV  728.49 nm  f=0.3125  <S**2>=0.000
     310 -> 316        0.18597
     312 -> 314        0.67991
     310 <- 316        0.10963

 Excited State   3:      Singlet-A      2.1898 eV  566.18 nm  f=0.1077  <S**2>=0.000
     310 -> 314        0.64197
     312 -> 316       -0.28248

 Excited State   4:      Singlet-A      2.1999 eV  563.58 nm  f=0.0732  <S**2>=0.000
     309 -> 313        0.61825
     311 -> 315        0.32980

 Excited State   5:      Singlet-A      2.9675 eV  417.81 nm  f=0.0000  <S**2>=0.000
     312 -> 313        0.70706

 The electronic state is 1-A.
 Alpha  occ. eigenvalues --  -46.90293 -46.89958 -19.25199 -19.24700 -19.19989
 Alpha  occ. eigenvalues --  -19.19540 -19.18969 -19.18946 -19.18597 -19.18143
 Alpha  occ. eigenvalues --  -14.42515 -14.42179 -14.42054 -14.41746 -14.40222
 Alpha  occ. eigenvalues --  -14.39620 -14.39460 -14.38773 -10.39081 -10.38839
 Alpha  occ. eigenvalues --  -10.35689 -10.35061 -10.34764 -10.34395 -10.32598
 Alpha  occ. eigenvalues --  -10.32093 -10.31591 -10.31475 -10.31221 -10.31088
 Alpha  occ. eigenvalues --  -10.31059 -10.31009 -10.30851 -10.30815 -10.30784
 Alpha  occ. eigenvalues --  -10.30677 -10.30328 -10.30039 -10.29933 -10.29552
 Alpha  occ. eigenvalues --  -10.29411 -10.28978 -10.28940 -10.28901 -10.28817
 Alpha  occ. eigenvalues --  -10.28637 -10.28554 -10.28512 -10.28480 -10.28226
 Alpha  occ. eigenvalues --  -10.28180 -10.28147 -10.28144 -10.28001 -10.27943
 Alpha  occ. eigenvalues --  -10.27890 -10.27796 -10.27741 -10.27618 -10.27522
 Alpha  occ. eigenvalues --  -10.27519 -10.27333 -10.27264 -10.27093 -10.27068
 Alpha  occ. eigenvalues --  -10.26991 -10.26982 -10.26864 -10.26745 -10.26697
 Alpha  occ. eigenvalues --  -10.26684 -10.26520 -10.26490 -10.26486 -10.26314
 Alpha  occ. eigenvalues --  -10.26278 -10.26223 -10.26101 -10.25869 -10.25706
 Alpha  occ. eigenvalues --  -10.25585 -10.25361 -10.25126 -10.25073 -10.24943
 Alpha  occ. eigenvalues --  -10.24844  -3.18600  -3.18267  -1.93464  -1.93141
 Alpha  occ. eigenvalues --   -1.93087  -1.92877  -1.92732  -1.92558  -1.17181
 Alpha  occ. eigenvalues --   -1.16253  -1.12860  -1.10288  -1.09176  -1.08913
 Alpha  occ. eigenvalues --   -1.08502  -1.07817  -1.04679  -1.04184  -1.03762
 Alpha  occ. eigenvalues --   -1.03105  -1.02480  -1.02446  -1.01800  -1.01683
 Alpha  occ. eigenvalues --   -0.92035  -0.91577  -0.89267  -0.89028  -0.88911
 Alpha  occ. eigenvalues --   -0.88847  -0.88330  -0.88221  -0.87335  -0.87170
 Alpha  occ. eigenvalues --   -0.87136  -0.86200  -0.86059  -0.85434  -0.84771
 Alpha  occ. eigenvalues --   -0.84120  -0.83970  -0.83622  -0.82936  -0.82710
 Alpha  occ. eigenvalues --   -0.82489  -0.81961  -0.81190  -0.80803  -0.80365
 Alpha  occ. eigenvalues --   -0.80339  -0.78248  -0.77985  -0.77437  -0.77120
 Alpha  occ. eigenvalues --   -0.77065  -0.76471  -0.76390  -0.75817  -0.75044
 Alpha  occ. eigenvalues --   -0.74615  -0.72937  -0.72292  -0.71804  -0.71431
 Alpha  occ. eigenvalues --   -0.69779  -0.69242  -0.68989  -0.68599  -0.68211
 Alpha  occ. eigenvalues --   -0.68167  -0.66869  -0.66762  -0.65657  -0.65281
 Alpha  occ. eigenvalues --   -0.64882  -0.64845  -0.64272  -0.64116  -0.64101
 Alpha  occ. eigenvalues --   -0.63975  -0.62525  -0.61669  -0.60364  -0.59989
 Alpha  occ. eigenvalues --   -0.59515  -0.59356  -0.59061  -0.58791  -0.58767
 Alpha  occ. eigenvalues --   -0.58313  -0.57962  -0.57885  -0.57349  -0.57346
 Alpha  occ. eigenvalues --   -0.56416  -0.56111  -0.55923  -0.55843  -0.55352
 Alpha  occ. eigenvalues --   -0.55128  -0.55019  -0.55010  -0.54597  -0.54548
 Alpha  occ. eigenvalues --   -0.54025  -0.53943  -0.53683  -0.53602  -0.53305
 Alpha  occ. eigenvalues --   -0.53137  -0.52733  -0.52696  -0.52578  -0.52342
 Alpha  occ. eigenvalues --   -0.52105  -0.51842  -0.51692  -0.51615  -0.51159
 Alpha  occ. eigenvalues --   -0.50894  -0.50791  -0.50767  -0.50580  -0.50259
 Alpha  occ. eigenvalues --   -0.50230  -0.49994  -0.49892  -0.49779  -0.49574
 Alpha  occ. eigenvalues --   -0.49481  -0.49301  -0.49169  -0.49026  -0.48946
 Alpha  occ. eigenvalues --   -0.48732  -0.48587  -0.48560  -0.48349  -0.48302
 Alpha  occ. eigenvalues --   -0.47870  -0.47657  -0.47376  -0.47170  -0.47103
 Alpha  occ. eigenvalues --   -0.47031  -0.46973  -0.46729  -0.46677  -0.46367
 Alpha  occ. eigenvalues --   -0.45992  -0.45893  -0.45746  -0.45681  -0.45518
 Alpha  occ. eigenvalues --   -0.45391  -0.45390  -0.45259  -0.45187  -0.44982
 Alpha  occ. eigenvalues --   -0.44595  -0.44524  -0.44433  -0.44295  -0.44051
 Alpha  occ. eigenvalues --   -0.44025  -0.43760  -0.43680  -0.43649  -0.43606
 Alpha  occ. eigenvalues --   -0.43301  -0.43212  -0.42976  -0.42962  -0.42892
 Alpha  occ. eigenvalues --   -0.42575  -0.42465  -0.42306  -0.42078  -0.42001
 Alpha  occ. eigenvalues --   -0.41789  -0.41567  -0.41488  -0.41426  -0.41375
 Alpha  occ. eigenvalues --   -0.40943  -0.40837  -0.40557  -0.40189  -0.40106
 Alpha  occ. eigenvalues --   -0.40096  -0.39876  -0.39156  -0.38932  -0.38714
 Alpha  occ. eigenvalues --   -0.38083  -0.38080  -0.37872  -0.37503  -0.37350
 Alpha  occ. eigenvalues --   -0.37207  -0.36866  -0.36834  -0.36468  -0.35873
 Alpha  occ. eigenvalues --   -0.35807  -0.35681  -0.34587  -0.34358  -0.34185
 Alpha  occ. eigenvalues --   -0.33522  -0.33426  -0.33116  -0.31754  -0.31462
 Alpha  occ. eigenvalues --   -0.30828  -0.30803  -0.30749  -0.30574  -0.30355
 Alpha  occ. eigenvalues --   -0.29793  -0.29308  -0.28998  -0.24361  -0.23788
 Alpha  occ. eigenvalues --   -0.21395  -0.21018
 Alpha virt. eigenvalues --   -0.08845  -0.08606  -0.02633  -0.01589   0.00186
 Alpha virt. eigenvalues --    0.00351   0.00957   0.01190   0.02352   0.02550
 Alpha virt. eigenvalues --    0.04545   0.04706   0.05085   0.05726   0.05987

 Mulliken charges:
               1
     1  Mg  12.004986
     2  C    6.016793
     3  C    5.967030
     4  C    5.980002
     5  C    6.025643
     6  N    7.006707
     7  C    5.969479
     8  C    6.001141
     9  C    5.984873
    10  C    6.045228
    11  C    5.998782
    12  C    6.002983
    13  C    6.008030
    14  H    0.986036
    15  N    6.986573
    16  C    6.050940
    17  C    6.015817
    18  C    6.012131
    19  C    6.043882
    20  C    5.995013
    21  C    6.011301
    22  O    8.018179
    23  C    5.995586
    24  N    7.004053
    25  C    6.028750
    26  C    5.986793
    27  C    6.015888
    28  C    5.959433
    29  C    5.997113
    30  C    6.001065
    31  C    6.002009
    32  N    7.007438
    33  C    5.951552
    34  C    5.974137
    35  C    5.996913
    36  C    5.963777
    37  C    5.996690
    38  C    5.985394
    39  O    7.966894
    40  C    5.999340
    41  C    5.993281
    42  O    7.997993
    43  O    7.998602
    44  C    6.002161
    45  H    1.005602
    46  H    1.009678
    47  H    0.990937
    48  H    1.005992
    49  H    1.006890
    50  H    1.004865
    51  H    1.011365
    52  H    0.995968
    53  H    1.005040
    54  H    0.991813
    55  H    1.000159
    56  H    1.003837
    57  H    1.019990
    58  H    1.019788
    59  H    1.017140
    60  H    1.011374
    61  H    1.012553
    62  H    1.006606
    63  H    1.002247
    64  H    0.994679
    65  H    0.996476
    66  H    1.012759
    67  H    1.001723
    68  H    1.003555
    69  H    0.986103
    70  H    1.002553
    71  H    0.994701
    72  H    0.995152
    73  H    0.982847
    74  H    0.984639
    75  H    0.988623
    76  H    0.990115
    77  H    0.998133
    78  H    0.994046
    79  H    0.995637
    80  Mg  12.000034
    81  C    6.003445
    82  C    5.998725
    83  C    5.997392
    84  C    6.000447
    85  N    7.001710
    86  C    5.995731
    87  C    6.000885
    88  C    5.998451
    89  C    6.003600
    90  C    5.999962
    91  C    6.000149
    92  C    5.999734
    93  H    1.000325
    94  N    6.998812
    95  C    6.004650
    96  C    6.002061
    97  C    6.001957
    98  C    6.003783
    99  C    5.999075
   100  C    6.001451
   101  O    8.002537
   102  C    5.999455
   103  N    6.999748
   104  C    6.003353
   105  C    5.998593
   106  C    6.000471
   107  C    5.997163
   108  C    5.999977
   109  C    6.000638
   110  C    6.000942
   111  N    7.000508
   112  C    5.996142
   113  C    5.995933
   114  C    6.000007
   115  C    5.995801
   116  C    6.000412
   117  C    5.998532
   118  O    7.996756
   119  C    5.999589
   120  C    5.999611
   121  O    7.999690
   122  O    7.999811
   123  C    6.000152
   124  H    1.001267
   125  H    1.000364
   126  H    0.998513
   127  H    1.000353
   128  H    1.000589
   129  H    1.001457
   130  H    0.999836
   131  H    1.000638
   132  H    1.000090
   133  H    1.000402
   134  H    0.999466
   135  H    0.999647
   136  H    1.002183
   137  H    1.002314
   138  H    1.002637
   139  H    1.001165
   140  H    1.001280
   141  H    1.000462
   142  H    1.000060
   143  H    1.000078
   144  H    0.999313
   145  H    1.000953
   146  H    0.999987
   147  H    0.998550
   148  H    1.000052
   149  H    0.998939
   150  H    0.998932
   151  H    1.000689
   152  H    0.997361
   153  H    0.998387
   154  H    0.997514
   155  H    0.999295
   156  H    0.999509
   157  H    0.999681
   158  H    0.999838
 Sum of Mulliken charges = 624.00000

 Dipole moment (field-independent basis, Debye):
    X=              8.8720    Y=              5.4748    Z=             -5.1198  Tot=             11.6146
 Quadrupole moment (field-independent basis, Debye-Ang):
   XX=            187.0867   YY=             -1.9624   ZZ=             -3.0112
   XY=             62.6260   XZ=            -63.1548   YZ=              2.4084

 Normal termination of Gaussian 16 at Tue Sep 21 19:30:02 2021.
