 Gaussian 16, Revision A.03,
 Gaussian 16:  ES64L-G16RevA.03 25-Dec-2016

 -----------------------------------
 #p cam-b3lyp/Def2SVP td=(nstates=5)
 -----------------------------------

 --------------------------------
 TDDFT excited states in gaussian
 --------------------------------
 Symbolic Z-matrix:
 Charge =  0 Multiplicity = 1

                         Standard orientation:
 ---------------------------------------------------------------------
 Center     Atomic      Atomic             Coordinates (Angstroms)
 Number     Number       Type             X           Y           Z
 ---------------------------------------------------------------------
      1         12           0       -4.898255   -0.256219    1.159819
      2          6           0       -4.795155    3.043754    0.020285
      3          6           0       -2.177475    0.557775    3.216320
      4          6           0       -4.501809   -3.486113    1.940583
      5          6           0       -6.796462   -1.081444   -1.589566
      6          7           0       -3.651424    1.658683    1.677491
      7          6           0       -3.824305    2.820172    0.992303
      8          6           0       -2.787718    3.909507    1.477736
      9          6           0       -1.781146    2.990548    2.337645
     10          6           0       -2.524720    1.645570    2.395514
     11          6           0       -0.483807    2.787971    1.476905
     12          6           0       -3.564738    4.915653    2.403996
     13          6           0       -2.734214    6.015097    3.120421
     14          1           0       -2.817109    6.482627    4.543059
     15          7           0       -3.673322   -1.244461    2.537618
     16          6           0       -2.625605   -0.761330    3.339220
     17          6           0       -2.101466   -1.844652    4.059366
     18          6           0       -2.875087   -2.978485    3.850130
     19          6           0       -3.740680   -2.596724    2.746509
     20          6           0       -0.997890   -1.628889    5.042504
     21          6           0       -2.774487   -4.414682    4.462015
     22          8           0       -3.535822   -5.341074    4.204906
     23          6           0       -1.827000   -4.740192    5.619879
     24          7           0       -5.468170   -2.012396    0.214318
     25          6           0       -5.302904   -3.207003    0.824925
     26          6           0       -6.098903   -4.351999    0.168617
     27          6           0       -6.722208   -3.609338   -1.045760
     28          6           0       -6.433528   -2.145452   -0.765584
     29          6           0       -5.272077   -5.655674   -0.087132
     30          6           0       -8.213757   -3.900058   -1.367558
     31          6           0       -9.209121   -3.281131   -0.480672
     32          7           0       -5.744429    0.739735   -0.422282
     33          6           0       -6.466303    0.306967   -1.429855
     34          6           0       -6.958657    1.407438   -2.264830
     35          6           0       -6.286847    2.524323   -1.672778
     36          6           0       -5.543091    2.074717   -0.599315
     37          6           0       -8.125069    1.449165   -3.137078
     38          6           0       -6.143211    3.965499   -1.782319
     39          8           0       -6.704996    4.762581   -2.498922
     40          6           0       -5.100802    4.317539   -0.714109
     41          6           0       -3.891384    5.040104   -1.316706
     42          8           0       -2.999735    4.491920   -1.910846
     43          8           0       -4.034275    6.394911   -1.134703
     44          6           0       -2.894779    7.164340   -1.685257
     45          1           0       -1.419979    0.854281    3.943663
     46          1           0       -4.564390   -4.515530    2.300248
     47          1           0       -7.485903   -1.578683   -2.274063
     48          1           0       -2.241493    4.364714    0.651192
     49          1           0       -1.524687    3.392283    3.318713
     50          1           0       -0.353432    1.809851    1.014996
     51          1           0        0.406847    2.737103    2.103684
     52          1           0       -0.354618    3.530624    0.689843
     53          1           0       -4.111205    4.322115    3.136427
     54          1           0       -4.347688    5.366468    1.793596
     55          1           0       -2.809182    6.872074    2.450397
     56          1           0       -1.740514    5.571707    3.070020
     57          1           0       -0.606011   -0.612929    5.097944
     58          1           0       -0.255770   -2.413209    4.887338
     59          1           0       -1.475864   -1.810865    6.005459
     60          1           0       -0.771711   -4.692195    5.351023
     61          1           0       -2.051962   -5.668891    6.144536
     62          1           0       -2.033092   -4.003492    6.396572
     63          1           0       -6.806500   -4.509881    0.982067
     64          1           0       -6.086903   -3.897220   -1.883386
     65          1           0       -4.477081   -5.764481    0.649855
     66          1           0       -4.815089   -5.601955   -1.075599
     67          1           0       -5.874541   -6.560613   -0.005565
     68          1           0       -8.244171   -4.984861   -1.270653
     69          1           0       -8.410301   -3.689124   -2.418915
     70          1           0       -9.397335   -2.257850   -0.805205
     71          1           0       -8.897087   -3.340749    0.561825
     72          1           0      -10.184467   -3.761108   -0.566143
     73          1           0       -8.786058    0.672709   -2.751240
     74          1           0       -8.027593    1.173802   -4.187327
     75          1           0       -8.530948    2.457370   -3.061144
     76          1           0       -5.586997    4.956991    0.023389
     77          1           0       -3.275225    8.108295   -2.075073
     78          1           0       -2.436902    6.763499   -2.589814
     79          1           0       -2.174887    7.408207   -0.904660
     80         12           0        4.067363   -0.791319   -1.481587
     81          6           0        6.764213    0.823452    0.030908
     82          6           0        2.324559    2.043158   -1.409116
     83          6           0        1.224563   -2.681503   -1.657065
     84          6           0        5.913606   -3.745571   -1.488789
     85          7           0        4.566738    1.272051   -0.911011
     86          6           0        5.702081    1.671952   -0.351310
     87          6           0        5.683201    3.238064   -0.222140
     88          6           0        4.217226    3.576662   -0.584069
     89          6           0        3.632950    2.222802   -0.975957
     90          6           0        3.343654    4.112621    0.656155
     91          6           0        6.718264    4.010730   -1.159668
     92          6           0        7.380798    5.145380   -0.456444
     93          1           0        7.391483    6.522894   -1.101100
     94          7           0        2.061389   -0.357005   -1.549623
     95          6           0        1.525815    0.903537   -1.529897
     96          6           0        0.114221    0.819076   -1.929659
     97          6           0       -0.194305   -0.568235   -1.998195
     98          6           0        1.064092   -1.260621   -1.674408
     99          6           0       -0.806823    2.071485   -2.081934
    100          6           0       -1.570178   -1.247659   -2.270518
    101          8           0       -1.741826   -2.460634   -2.316139
    102          6           0       -2.740552   -0.372302   -2.515931
    103          7           0        3.626619   -2.838955   -1.528066
    104          6           0        2.361148   -3.433290   -1.536751
    105          6           0        2.505257   -4.963452   -1.327565
    106          6           0        3.953635   -5.265713   -1.913798
    107          6           0        4.511643   -3.842387   -1.629397
    108          6           0        2.252863   -5.405495    0.129912
    109          6           0        4.046661   -5.606736   -3.373949
    110          6           0        3.975890   -4.538984   -4.424906
    111          7           0        6.004038   -1.377447   -1.067611
    112          6           0        6.618817   -2.608166   -1.072533
    113          6           0        8.014600   -2.526063   -0.636186
    114          6           0        8.111448   -1.173515   -0.075720
    115          6           0        6.839115   -0.545679   -0.371150
    116          6           0        8.951305   -3.618418   -0.539284
    117          6           0        8.960100   -0.232038    0.644505
    118          8           0       10.019970   -0.336227    1.137914
    119          6           0        8.121309    1.150003    0.667390
    120          6           0        8.056542    1.815392    2.018915
    121          8           0        7.167435    1.648603    2.848580
    122          8           0        9.116294    2.716033    2.120999
    123          6           0        9.224428    3.504511    3.361850
    124          1           0        1.674047    2.891607   -1.633050
    125          1           0        0.275071   -3.220095   -1.696984
    126          1           0        6.462398   -4.681568   -1.609033
    127          1           0        5.835195    3.567550    0.805995
    128          1           0        4.071995    4.336223   -1.352211
    129          1           0        3.417599    5.200239    0.644637
    130          1           0        3.703671    3.818943    1.641841
    131          1           0        2.307228    3.819305    0.485092
    132          1           0        6.231950    4.421714   -2.044524
    133          1           0        7.509572    3.397791   -1.591452
    134          1           0        8.429504    4.849522   -0.450219
    135          1           0        7.105926    5.334439    0.580869
    136          1           0       -1.254683    2.227184   -1.100867
    137          1           0       -1.529652    1.943444   -2.888039
    138          1           0       -0.265259    3.015280   -2.153994
    139          1           0       -2.905852    0.537443   -1.938961
    140          1           0       -3.658384   -0.948921   -2.403770
    141          1           0       -2.841886   -0.204469   -3.588536
    142          1           0        1.755952   -5.380053   -2.000071
    143          1           0        4.465729   -6.056061   -1.365262
    144          1           0        3.036185   -5.997333    0.603486
    145          1           0        1.258210   -5.820311    0.294830
    146          1           0        2.191156   -4.529955    0.775986
    147          1           0        3.298427   -6.321082   -3.715264
    148          1           0        4.997048   -6.116542   -3.532604
    149          1           0        5.029371   -4.335562   -4.616161
    150          1           0        3.524505   -3.595668   -4.116707
    151          1           0        3.476489   -4.937468   -5.308623
    152          1           0        9.922880   -3.197502   -0.798707
    153          1           0        8.666770   -4.351626   -1.293560
    154          1           0        8.972675   -4.007051    0.478377
    155          1           0        8.632193    1.840504   -0.003673
    156          1           0        9.202084    2.795631    4.189992
    157          1           0        8.366369    4.166232    3.477047
    158          1           0       10.083694    4.158491    3.511339
 ---------------------------------------------------------------------

 SCF Done:  E(RCAM-B3LYP) =  -4069.83758715     A.U. after   17 cycles

 Excitation energies and oscillator strengths:

 Excited State   1:      Singlet-A      1.6716 eV  741.70 nm  f=0.3392  <S**2>=0.000
     310 -> 316        0.17314
     312 -> 314        0.67908
     310 <- 316        0.10724
 This state for optimization and/or second-order correction.
 Total Energy, E(TD-HF/TD-DFT) =  -4069.77615654
 Copying the excited state density for this state as the 1-particle RhoCI density.

 Excited State   2:      Singlet-A      1.7491 eV  708.85 nm  f=0.4222  <S**2>=0.000
     309 -> 315       -0.18228
     311 -> 313        0.67671
     309 <- 315       -0.10514

 Excited State   3:      Singlet-A      2.2405 eV  553.38 nm  f=0.0006  <S**2>=0.000
     309 -> 313       -0.12613
     312 -> 313        0.68377

 Excited State   4:      Singlet-A      2.2508 eV  550.85 nm  f=0.0058  <S**2>=0.000
     309 -> 313        0.50789
     310 -> 314        0.36336
     311 -> 315        0.20823
     312 -> 313        0.16922
     312 -> 316       -0.17290

 Excited State   5:      Singlet-A      2.2662 eV  547.10 nm  f=0.1776  <S**2>=0.000
     309 -> 313       -0.37869
     310 -> 314        0.50607
     311 -> 315       -0.16714
     312 -> 316       -0.25360

 The electronic state is 1-A.
 Alpha  occ. eigenvalues --  -46.88861 -46.87738 -19.26436 -19.25028 -19.21291
 Alpha  occ. eigenvalues --  -19.20104 -19.19541 -19.19496 -19.19117 -19.18648
 Alpha  occ. eigenvalues --  -14.42461 -14.42063 -14.41229 -14.41159 -14.39366
 Alpha  occ. eigenvalues --  -14.39261 -14.39107 -14.38987 -10.40511 -10.39684
 Alpha  occ. eigenvalues --  -10.36224 -10.35385 -10.35036 -10.34815 -10.32384
 Alpha  occ. eigenvalues --  -10.31847 -10.31349 -10.31140 -10.30803 -10.30734
 Alpha  occ. eigenvalues --  -10.30507 -10.30475 -10.30368 -10.30046 -10.29870
 Alpha  occ. eigenvalues --  -10.29856 -10.29758 -10.29677 -10.29508 -10.29259
 Alpha  occ. eigenvalues --  -10.29170 -10.28960 -10.28945 -10.28906 -10.28538
 Alpha  occ. eigenvalues --  -10.28412 -10.28368 -10.28310 -10.28288 -10.28283
 Alpha  occ. eigenvalues --  -10.28228 -10.28073 -10.27954 -10.27883 -10.27857
 Alpha  occ. eigenvalues --  -10.27573 -10.27566 -10.27559 -10.27427 -10.27413
 Alpha  occ. eigenvalues --  -10.27399 -10.27248 -10.27237 -10.27008 -10.26834
 Alpha  occ. eigenvalues --  -10.26660 -10.26537 -10.26351 -10.26148 -10.26124
 Alpha  occ. eigenvalues --  -10.26090 -10.26076 -10.26024 -10.25932 -10.25909
 Alpha  occ. eigenvalues --  -10.25846 -10.25743 -10.25519 -10.25456 -10.25440
 Alpha  occ. eigenvalues --  -10.25373 -10.25170 -10.25124 -10.24648 -10.24516
 Alpha  occ. eigenvalues --  -10.24409  -3.17426  -3.16442  -1.92314  -1.91894
 Alpha  occ. eigenvalues --   -1.91713  -1.91347  -1.90874  -1.90768  -1.17550
 Alpha  occ. eigenvalues --   -1.15158  -1.12813  -1.10598  -1.10453  -1.09598
 Alpha  occ. eigenvalues --   -1.09519  -1.07459  -1.05185  -1.05047  -1.04011
 Alpha  occ. eigenvalues --   -1.03437  -1.03393  -1.02643  -1.02562  -1.01938
 Alpha  occ. eigenvalues --   -0.94123  -0.91722  -0.89432  -0.88882  -0.88630
 Alpha  occ. eigenvalues --   -0.88585  -0.88546  -0.87845  -0.87650  -0.87296
 Alpha  occ. eigenvalues --   -0.86966  -0.86738  -0.86374  -0.85692  -0.84258
 Alpha  occ. eigenvalues --   -0.84064  -0.83787  -0.83477  -0.82642  -0.82460
 Alpha  occ. eigenvalues --   -0.81682  -0.81194  -0.81102  -0.80699  -0.80605
 Alpha  occ. eigenvalues --   -0.80102  -0.78612  -0.77774  -0.77718  -0.77059
 Alpha  occ. eigenvalues --   -0.76798  -0.76462  -0.76282  -0.75808  -0.74995
 Alpha  occ. eigenvalues --   -0.74674  -0.72648  -0.72029  -0.71917  -0.71334
 Alpha  occ. eigenvalues --   -0.70108  -0.69399  -0.69071  -0.68583  -0.68291
 Alpha  occ. eigenvalues --   -0.67667  -0.67155  -0.66446  -0.65646  -0.65515
 Alpha  occ. eigenvalues --   -0.65052  -0.64616  -0.64425  -0.64111  -0.64105
 Alpha  occ. eigenvalues --   -0.63933  -0.62874  -0.61708  -0.60190  -0.59722
 Alpha  occ. eigenvalues --   -0.59662  -0.59578  -0.59465  -0.59110  -0.58667
 Alpha  occ. eigenvalues --   -0.58484  -0.57948  -0.57586  -0.57447  -0.57050
 Alpha  occ. eigenvalues --   -0.56733  -0.56039  -0.55724  -0.55563  -0.55378
 Alpha  occ. eigenvalues --   -0.55274  -0.55134  -0.54948  -0.54708  -0.54299
 Alpha  occ. eigenvalues --   -0.54059  -0.53526  -0.53444  -0.53305  -0.53292
 Alpha  occ. eigenvalues --   -0.52825  -0.52738  -0.52594  -0.52279  -0.52195
 Alpha  occ. eigenvalues --   -0.51812  -0.51545  -0.51504  -0.51417  -0.51269
 Alpha  occ. eigenvalues --   -0.51103  -0.51024  -0.50775  -0.50354  -0.50173
 Alpha  occ. eigenvalues --   -0.50114  -0.49853  -0.49709  -0.49587  -0.49500
 Alpha  occ. eigenvalues --   -0.49346  -0.49320  -0.49253  -0.49141  -0.49028
 Alpha  occ. eigenvalues --   -0.48930  -0.48486  -0.48205  -0.48138  -0.48031
 Alpha  occ. eigenvalues --   -0.47845  -0.47749  -0.47543  -0.47233  -0.46867
 Alpha  occ. eigenvalues --   -0.46698  -0.46620  -0.46376  -0.46342  -0.46157
 Alpha  occ. eigenvalues --   -0.46014  -0.45926  -0.45684  -0.45592  -0.45458
 Alpha  occ. eigenvalues --   -0.45354  -0.45239  -0.45158  -0.45109  -0.44872
 Alpha  occ. eigenvalues --   -0.44798  -0.44615  -0.44420  -0.44396  -0.44285
 Alpha  occ. eigenvalues --   -0.44223  -0.43994  -0.43930  -0.43802  -0.43499
 Alpha  occ. eigenvalues --   -0.43442  -0.43372  -0.43215  -0.43149  -0.43000
 Alpha  occ. eigenvalues --   -0.42896  -0.42524  -0.42459  -0.42394  -0.42023
 Alpha  occ. eigenvalues --   -0.41904  -0.41833  -0.41642  -0.41524  -0.41351
 Alpha  occ. eigenvalues --   -0.41026  -0.40818  -0.40520  -0.40474  -0.40329
 Alpha  occ. eigenvalues --   -0.40138  -0.39608  -0.38982  -0.38843  -0.38756
 Alpha  occ. eigenvalues --   -0.38587  -0.38196  -0.37959  -0.37936  -0.37837
 Alpha  occ. eigenvalues --   -0.37442  -0.36948  -0.36891  -0.36594  -0.36521
 Alpha  occ. eigenvalues --   -0.36386  -0.35812  -0.35580  -0.34445  -0.34418
 Alpha  occ. eigenvalues --   -0.34113  -0.33353  -0.32623  -0.31557  -0.31208
 Alpha  occ. eigenvalues --   -0.31077  -0.31054  -0.30886  -0.30752  -0.30177
 Alpha  occ. eigenvalues --   -0.29671  -0.29412  -0.29349  -0.23943  -0.23817
 Alpha  occ. eigenvalues --   -0.21263  -0.20573
 Alpha virt. eigenvalues --   -0.08529  -0.08240  -0.01489  -0.01222   0.00248
 Alpha virt. eigenvalues --    0.00731   0.01768   0.02402   0.02666   0.02984
 Alpha virt. eigenvalues --    0.04537   0.04591   0.05222   0.05632   0.06046

 Mulliken charges:
               1
     1  Mg   0.828885
     2  C   -0.000396
     3  C   -0.059422
     4  C   -0.098357
     5  C   -0.060065
     6  N   -0.219049
     7  C   -0.099457
     8  C   -0.044624
     9  C   -0.057158
    10  C    0.012706
    11  C    0.025764
    12  C    0.026178
    13  C   -0.041103
    14  H    0.043600
    15  N   -0.392984
    16  C    0.156483
    17  C   -0.140093
    18  C   -0.041609
    19  C    0.129698
    20  C    0.119319
    21  C    0.040809
    22  O   -0.202613
    23  C    0.039299
    24  N   -0.334586
    25  C    0.057846
    26  C   -0.062743
    27  C    0.019215
    28  C   -0.036410
    29  C    0.081797
    30  C    0.030729
    31  C    0.039531
    32  N   -0.318533
    33  C    0.139876
    34  C   -0.157053
    35  C   -0.026749
    36  C    0.117226
    37  C    0.118406
    38  C    0.034731
    39  O   -0.148868
    40  C   -0.005053
    41  C    0.207612
    42  O   -0.200705
    43  O   -0.327476
    44  C    0.162700
    45  H   -0.036800
    46  H   -0.000083
    47  H   -0.043134
    48  H    0.020703
    49  H    0.023718
    50  H    0.039244
    51  H    0.014378
    52  H    0.031009
    53  H    0.012665
    54  H    0.007984
    55  H    0.026431
    56  H    0.016343
    57  H    0.022674
    58  H    0.028814
    59  H    0.028401
    60  H    0.037899
    61  H    0.028554
    62  H    0.021349
    63  H    0.013815
    64  H    0.020258
    65  H    0.028273
    66  H    0.018410
    67  H    0.015730
    68  H   -0.003178
    69  H    0.009735
    70  H    0.011106
    71  H    0.012433
    72  H    0.011160
    73  H    0.010204
    74  H    0.017239
    75  H    0.040392
    76  H    0.050187
    77  H    0.034275
    78  H    0.051018
    79  H    0.039362
    80  Mg   0.842355
    81  C    0.026965
    82  C   -0.080038
    83  C   -0.076213
    84  C   -0.103856
    85  N   -0.242761
    86  C   -0.034068
    87  C    0.001114
    88  C   -0.075493
    89  C    0.081176
    90  C    0.037784
    91  C    0.070413
    92  C   -0.093009
    93  H    0.008949
    94  N   -0.370754
    95  C    0.087891
    96  C   -0.145843
    97  C   -0.062796
    98  C    0.102277
    99  C    0.114536
   100  C    0.038125
   101  O   -0.204560
   102  C    0.024346
   103  N   -0.294171
   104  C    0.034568
   105  C    0.002232
   106  C   -0.009974
   107  C    0.024540
   108  C    0.093460
   109  C    0.017892
   110  C    0.022242
   111  N   -0.362599
   112  C    0.152882
   113  C   -0.163787
   114  C   -0.040652
   115  C    0.087662
   116  C    0.123218
   117  C    0.055399
   118  O   -0.103786
   119  C   -0.071380
   120  C    0.218756
   121  O   -0.221993
   122  O   -0.351807
   123  C    0.187552
   124  H   -0.035183
   125  H   -0.006201
   126  H   -0.035703
   127  H    0.018862
   128  H    0.017419
   129  H    0.006422
   130  H    0.027048
   131  H    0.015133
   132  H    0.013918
   133  H    0.013300
   134  H    0.031584
   135  H    0.029210
   136  H    0.024015
   137  H    0.047998
   138  H    0.007953
   139  H    0.063495
   140  H    0.024788
   141  H    0.037226
   142  H   -0.003873
   143  H   -0.004862
   144  H    0.016334
   145  H    0.022252
   146  H    0.007871
   147  H    0.000545
   148  H   -0.002461
   149  H    0.005322
   150  H    0.032424
   151  H    0.015863
   152  H    0.032583
   153  H    0.014912
   154  H    0.049643
   155  H    0.046378
   156  H    0.036038
   157  H    0.022261
   158  H    0.042830
 Sum of Mulliken charges =  -0.00000

 Dipole moment (field-independent basis, Debye):
    X=             -0.3217    Y=              1.1306    Z=              1.4351  Tot=              1.8550
 Quadrupole moment (field-independent basis, Debye-Ang):
   XX=           -547.2554   YY=           -486.5974   ZZ=           -502.5031
   XY=             23.4203   XZ=            -16.5666   YZ=             21.0377

 Normal termination of Gaussian 16 at Tue Sep 14 19:52:23 2021.
