 Gaussian 16, Revision A.03,
 Gaussian 16:  ES64L-G16RevA.03 25-Dec-2016

 -----------------------------------
 #p cam-b3lyp/Def2SVP td=(nstates=5)
 -----------------------------------

 --------------------------------
 TDDFT excited states in gaussian
 --------------------------------
 Symbolic Z-matrix:
 Charge =  0 Multiplicity = 1

                         Standard orientation:
 ---------------------------------------------------------------------
 Center     Atomic      Atomic             Coordinates (Angstroms)
 Number     Number       Type             X           Y           Z
 ---------------------------------------------------------------------
      1         12           0       27.878522   -0.767583    0.157004
      2          6           0       26.233924    2.150446    1.163654
      3          6           0       30.060005    1.296747   -1.580139
      4          6           0       29.152432   -3.468346   -1.129191
      5          6           0       25.379420   -2.638467    1.829716
      6          7           0       27.882146    1.497778   -0.505555
      7          6           0       27.222870    2.447063    0.166484
      8          6           0       27.724615    3.770360   -0.306580
      9          6           0       28.644040    3.445978   -1.509494
     10          6           0       28.926064    1.991085   -1.190817
     11          6           0       28.138328    3.665777   -2.936346
     12          6           0       28.488227    4.540543    0.817063
     13          6           0       28.121706    6.034040    1.095830
     14          1           0       27.594048    6.919485   -0.075906
     15          7           0       29.527303   -1.056964   -1.084582
     16          6           0       30.382258   -0.053711   -1.521270
     17          6           0       31.446949   -0.701963   -2.215375
     18          6           0       31.148400   -2.123366   -2.220509
     19          6           0       29.919610   -2.297622   -1.460511
     20          6           0       32.601729    0.030894   -2.932664
     21          6           0       31.889595   -3.294533   -2.927276
     22          8           0       31.546995   -4.433428   -2.883037
     23          6           0       33.165805   -2.927112   -3.658492
     24          7           0       27.324166   -2.742601    0.358786
     25          6           0       27.988162   -3.688012   -0.343131
     26          6           0       27.457995   -5.130542   -0.115963
     27          6           0       26.416297   -4.856418    1.052216
     28          6           0       26.361865   -3.335424    1.132569
     29          6           0       26.839718   -5.742943   -1.501362
     30          6           0       26.737231   -5.623661    2.373255
     31          6           0       27.464863   -4.870806    3.472668
     32          7           0       26.141170   -0.398534    1.328689
     33          6           0       25.299593   -1.244034    1.999832
     34          6           0       24.291658   -0.408632    2.742459
     35          6           0       24.641536    0.924378    2.429602
     36          6           0       25.755408    0.906615    1.526284
     37          6           0       23.070645   -0.880574    3.484209
     38          6           0       24.293660    2.326738    2.645080
     39          8           0       23.369084    2.784135    3.322961
     40          6           0       25.400619    3.133370    1.972740
     41          6           0       24.700424    4.147324    1.114082
     42          8           0       24.194209    3.919345    0.030669
     43          8           0       24.591881    5.235756    1.858102
     44          6           0       23.614725    6.240420    1.469068
     45          1           0       30.658421    1.927124   -2.240473
     46          1           0       29.670026   -4.390446   -1.400590
     47          1           0       24.618025   -3.216860    2.357746
     48          1           0       26.871158    4.378912   -0.603849
     49          1           0       29.499319    4.116039   -1.421251
     50          1           0       27.140932    4.094311   -3.036237
     51          1           0       28.151129    2.726237   -3.489502
     52          1           0       28.850331    4.344598   -3.405243
     53          1           0       29.572304    4.459147    0.740795
     54          1           0       28.199154    3.926923    1.670185
     55          1           0       29.059859    6.460058    1.453701
     56          1           0       27.381319    6.065677    1.894752
     57          1           0       32.720339   -0.267645   -3.974298
     58          1           0       33.576407   -0.227353   -2.518355
     59          1           0       32.538121    1.119224   -2.896021
     60          1           0       33.856332   -2.352028   -3.041256
     61          1           0       32.888777   -2.408315   -4.576295
     62          1           0       33.640584   -3.820711   -4.063623
     63          1           0       28.237881   -5.815176    0.216985
     64          1           0       25.415023   -5.222503    0.825649
     65          1           0       25.762767   -5.753369   -1.332987
     66          1           0       27.077925   -6.795606   -1.655470
     67          1           0       26.993907   -5.109724   -2.375798
     68          1           0       27.454943   -6.383038    2.062560
     69          1           0       25.863807   -6.127573    2.786640
     70          1           0       28.244752   -4.322367    2.942974
     71          1           0       27.838624   -5.694853    4.079958
     72          1           0       26.959548   -4.095808    4.048408
     73          1           0       22.813972   -1.939397    3.449486
     74          1           0       22.194987   -0.356781    3.100587
     75          1           0       23.203251   -0.518865    4.503370
     76          1           0       25.974680    3.770916    2.645405
     77          1           0       22.929269    6.045794    0.644841
     78          1           0       24.245029    7.058144    1.118226
     79          1           0       23.286050    6.759436    2.369539
     80         12           0      -28.008869   -0.470089   -0.125310
     81          6           0      -26.257968    2.173511   -1.545237
     82          6           0      -28.841090    1.621806    2.464000
     83          6           0      -29.531144   -3.149903    1.429096
     84          6           0      -26.672944   -2.675963   -2.470518
     85          7           0      -27.664751    1.675361    0.326179
     86          6           0      -27.029418    2.590408   -0.425666
     87          6           0      -27.150310    4.046004    0.082522
     88          6           0      -27.790501    3.811787    1.517501
     89          6           0      -28.103035    2.239267    1.489497
     90          6           0      -26.767307    4.272264    2.616139
     91          6           0      -28.101531    4.832619   -0.957990
     92          6           0      -27.531212    6.148805   -1.563785
     93          1           0      -26.369473    6.790276   -0.721989
     94          7           0      -28.983792   -0.793914    1.708078
     95          6           0      -29.298250    0.248613    2.604154
     96          6           0      -30.208774   -0.260756    3.607356
     97          6           0      -30.380647   -1.629405    3.364501
     98          6           0      -29.674864   -1.919661    2.061737
     99          6           0      -30.559900    0.562580    4.854755
    100          6           0      -31.172155   -2.659162    4.213623
    101          8           0      -31.295043   -3.868305    3.942554
    102          6           0      -31.932784   -2.148703    5.449548
    103          7           0      -27.994660   -2.613957   -0.469710
    104          6           0      -28.789613   -3.489702    0.330756
    105          6           0      -28.523680   -4.959497   -0.056284
    106          6           0      -27.831032   -4.763426   -1.484841
    107          6           0      -27.513852   -3.245056   -1.503754
    108          6           0      -27.714996   -5.634070    1.039487
    109          6           0      -28.819608   -5.140918   -2.667325
    110          6           0      -30.267594   -4.572032   -2.852511
    111          7           0      -26.686564   -0.350994   -1.630771
    112          6           0      -26.203827   -1.323796   -2.511537
    113          6           0      -25.312044   -0.709166   -3.440564
    114          6           0      -25.329509    0.641450   -3.142574
    115          6           0      -26.096648    0.821463   -1.965104
    116          6           0      -24.469686   -1.392455   -4.498352
    117          6           0      -24.821817    1.894781   -3.538856
    118          8           0      -24.015286    2.108950   -4.386869
    119          6           0      -25.316602    2.921378   -2.437613
    120          6           0      -24.081546    3.376588   -1.710558
    121          8           0      -23.780055    3.014440   -0.592503
    122          8           0      -23.408546    4.189033   -2.533978
    123          6           0      -22.022270    4.339991   -2.165093
    124          1           0      -29.179426    2.298424    3.251205
    125          1           0      -29.805834   -4.006335    2.047314
    126          1           0      -26.236729   -3.356096   -3.205798
    127          1           0      -26.212315    4.598622    0.132631
    128          1           0      -28.742072    4.317541    1.682898
    129          1           0      -26.669717    3.599387    3.468416
    130          1           0      -27.235715    5.217511    2.888904
    131          1           0      -25.837966    4.508716    2.098500
    132          1           0      -29.071904    4.952096   -0.476571
    133          1           0      -28.295498    4.144619   -1.781236
    134          1           0      -28.422944    6.774672   -1.569225
    135          1           0      -27.166798    6.064841   -2.587200
    136          1           0      -30.281045   -0.037762    5.721110
    137          1           0      -31.642018    0.688281    4.910669
    138          1           0      -30.045711    1.522627    4.822174
    139          1           0      -31.182690   -1.922326    6.208446
    140          1           0      -32.481782   -3.009916    5.829989
    141          1           0      -32.682057   -1.420055    5.141065
    142          1           0      -29.514332   -5.380147   -0.231248
    143          1           0      -27.002895   -5.462955   -1.592744
    144          1           0      -27.890209   -5.205762    2.026514
    145          1           0      -26.648443   -5.564378    0.826914
    146          1           0      -28.006203   -6.678721    1.147104
    147          1           0      -28.879531   -6.228439   -2.710996
    148          1           0      -28.303061   -4.741023   -3.539923
    149          1           0      -30.957247   -5.209627   -2.299199
    150          1           0      -30.465107   -4.632654   -3.923392
    151          1           0      -30.399002   -3.511520   -2.635329
    152          1           0      -25.077073   -1.936164   -5.222153
    153          1           0      -23.865830   -2.099652   -3.930095
    154          1           0      -23.927518   -0.728373   -5.172976
    155          1           0      -25.812243    3.831157   -2.776827
    156          1           0      -21.356051    4.511972   -3.010152
    157          1           0      -21.538113    3.658193   -1.466061
    158          1           0      -21.828627    5.227271   -1.561929
 ---------------------------------------------------------------------

 SCF Done:  E(RCAM-B3LYP) =  -4069.81189665     A.U. after   17 cycles

 Excitation energies and oscillator strengths:

 Excited State   1:      Singlet-A      1.7043 eV  727.49 nm  f=0.3923  <S**2>=0.000
     310 -> 316        0.17575
     312 -> 313        0.68646
     310 <- 316        0.10653
 This state for optimization and/or second-order correction.
 Total Energy, E(TD-HF/TD-DFT) =  -4069.74926563
 Copying the excited state density for this state as the 1-particle RhoCI density.

 Excited State   2:      Singlet-A      1.7293 eV  716.97 nm  f=0.3949  <S**2>=0.000
     309 -> 315        0.18711
     311 -> 314        0.68375
     309 <- 315        0.10973

 Excited State   3:      Singlet-A      2.2139 eV  560.03 nm  f=0.0996  <S**2>=0.000
     309 -> 314        0.64246
     311 -> 315       -0.28230

 Excited State   4:      Singlet-A      2.2267 eV  556.81 nm  f=0.1279  <S**2>=0.000
     310 -> 313        0.64629
     312 -> 316       -0.27557

 Excited State   5:      Singlet-A      3.2260 eV  384.32 nm  f=0.0000  <S**2>=0.000
     312 -> 314        0.70710

 The electronic state is 1-A.
 Alpha  occ. eigenvalues --  -46.88793 -46.88062 -19.26260 -19.26137 -19.20050
 Alpha  occ. eigenvalues --  -19.19645 -19.19415 -19.19344 -19.18624 -19.18597
 Alpha  occ. eigenvalues --  -14.42227 -14.41784 -14.41598 -14.41418 -14.39539
 Alpha  occ. eigenvalues --  -14.39316 -14.39042 -14.38739 -10.39308 -10.39154
 Alpha  occ. eigenvalues --  -10.35466 -10.35106 -10.34812 -10.34497 -10.32057
 Alpha  occ. eigenvalues --  -10.31583 -10.31337 -10.31266 -10.31072 -10.30790
 Alpha  occ. eigenvalues --  -10.30650 -10.30641 -10.30332 -10.30140 -10.29884
 Alpha  occ. eigenvalues --  -10.29812 -10.29739 -10.29645 -10.29620 -10.29562
 Alpha  occ. eigenvalues --  -10.29484 -10.29384 -10.29258 -10.28978 -10.28867
 Alpha  occ. eigenvalues --  -10.28503 -10.28382 -10.28376 -10.28282 -10.28208
 Alpha  occ. eigenvalues --  -10.28126 -10.28122 -10.28053 -10.27838 -10.27649
 Alpha  occ. eigenvalues --  -10.27645 -10.27578 -10.27563 -10.27148 -10.27124
 Alpha  occ. eigenvalues --  -10.27050 -10.27013 -10.26993 -10.26716 -10.26698
 Alpha  occ. eigenvalues --  -10.26695 -10.26689 -10.26670 -10.26606 -10.26513
 Alpha  occ. eigenvalues --  -10.26490 -10.26342 -10.26306 -10.26237 -10.25947
 Alpha  occ. eigenvalues --  -10.25906 -10.25799 -10.25796 -10.25772 -10.25593
 Alpha  occ. eigenvalues --  -10.25387 -10.25243 -10.25210 -10.25187 -10.25077
 Alpha  occ. eigenvalues --  -10.24665  -3.17249  -3.16664  -1.92157  -1.91740
 Alpha  occ. eigenvalues --   -1.91565  -1.91510  -1.91098  -1.90986  -1.18337
 Alpha  occ. eigenvalues --   -1.18142  -1.11999  -1.11367  -1.09613  -1.09066
 Alpha  occ. eigenvalues --   -1.08673  -1.08317  -1.05019  -1.04138  -1.03777
 Alpha  occ. eigenvalues --   -1.03302  -1.02693  -1.02603  -1.01864  -1.01146
 Alpha  occ. eigenvalues --   -0.93355  -0.92782  -0.88721  -0.88618  -0.88518
 Alpha  occ. eigenvalues --   -0.88115  -0.88025  -0.87738  -0.87099  -0.87061
 Alpha  occ. eigenvalues --   -0.86482  -0.86238  -0.86000  -0.85536  -0.84445
 Alpha  occ. eigenvalues --   -0.83915  -0.83730  -0.83383  -0.82620  -0.82269
 Alpha  occ. eigenvalues --   -0.81414  -0.81182  -0.80892  -0.80787  -0.80026
 Alpha  occ. eigenvalues --   -0.79919  -0.77911  -0.77697  -0.77343  -0.77093
 Alpha  occ. eigenvalues --   -0.77009  -0.76718  -0.76311  -0.75842  -0.75118
 Alpha  occ. eigenvalues --   -0.74941  -0.72942  -0.72679  -0.71711  -0.71166
 Alpha  occ. eigenvalues --   -0.69529  -0.68895  -0.68874  -0.68629  -0.68045
 Alpha  occ. eigenvalues --   -0.67955  -0.66352  -0.66103  -0.65836  -0.65269
 Alpha  occ. eigenvalues --   -0.64969  -0.64651  -0.64532  -0.64462  -0.64341
 Alpha  occ. eigenvalues --   -0.63922  -0.62810  -0.62368  -0.59982  -0.59853
 Alpha  occ. eigenvalues --   -0.59659  -0.59385  -0.59207  -0.58943  -0.58464
 Alpha  occ. eigenvalues --   -0.58402  -0.58103  -0.57983  -0.57311  -0.57237
 Alpha  occ. eigenvalues --   -0.56868  -0.56248  -0.56007  -0.55664  -0.54962
 Alpha  occ. eigenvalues --   -0.54886  -0.54794  -0.54678  -0.54369  -0.53952
 Alpha  occ. eigenvalues --   -0.53595  -0.53351  -0.53259  -0.53107  -0.52940
 Alpha  occ. eigenvalues --   -0.52572  -0.52523  -0.52192  -0.52027  -0.51976
 Alpha  occ. eigenvalues --   -0.51839  -0.51719  -0.51701  -0.51344  -0.51239
 Alpha  occ. eigenvalues --   -0.51045  -0.50938  -0.50599  -0.50133  -0.49888
 Alpha  occ. eigenvalues --   -0.49796  -0.49682  -0.49493  -0.49405  -0.49200
 Alpha  occ. eigenvalues --   -0.49149  -0.48846  -0.48826  -0.48671  -0.48578
 Alpha  occ. eigenvalues --   -0.48371  -0.48314  -0.48117  -0.47965  -0.47930
 Alpha  occ. eigenvalues --   -0.47721  -0.47461  -0.47303  -0.47114  -0.46896
 Alpha  occ. eigenvalues --   -0.46638  -0.46407  -0.46250  -0.46154  -0.46018
 Alpha  occ. eigenvalues --   -0.45902  -0.45866  -0.45708  -0.45657  -0.45592
 Alpha  occ. eigenvalues --   -0.45557  -0.45356  -0.45166  -0.45005  -0.44918
 Alpha  occ. eigenvalues --   -0.44824  -0.44616  -0.44532  -0.44453  -0.44306
 Alpha  occ. eigenvalues --   -0.43754  -0.43737  -0.43586  -0.43394  -0.43331
 Alpha  occ. eigenvalues --   -0.43257  -0.43064  -0.43036  -0.42996  -0.42946
 Alpha  occ. eigenvalues --   -0.42714  -0.42636  -0.42363  -0.42166  -0.41908
 Alpha  occ. eigenvalues --   -0.41754  -0.41732  -0.41651  -0.41300  -0.41203
 Alpha  occ. eigenvalues --   -0.41002  -0.40789  -0.40724  -0.40658  -0.40278
 Alpha  occ. eigenvalues --   -0.40260  -0.39619  -0.39544  -0.39292  -0.39131
 Alpha  occ. eigenvalues --   -0.38392  -0.37662  -0.37442  -0.37156  -0.37106
 Alpha  occ. eigenvalues --   -0.37076  -0.37045  -0.36718  -0.36446  -0.36394
 Alpha  occ. eigenvalues --   -0.36216  -0.36098  -0.34785  -0.34398  -0.34077
 Alpha  occ. eigenvalues --   -0.34060  -0.33151  -0.32648  -0.31628  -0.31406
 Alpha  occ. eigenvalues --   -0.30943  -0.30778  -0.30427  -0.30379  -0.30251
 Alpha  occ. eigenvalues --   -0.29920  -0.29568  -0.28950  -0.23789  -0.23749
 Alpha  occ. eigenvalues --   -0.21070  -0.20958
 Alpha virt. eigenvalues --   -0.08532  -0.08483  -0.01515  -0.01323   0.00197
 Alpha virt. eigenvalues --    0.00578   0.02499   0.02579   0.02822   0.02879
 Alpha virt. eigenvalues --    0.04550   0.05069   0.05608   0.05899   0.06145

 Mulliken charges:
               1
     1  Mg   0.807172
     2  C    0.010133
     3  C   -0.042629
     4  C   -0.040188
     5  C   -0.078419
     6  N   -0.217015
     7  C   -0.014037
     8  C   -0.051668
     9  C   -0.035684
    10  C   -0.041049
    11  C    0.091911
    12  C    0.029472
    13  C   -0.055141
    14  H    0.020726
    15  N   -0.403169
    16  C    0.176111
    17  C   -0.142582
    18  C   -0.065083
    19  C    0.100903
    20  C    0.112267
    21  C    0.006141
    22  O   -0.163602
    23  C    0.038895
    24  N   -0.314207
    25  C    0.051133
    26  C   -0.056849
    27  C   -0.004272
    28  C    0.059392
    29  C    0.060122
    30  C    0.013055
    31  C    0.020701
    32  N   -0.344788
    33  C    0.108674
    34  C   -0.166504
    35  C    0.012385
    36  C    0.108739
    37  C    0.113983
    38  C    0.067809
    39  O   -0.178340
    40  C   -0.028062
    41  C    0.157573
    42  O   -0.218710
    43  O   -0.295398
    44  C    0.187438
    45  H   -0.031087
    46  H   -0.001829
    47  H   -0.034048
    48  H    0.016164
    49  H   -0.005341
    50  H    0.024654
    51  H    0.019631
    52  H    0.007997
    53  H    0.014571
    54  H    0.002811
    55  H    0.029680
    56  H    0.038923
    57  H    0.016323
    58  H    0.018566
    59  H    0.011109
    60  H    0.037284
    61  H    0.030748
    62  H    0.013031
    63  H    0.024812
    64  H    0.004423
    65  H   -0.001473
    66  H    0.023659
    67  H    0.037597
    68  H   -0.001788
    69  H    0.004090
    70  H    0.009616
    71  H    0.020962
    72  H    0.019956
    73  H    0.016249
    74  H    0.039030
    75  H    0.036326
    76  H    0.044860
    77  H    0.067419
    78  H    0.009509
    79  H    0.038230
    80  Mg   0.826319
    81  C   -0.012281
    82  C   -0.055187
    83  C   -0.055296
    84  C   -0.101731
    85  N   -0.262867
    86  C   -0.021596
    87  C   -0.037401
    88  C   -0.073748
    89  C    0.047837
    90  C    0.074589
    91  C    0.036456
    92  C   -0.072625
    93  H    0.021624
    94  N   -0.381520
    95  C    0.116823
    96  C   -0.159366
    97  C   -0.046572
    98  C    0.112340
    99  C    0.135764
   100  C    0.005268
   101  O   -0.221316
   102  C    0.048242
   103  N   -0.269120
   104  C    0.003991
   105  C   -0.013060
   106  C   -0.018938
   107  C    0.072184
   108  C    0.091487
   109  C   -0.014710
   110  C    0.000582
   111  N   -0.397785
   112  C    0.133578
   113  C   -0.171127
   114  C    0.038088
   115  C    0.109020
   116  C    0.123569
   117  C    0.021062
   118  O   -0.126729
   119  C   -0.026003
   120  C    0.175997
   121  O   -0.208513
   122  O   -0.277522
   123  C    0.182020
   124  H   -0.037518
   125  H    0.007424
   126  H   -0.023664
   127  H    0.021965
   128  H    0.013739
   129  H    0.030044
   130  H    0.010712
   131  H    0.027829
   132  H    0.008553
   133  H    0.018906
   134  H    0.034138
   135  H    0.048647
   136  H    0.023679
   137  H    0.016877
   138  H    0.018133
   139  H    0.040361
   140  H    0.017702
   141  H    0.042656
   142  H    0.008193
   143  H    0.001966
   144  H    0.024899
   145  H    0.013013
   146  H    0.014145
   147  H    0.012833
   148  H   -0.002235
   149  H    0.027128
   150  H    0.014285
   151  H    0.022607
   152  H    0.015009
   153  H    0.034292
   154  H    0.032748
   155  H    0.026016
   156  H    0.038663
   157  H    0.037269
   158  H    0.007161
 Sum of Mulliken charges =  -0.00000

 Dipole moment (field-independent basis, Debye):
    X=              0.7260    Y=              3.6739    Z=              0.6937  Tot=              3.8086
 Quadrupole moment (field-independent basis, Debye-Ang):
   XX=           -341.4907   YY=           -475.6426   ZZ=           -515.9690
   XY=             -3.9695   XZ=             28.5561   YZ=              6.2017

 Normal termination of Gaussian 16 at Thu Sep 16 14:54:01 2021.
