 Gaussian 16, Revision A.03,
 Gaussian 16:  ES64L-G16RevA.03 25-Dec-2016

 ----------------------------------------------------------
 #p cam-b3lyp/Def2SVP td=(nstates=5) density=(transition=1)
 ----------------------------------------------------------

 --------------------------------
 TDDFT excited states in gaussian
 --------------------------------
 Symbolic Z-matrix:
 Charge =  0 Multiplicity = 1

                         Standard orientation:
 ---------------------------------------------------------------------
 Center     Atomic      Atomic             Coordinates (Angstroms)
 Number     Number       Type             X           Y           Z
 ---------------------------------------------------------------------
      1         12           0      -15.976073    0.706384    0.429277
      2          6           0      -15.642440   -2.088770   -1.646474
      3          6           0      -13.895418    2.363293   -1.798618
      4          6           0      -15.926492    3.164968    2.556288
      5          6           0      -17.887443   -1.287679    2.646045
      6          7           0      -14.543183    0.060983   -1.331729
      7          6           0      -14.737357   -1.050131   -2.049463
      8          6           0      -13.883235   -0.957994   -3.269560
      9          6           0      -13.004640    0.298368   -3.052308
     10          6           0      -13.861702    0.995115   -2.014139
     11          6           0      -11.544064    0.142431   -2.625268
     12          6           0      -14.736991   -0.851451   -4.572867
     13          6           0      -14.407156   -1.795109   -5.774241
     14          1           0      -12.938086   -2.279735   -5.980084
     15          7           0      -15.140087    2.611988    0.312840
     16          6           0      -14.479686    3.126478   -0.795010
     17          6           0      -14.206567    4.496311   -0.504246
     18          6           0      -14.679980    4.747366    0.845716
     19          6           0      -15.291725    3.512409    1.313193
     20          6           0      -13.422479    5.450902   -1.431101
     21          6           0      -14.544412    6.021461    1.728228
     22          8           0      -14.955488    6.117491    2.840976
     23          6           0      -13.895124    7.221022    1.066515
     24          7           0      -16.809407    0.875506    2.306955
     25          6           0      -16.586823    1.997302    3.027657
     26          6           0      -17.253537    1.987863    4.430860
     27          6           0      -18.103017    0.649647    4.319132
     28          6           0      -17.618912    0.027155    3.014913
     29          6           0      -16.118959    2.022813    5.609055
     30          6           0      -19.641319    0.867258    4.471046
     31          6           0      -20.474491    0.954327    3.204875
     32          7           0      -16.707561   -1.288906    0.535010
     33          6           0      -17.528961   -1.910522    1.436371
     34          6           0      -17.786112   -3.310421    0.947006
     35          6           0      -17.057475   -3.399726   -0.260605
     36          6           0      -16.368655   -2.159936   -0.473810
     37          6           0      -18.489916   -4.425453    1.671685
     38          6           0      -16.704564   -4.276936   -1.374166
     39          8           0      -17.049389   -5.447932   -1.557027
     40          6           0      -15.929269   -3.403727   -2.356245
     41          6           0      -14.681212   -4.171701   -2.685244
     42          8           0      -13.700124   -4.255843   -1.969425
     43          8           0      -14.960134   -4.860187   -3.779876
     44          6           0      -14.114606   -5.995993   -4.112383
     45          1           0      -13.131663    2.842936   -2.413549
     46          1           0      -16.074792    4.034060    3.200117
     47          1           0      -18.489820   -1.897005    3.323496
     48          1           0      -13.281525   -1.863494   -3.341032
     49          1           0      -12.949897    0.795946   -4.020652
     50          1           0      -11.171957   -0.878276   -2.535206
     51          1           0      -11.375478    0.640980   -1.670329
     52          1           0      -10.953719    0.655549   -3.384092
     53          1           0      -14.831348    0.166980   -4.949111
     54          1           0      -15.711321   -1.111528   -4.159406
     55          1           0      -14.700261   -1.205818   -6.644022
     56          1           0      -15.041137   -2.678685   -5.704859
     57          1           0      -12.583531    5.939756   -0.935737
     58          1           0      -14.020384    6.306609   -1.745132
     59          1           0      -13.053747    4.988940   -2.347877
     60          1           0      -14.342812    7.466541    0.103279
     61          1           0      -12.824799    7.026708    0.996506
     62          1           0      -13.904237    8.076724    1.741613
     63          1           0      -17.906605    2.845866    4.589397
     64          1           0      -17.901569   -0.052416    5.128098
     65          1           0      -16.143852    1.019854    6.035358
     66          1           0      -16.388062    2.658783    6.452689
     67          1           0      -15.101006    2.160846    5.242864
     68          1           0      -19.719295    1.866404    4.899909
     69          1           0      -20.096830    0.160955    5.164826
     70          1           0      -19.883746    1.591500    2.545620
     71          1           0      -21.380800    1.427797    3.581679
     72          1           0      -20.662139    0.069493    2.597175
     73          1           0      -18.809755   -4.260932    2.700679
     74          1           0      -17.836420   -5.297248    1.706589
     75          1           0      -19.316553   -4.706847    1.020073
     76          1           0      -16.390966   -3.299582   -3.338324
     77          1           0      -13.338428   -6.320702   -3.420148
     78          1           0      -13.572728   -5.637454   -4.988091
     79          1           0      -14.717022   -6.715497   -4.667054
     80         12           0       15.882521    0.408325   -0.601091
     81          6           0       15.517094   -2.830783    0.712243
     82          6           0       12.601903    0.285113   -1.623108
     83          6           0       16.089016    3.671051   -1.108559
     84          6           0       19.171798    0.502973    0.736645
     85          7           0       14.207838   -0.986632   -0.241596
     86          6           0       14.274902   -2.285182    0.326185
     87          6           0       13.092843   -3.107325    0.014993
     88          6           0       12.198942   -2.102972   -0.832957
     89          6           0       13.060666   -0.855414   -0.947466
     90          6           0       11.690244   -2.730093   -2.153550
     91          6           0       12.287583   -3.523464    1.208018
     92          6           0       12.158223   -2.499952    2.345933
     93          1           0       10.830905   -2.372256    3.190391
     94          7           0       14.545709    1.829481   -1.315701
     95          6           0       13.317520    1.534437   -1.782778
     96          6           0       12.758543    2.723276   -2.376217
     97          6           0       13.771245    3.711969   -2.313210
     98          6           0       14.894282    3.099501   -1.585390
     99          6           0       11.361143    2.867498   -2.916344
    100          6           0       13.674766    5.124653   -2.888555
    101          8           0       12.667424    5.504389   -3.452937
    102          6           0       14.677793    6.232428   -2.758548
    103          7           0       17.295984    1.924964   -0.012050
    104          6           0       17.174655    3.233310   -0.397883
    105          6           0       18.515924    4.014258   -0.203947
    106          6           0       19.344760    3.024403    0.669467
    107          6           0       18.580781    1.738116    0.443625
    108          6           0       19.275880    4.365609   -1.505767
    109          6           0       19.279601    3.258569    2.252290
    110          6           0       20.569258    3.223465    2.989310
    111          7           0       17.134655   -0.844724    0.374957
    112          6           0       18.438648   -0.722405    0.657550
    113          6           0       19.045256   -2.084197    0.907397
    114          6           0       17.892232   -2.931584    0.877114
    115          6           0       16.743311   -2.110679    0.696095
    116          6           0       20.486684   -2.490879    1.177883
    117          6           0       17.468710   -4.275170    1.147508
    118          8           0       18.108924   -5.257186    1.488560
    119          6           0       15.892247   -4.259196    1.016378
    120          6           0       15.332569   -4.530850    2.397350
    121          8           0       15.380452   -3.826446    3.351032
    122          8           0       14.636203   -5.719590    2.345433
    123          6           0       13.802947   -5.966494    3.526554
    124          1           0       11.634555    0.166362   -2.115258
    125          1           0       16.241073    4.703209   -1.428576
    126          1           0       20.230461    0.570483    0.995692
    127          1           0       13.439121   -3.995131   -0.514140
    128          1           0       11.342879   -1.670385   -0.315249
    129          1           0       10.634419   -2.463509   -2.102717
    130          1           0       11.883127   -3.801129   -2.091033
    131          1           0       12.115062   -2.260083   -3.040747
    132          1           0       12.528853   -4.520080    1.578627
    133          1           0       11.237960   -3.731881    0.999595
    134          1           0       12.395481   -1.540786    1.884457
    135          1           0       13.009809   -2.755980    2.976537
    136          1           0       10.899017    3.790770   -2.565333
    137          1           0       10.777935    1.978947   -2.674892
    138          1           0       11.501652    2.924670   -3.996002
    139          1           0       14.829093    6.611636   -1.748411
    140          1           0       14.153548    7.045813   -3.260441
    141          1           0       15.565932    6.082165   -3.373262
    142          1           0       18.283376    4.948498    0.306987
    143          1           0       20.379503    2.919526    0.342242
    144          1           0       20.196985    3.783873   -1.536190
    145          1           0       19.321720    5.442065   -1.670002
    146          1           0       18.684909    4.020631   -2.353448
    147          1           0       18.579086    2.568167    2.721538
    148          1           0       18.845632    4.254063    2.347451
    149          1           0       20.756929    4.130425    3.563657
    150          1           0       21.430886    3.028140    2.350500
    151          1           0       20.585455    2.431740    3.737828
    152          1           0       20.488070   -2.988292    2.147784
    153          1           0       21.113301   -1.610796    1.028136
    154          1           0       20.706401   -3.275573    0.454063
    155          1           0       15.530460   -4.980936    0.284392
    156          1           0       13.443474   -5.049839    3.993924
    157          1           0       14.473487   -6.499523    4.200685
    158          1           0       13.064405   -6.705257    3.216472
 ---------------------------------------------------------------------

 SCF Done:  E(RCAM-B3LYP) =  -4069.79825945     A.U. after   17 cycles

 Excitation energies and oscillator strengths:

 Excited State   1:      Singlet-A      1.6650 eV  744.64 nm  f=0.3687  <S**2>=0.000
     309 -> 315       -0.17248
     312 -> 313        0.68772
     309 <- 315       -0.10779
 This state for optimization and/or second-order correction.
 Total Energy, E(TD-HF/TD-DFT) =  -4069.73707077
 Copying the excited state density for this state as the 1-particle RhoCI density.

 Excited State   2:      Singlet-A      1.7292 eV  717.00 nm  f=0.4014  <S**2>=0.000
     310 -> 316        0.18715
     311 -> 314        0.68364
     310 <- 316        0.10974

 Excited State   3:      Singlet-A      2.2138 eV  560.04 nm  f=0.1005  <S**2>=0.000
     310 -> 314        0.64251
     311 -> 316       -0.28228

 Excited State   4:      Singlet-A      2.2661 eV  547.12 nm  f=0.1011  <S**2>=0.000
     309 -> 313        0.62925
     312 -> 315        0.31013

 Excited State   5:      Singlet-A      3.0465 eV  406.97 nm  f=0.0000  <S**2>=0.000
     311 -> 313        0.70709

 The electronic state is 1-A.
 Alpha  occ. eigenvalues --  -46.88793 -46.88582 -19.26265 -19.24601 -19.20425
 Alpha  occ. eigenvalues --  -19.19649 -19.19416 -19.19125 -19.18622 -19.18254
 Alpha  occ. eigenvalues --  -14.42376 -14.41887 -14.41784 -14.41599 -14.39596
 Alpha  occ. eigenvalues --  -14.39535 -14.39316 -14.38739 -10.39242 -10.39158
 Alpha  occ. eigenvalues --  -10.35467 -10.34993 -10.34609 -10.34494 -10.32063
 Alpha  occ. eigenvalues --  -10.31432 -10.31266 -10.31211 -10.31072 -10.30947
 Alpha  occ. eigenvalues --  -10.30818 -10.30791 -10.30659 -10.30641 -10.30584
 Alpha  occ. eigenvalues --  -10.30469 -10.29950 -10.29739 -10.29562 -10.29487
 Alpha  occ. eigenvalues --  -10.29384 -10.29319 -10.29258 -10.28978 -10.28717
 Alpha  occ. eigenvalues --  -10.28518 -10.28506 -10.28376 -10.28335 -10.28284
 Alpha  occ. eigenvalues --  -10.28284 -10.28208 -10.28124 -10.28052 -10.28049
 Alpha  occ. eigenvalues --  -10.27821 -10.27746 -10.27563 -10.27436 -10.27150
 Alpha  occ. eigenvalues --  -10.27125 -10.27043 -10.27014 -10.26753 -10.26691
 Alpha  occ. eigenvalues --  -10.26689 -10.26622 -10.26606 -10.26565 -10.26509
 Alpha  occ. eigenvalues --  -10.26492 -10.26489 -10.26391 -10.26342 -10.26305
 Alpha  occ. eigenvalues --  -10.25999 -10.25946 -10.25906 -10.25797 -10.25517
 Alpha  occ. eigenvalues --  -10.25495 -10.25389 -10.25370 -10.25205 -10.25130
 Alpha  occ. eigenvalues --  -10.25077  -3.17249  -3.17227  -1.92157  -1.92089
 Alpha  occ. eigenvalues --   -1.91740  -1.91687  -1.91545  -1.91510  -1.18341
 Alpha  occ. eigenvalues --   -1.17263  -1.11364  -1.10414  -1.09951  -1.09615
 Alpha  occ. eigenvalues --   -1.08958  -1.08677  -1.05019  -1.04585  -1.03996
 Alpha  occ. eigenvalues --   -1.03777  -1.03339  -1.02629  -1.02603  -1.01863
 Alpha  occ. eigenvalues --   -0.93356  -0.93184  -0.89867  -0.89432  -0.88721
 Alpha  occ. eigenvalues --   -0.88619  -0.88389  -0.88025  -0.87527  -0.87099
 Alpha  occ. eigenvalues --   -0.86338  -0.86238  -0.85808  -0.85535  -0.84746
 Alpha  occ. eigenvalues --   -0.84446  -0.84170  -0.83731  -0.82714  -0.82621
 Alpha  occ. eigenvalues --   -0.81693  -0.81414  -0.80877  -0.80786  -0.80516
 Alpha  occ. eigenvalues --   -0.80024  -0.77949  -0.77911  -0.77509  -0.77345
 Alpha  occ. eigenvalues --   -0.77008  -0.76849  -0.76311  -0.76046  -0.75138
 Alpha  occ. eigenvalues --   -0.75117  -0.72706  -0.72679  -0.71711  -0.71693
 Alpha  occ. eigenvalues --   -0.69631  -0.69529  -0.68896  -0.68811  -0.68686
 Alpha  occ. eigenvalues --   -0.68046  -0.67088  -0.66102  -0.65868  -0.65271
 Alpha  occ. eigenvalues --   -0.65082  -0.64969  -0.64650  -0.64540  -0.64381
 Alpha  occ. eigenvalues --   -0.64342  -0.62813  -0.62099  -0.60008  -0.59854
 Alpha  occ. eigenvalues --   -0.59659  -0.59418  -0.59207  -0.59066  -0.58944
 Alpha  occ. eigenvalues --   -0.58464  -0.58139  -0.58106  -0.57383  -0.57312
 Alpha  occ. eigenvalues --   -0.56869  -0.56564  -0.56105  -0.56007  -0.55420
 Alpha  occ. eigenvalues --   -0.55101  -0.54963  -0.54794  -0.54679  -0.54606
 Alpha  occ. eigenvalues --   -0.54074  -0.53596  -0.53260  -0.53042  -0.52941
 Alpha  occ. eigenvalues --   -0.52856  -0.52523  -0.52378  -0.52285  -0.52127
 Alpha  occ. eigenvalues --   -0.52024  -0.51700  -0.51620  -0.51423  -0.51346
 Alpha  occ. eigenvalues --   -0.51238  -0.51163  -0.51047  -0.50931  -0.50137
 Alpha  occ. eigenvalues --   -0.50134  -0.49682  -0.49606  -0.49405  -0.49405
 Alpha  occ. eigenvalues --   -0.49254  -0.49200  -0.48939  -0.48846  -0.48770
 Alpha  occ. eigenvalues --   -0.48671  -0.48603  -0.48370  -0.48366  -0.48117
 Alpha  occ. eigenvalues --   -0.47963  -0.47558  -0.47304  -0.47198  -0.47109
 Alpha  occ. eigenvalues --   -0.46907  -0.46897  -0.46784  -0.46406  -0.46379
 Alpha  occ. eigenvalues --   -0.46018  -0.46007  -0.45903  -0.45883  -0.45866
 Alpha  occ. eigenvalues --   -0.45657  -0.45593  -0.45505  -0.45359  -0.45229
 Alpha  occ. eigenvalues --   -0.45007  -0.44823  -0.44677  -0.44454  -0.44374
 Alpha  occ. eigenvalues --   -0.44050  -0.43904  -0.43755  -0.43602  -0.43332
 Alpha  occ. eigenvalues --   -0.43254  -0.43233  -0.43065  -0.42947  -0.42806
 Alpha  occ. eigenvalues --   -0.42714  -0.42525  -0.42383  -0.42201  -0.42164
 Alpha  occ. eigenvalues --   -0.42128  -0.41905  -0.41754  -0.41651  -0.41204
 Alpha  occ. eigenvalues --   -0.41120  -0.41002  -0.40774  -0.40724  -0.40400
 Alpha  occ. eigenvalues --   -0.40279  -0.39825  -0.39620  -0.39292  -0.39156
 Alpha  occ. eigenvalues --   -0.38454  -0.38392  -0.37880  -0.37332  -0.37157
 Alpha  occ. eigenvalues --   -0.37106  -0.37039  -0.36720  -0.36443  -0.36397
 Alpha  occ. eigenvalues --   -0.36216  -0.35763  -0.35103  -0.34401  -0.34230
 Alpha  occ. eigenvalues --   -0.34060  -0.33152  -0.33027  -0.31408  -0.31380
 Alpha  occ. eigenvalues --   -0.31102  -0.30778  -0.30542  -0.30376  -0.29921
 Alpha  occ. eigenvalues --   -0.29906  -0.29656  -0.28949  -0.24311  -0.23789
 Alpha  occ. eigenvalues --   -0.21070  -0.21049
 Alpha virt. eigenvalues --   -0.08782  -0.08483  -0.01790  -0.01516   0.00196
 Alpha virt. eigenvalues --    0.00215   0.01379   0.02521   0.02822   0.02880
 Alpha virt. eigenvalues --    0.05057   0.05066   0.05429   0.05608   0.05892

 Mulliken charges:
               1
     1  Mg  12.000015
     2  C    6.000410
     3  C    5.999631
     4  C    5.999648
     5  C    6.000361
     6  N    6.999984
     7  C    5.999388
     8  C    6.000102
     9  C    5.999771
    10  C    6.000736
    11  C    5.999921
    12  C    6.000055
    13  C    5.999983
    14  H    1.000067
    15  N    6.999753
    16  C    6.000847
    17  C    6.000341
    18  C    6.000312
    19  C    6.000645
    20  C    5.999835
    21  C    6.000296
    22  O    8.000428
    23  C    5.999818
    24  N    7.000088
    25  C    6.000626
    26  C    5.999813
    27  C    6.000242
    28  C    5.999308
    29  C    5.999905
    30  C    6.000065
    31  C    6.000151
    32  N    7.000149
    33  C    5.999198
    34  C    5.999410
    35  C    5.999894
    36  C    5.999332
    37  C    6.000129
    38  C    5.999642
    39  O    7.999374
    40  C    6.000023
    41  C    5.999920
    42  O    7.999906
    43  O    7.999981
    44  C    6.000094
    45  H    1.000407
    46  H    1.000095
    47  H    0.999739
    48  H    0.999995
    49  H    1.000152
    50  H    1.000275
    51  H    0.999983
    52  H    1.000281
    53  H    0.999776
    54  H    1.000037
    55  H    0.999932
    56  H    0.999989
    57  H    1.000530
    58  H    1.000376
    59  H    1.000469
    60  H    1.000110
    61  H    1.000327
    62  H    1.000304
    63  H    0.999978
    64  H    0.999875
    65  H    1.000155
    66  H    1.000006
    67  H    1.000011
    68  H    0.999752
    69  H    0.999882
    70  H    0.999867
    71  H    0.999812
    72  H    1.000108
    73  H    0.999539
    74  H    0.999575
    75  H    0.999563
    76  H    0.999791
    77  H    0.999922
    78  H    0.999946
    79  H    0.999841
    80  Mg  11.997953
    81  C    5.964882
    82  C    6.015973
    83  C    6.028576
    84  C    5.986474
    85  N    6.993956
    86  C    6.045360
    87  C    5.984142
    88  C    6.009457
    89  C    5.968121
    90  C    6.002222
    91  C    5.995877
    92  C    5.992998
    93  H    1.009782
    94  N    7.012878
    95  C    5.950668
    96  C    5.977623
    97  C    5.994336
    98  C    5.948246
    99  C    6.004825
   100  C    5.989308
   101  O    7.980604
   102  C    6.004527
   103  N    7.003393
   104  C    5.963310
   105  C    6.007060
   106  C    5.994387
   107  C    6.024936
   108  C    5.999917
   109  C    5.991494
   110  C    5.999833
   111  N    6.994925
   112  C    6.042386
   113  C    6.039870
   114  C    5.995188
   115  C    6.045130
   116  C    5.997266
   117  C    6.013904
   118  O    8.026152
   119  C    6.002570
   120  C    6.002798
   121  O    8.003519
   122  O    8.002081
   123  C    5.998225
   124  H    0.987302
   125  H    0.992312
   126  H    1.011882
   127  H    1.002583
   128  H    1.002114
   129  H    0.999766
   130  H    0.986459
   131  H    1.002152
   132  H    0.996947
   133  H    1.009919
   134  H    1.010524
   135  H    0.992990
   136  H    0.981790
   137  H    0.980255
   138  H    0.980291
   139  H    0.988849
   140  H    0.988305
   141  H    0.988181
   142  H    0.999833
   143  H    0.999872
   144  H    0.986364
   145  H    0.999527
   146  H    1.004799
   147  H    0.999136
   148  H    1.015364
   149  H    1.005726
   150  H    1.000529
   151  H    0.996693
   152  H    1.020501
   153  H    1.019678
   154  H    1.020974
   155  H    1.010143
   156  H    1.004099
   157  H    1.001513
   158  H    1.005500
 Sum of Mulliken charges = 624.00000

 Dipole moment (field-independent basis, Debye):
    X=              6.6645    Y=             -7.0405    Z=              4.7742  Tot=             10.8064
 Quadrupole moment (field-independent basis, Debye-Ang):
   XX=            206.9260   YY=             -4.2915   ZZ=             -5.4446
   XY=           -115.2031   XZ=             70.3273   YZ=              6.1722

 Normal termination of Gaussian 16 at Thu Sep 23 13:01:27 2021.
