 Gaussian 16, Revision A.03,
 Gaussian 16:  ES64L-G16RevA.03 25-Dec-2016

 ----------------------------------------------------------
 #p cam-b3lyp/Def2SVP td=(nstates=5) density=(transition=1)
 ----------------------------------------------------------

 --------------------------------
 TDDFT excited states in gaussian
 --------------------------------
 Symbolic Z-matrix:
 Charge =  0 Multiplicity = 1

                         Standard orientation:
 ---------------------------------------------------------------------
 Center     Atomic      Atomic             Coordinates (Angstroms)
 Number     Number       Type             X           Y           Z
 ---------------------------------------------------------------------
      1         12           0       25.303245   -0.707929    0.505427
      2          6           0       25.619246    2.143930   -1.669255
      3          6           0       24.639261    1.496105    3.026379
      4          6           0       25.311989   -3.343784    2.579953
      5          6           0       26.454446   -2.650144   -2.034986
      6          7           0       25.096102    1.658649    0.623977
      7          6           0       25.235997    2.524188   -0.421826
      8          6           0       24.820094    3.862220    0.059873
      9          6           0       24.635457    3.706467    1.594806
     10          6           0       24.837770    2.188627    1.855013
     11          6           0       25.678786    4.549265    2.395189
     12          6           0       23.616925    4.463402   -0.622563
     13          6           0       23.265466    5.918944   -0.360234
     14          1           0       23.016426    6.764626   -1.537829
     15          7           0       24.910352   -0.904478    2.473505
     16          6           0       24.747998    0.162577    3.399692
     17          6           0       24.405619   -0.455596    4.694394
     18          6           0       24.691944   -1.811383    4.557427
     19          6           0       25.057346   -2.066473    3.152234
     20          6           0       24.029647    0.390101    5.893118
     21          6           0       24.584401   -2.950296    5.594362
     22          8           0       25.075543   -4.084097    5.439458
     23          6           0       23.823289   -2.661844    6.823529
     24          7           0       25.875317   -2.741417    0.341183
     25          6           0       25.794288   -3.659529    1.282253
     26          6           0       26.277686   -5.061755    0.820567
     27          6           0       26.384621   -4.840572   -0.689844
     28          6           0       26.186055   -3.347167   -0.812462
     29          6           0       27.645742   -5.445053    1.479261
     30          6           0       25.428556   -5.619940   -1.564434
     31          6           0       26.014433   -6.240609   -2.845110
     32          7           0       25.816464   -0.346278   -1.454544
     33          6           0       26.262707   -1.270301   -2.373953
     34          6           0       26.479526   -0.643755   -3.712866
     35          6           0       26.241619    0.676647   -3.388495
     36          6           0       25.902334    0.834840   -2.039363
     37          6           0       26.720577   -1.311938   -5.028322
     38          6           0       26.224108    2.005842   -3.981290
     39          8           0       26.422644    2.304577   -5.153488
     40          6           0       25.816962    3.031912   -2.899042
     41          6           0       26.801872    4.082531   -2.940016
     42          8           0       27.969244    4.040427   -2.482204
     43          8           0       26.243832    5.233729   -3.406709
     44          6           0       26.983622    6.469341   -3.270057
     45          1           0       24.341434    2.180104    3.823490
     46          1           0       25.476239   -4.167795    3.277215
     47          1           0       27.029719   -3.303399   -2.694071
     48          1           0       25.699628    4.472281   -0.141697
     49          1           0       23.646893    4.021909    1.928930
     50          1           0       25.408849    5.236459    3.197683
     51          1           0       26.170386    5.152831    1.632374
     52          1           0       26.529890    3.986728    2.779892
     53          1           0       22.698441    3.963024   -0.315323
     54          1           0       23.565542    4.187497   -1.675449
     55          1           0       24.065973    6.415514    0.186086
     56          1           0       22.262665    5.896553    0.065579
     57          1           0       24.536647    0.109421    6.816068
     58          1           0       22.961072    0.407001    6.106556
     59          1           0       24.307964    1.441597    5.818255
     60          1           0       22.855049   -2.249324    6.539553
     61          1           0       24.439294   -1.901301    7.302070
     62          1           0       23.628493   -3.624217    7.295375
     63          1           0       25.480452   -5.757319    1.084914
     64          1           0       27.363872   -5.020357   -1.132599
     65          1           0       28.449544   -5.478206    0.744393
     66          1           0       27.610542   -6.445050    1.911575
     67          1           0       27.843367   -4.658561    2.207757
     68          1           0       24.560658   -5.024552   -1.846138
     69          1           0       24.917085   -6.281482   -0.866000
     70          1           0       25.410816   -7.119369   -3.070013
     71          1           0       27.090657   -6.406134   -2.786829
     72          1           0       25.862244   -5.429085   -3.556394
     73          1           0       25.834886   -1.393505   -5.658677
     74          1           0       27.242184   -2.237512   -4.786395
     75          1           0       27.538435   -0.804400   -5.541312
     76          1           0       24.918193    3.501166   -3.299086
     77          1           0       27.903255    6.387154   -2.690116
     78          1           0       26.336722    7.265983   -2.903676
     79          1           0       27.304180    6.862227   -4.235287
     80         12           0      -25.003650   -0.636715   -0.295160
     81          6           0      -26.351509    1.935597    1.716398
     82          6           0      -23.937475    1.593182   -2.478112
     83          6           0      -24.581106   -3.203329   -2.510284
     84          6           0      -27.139194   -2.943582    1.652404
     85          7           0      -25.205632    1.530251   -0.357204
     86          6           0      -25.558416    2.357710    0.647854
     87          6           0      -25.099619    3.789315    0.307876
     88          6           0      -24.334477    3.675929   -0.971595
     89          6           0      -24.515820    2.174562   -1.349309
     90          6           0      -24.739114    4.779243   -2.032843
     91          6           0      -24.355549    4.616242    1.409199
     92          6           0      -23.186457    5.635690    1.065748
     93          1           0      -23.191193    7.011724    1.747603
     94          7           0      -24.115406   -0.783558   -2.136495
     95          6           0      -23.725071    0.297741   -2.893788
     96          6           0      -23.109357   -0.206784   -4.088126
     97          6           0      -23.302610   -1.640248   -4.179330
     98          6           0      -24.067520   -1.922730   -2.944732
     99          6           0      -22.562550    0.767236   -5.051471
    100          6           0      -22.798912   -2.665072   -5.225495
    101          8           0      -23.108386   -3.807584   -5.139529
    102          6           0      -21.728579   -2.288369   -6.197420
    103          7           0      -25.824266   -2.765175   -0.408939
    104          6           0      -25.338294   -3.569019   -1.381297
    105          6           0      -25.843029   -5.040040   -1.233580
    106          6           0      -26.629904   -4.989600    0.111705
    107          6           0      -26.564866   -3.491878    0.500812
    108          6           0      -26.686852   -5.556590   -2.368469
    109          6           0      -26.135415   -5.896005    1.292765
    110          6           0      -24.944236   -5.474474    2.084903
    111          7           0      -26.449776   -0.647670    1.346683
    112          6           0      -27.135574   -1.627240    2.005928
    113          6           0      -27.806221   -1.054662    3.147615
    114          6           0      -27.553523    0.341851    3.107693
    115          6           0      -26.758562    0.539699    1.960473
    116          6           0      -28.748344   -1.726460    4.083171
    117          6           0      -27.812551    1.612159    3.723017
    118          8           0      -28.427769    1.951404    4.727353
    119          6           0      -27.006334    2.699940    2.880932
    120          6           0      -27.855163    3.898921    2.493052
    121          8           0      -28.798769    3.840473    1.747579
    122          8           0      -27.338121    5.036391    3.092467
    123          6           0      -28.113312    6.243898    2.805478
    124          1           0      -23.377834    2.250889   -3.147031
    125          1           0      -24.360856   -3.980101   -3.245154
    126          1           0      -27.686104   -3.638188    2.293245
    127          1           0      -26.083977    4.245891    0.204437
    128          1           0      -23.292539    3.908608   -0.750049
    129          1           0      -25.409145    5.501093   -1.566127
    130          1           0      -25.099667    4.262883   -2.922450
    131          1           0      -23.887678    5.408263   -2.293295
    132          1           0      -23.923982    3.892098    2.100624
    133          1           0      -25.049657    5.187589    2.026099
    134          1           0      -23.246214    5.756935   -0.016023
    135          1           0      -22.228983    5.160537    1.279565
    136          1           0      -22.767510    0.348715   -6.036573
    137          1           0      -21.481909    0.777711   -4.914340
    138          1           0      -22.878681    1.810476   -5.060906
    139          1           0      -22.306964   -1.942379   -7.053082
    140          1           0      -21.062541   -3.139825   -6.340420
    141          1           0      -21.130215   -1.422201   -5.914047
    142          1           0      -25.024671   -5.731761   -1.032793
    143          1           0      -27.709005   -5.140125    0.110667
    144          1           0      -26.657421   -4.883247   -3.226100
    145          1           0      -27.740131   -5.633958   -2.097510
    146          1           0      -26.262121   -6.525693   -2.629099
    147          1           0      -25.919662   -6.897266    0.919743
    148          1           0      -26.996348   -6.106501    1.927665
    149          1           0      -24.330537   -4.795172    1.492960
    150          1           0      -24.200893   -6.200564    2.414800
    151          1           0      -25.354894   -5.049302    3.001254
    152          1           0      -29.633238   -2.154717    3.613248
    153          1           0      -29.238892   -0.917337    4.624844
    154          1           0      -28.238583   -2.444992    4.725604
    155          1           0      -26.180071    3.011987    3.520011
    156          1           0      -27.288209    6.636412    2.211946
    157          1           0      -28.215341    6.712508    3.784016
    158          1           0      -29.044250    6.041584    2.275393
 ---------------------------------------------------------------------

 SCF Done:  E(RCAM-B3LYP) =  -4069.80511088     A.U. after   17 cycles

 Excitation energies and oscillator strengths:

 Excited State   1:      Singlet-A      1.7017 eV  728.58 nm  f=0.3830  <S**2>=0.000
     310 -> 316        0.18702
     311 -> 313        0.68384
     310 <- 316        0.11026
 This state for optimization and/or second-order correction.
 Total Energy, E(TD-HF/TD-DFT) =  -4069.74257365
 Copying the excited state density for this state as the 1-particle RhoCI density.

 Excited State   2:      Singlet-A      1.7540 eV  706.87 nm  f=0.3807  <S**2>=0.000
     309 -> 315       -0.19893
     312 -> 314        0.68126
     309 <- 315       -0.11271

 Excited State   3:      Singlet-A      2.1898 eV  566.19 nm  f=0.1092  <S**2>=0.000
     310 -> 313        0.64227
     311 -> 316       -0.28258

 Excited State   4:      Singlet-A      2.3188 eV  534.70 nm  f=0.0717  <S**2>=0.000
     309 -> 314        0.61702
     312 -> 315        0.33883

 Excited State   5:      Singlet-A      3.1603 eV  392.31 nm  f=0.0000  <S**2>=0.000
     312 -> 313        0.70711

 The electronic state is 1-A.
 Alpha  occ. eigenvalues --  -46.90009 -46.88534 -19.25196 -19.24751 -19.20041
 Alpha  occ. eigenvalues --  -19.19594 -19.19063 -19.18869 -19.18646 -19.18641
 Alpha  occ. eigenvalues --  -14.42230 -14.41940 -14.41796 -14.41136 -14.39798
 Alpha  occ. eigenvalues --  -14.39633 -14.39511 -14.38824 -10.39172 -10.39133
 Alpha  occ. eigenvalues --  -10.35743 -10.35281 -10.34813 -10.34484 -10.31642
 Alpha  occ. eigenvalues --  -10.31273 -10.31250 -10.31141 -10.30901 -10.30784
 Alpha  occ. eigenvalues --  -10.30726 -10.30640 -10.30593 -10.30508 -10.30439
 Alpha  occ. eigenvalues --  -10.30427 -10.30379 -10.30115 -10.29604 -10.29462
 Alpha  occ. eigenvalues --  -10.29068 -10.29030 -10.28689 -10.28636 -10.28605
 Alpha  occ. eigenvalues --  -10.28435 -10.28198 -10.28153 -10.28056 -10.28045
 Alpha  occ. eigenvalues --  -10.28024 -10.27985 -10.27942 -10.27847 -10.27671
 Alpha  occ. eigenvalues --  -10.27637 -10.27573 -10.27570 -10.27380 -10.27359
 Alpha  occ. eigenvalues --  -10.27311 -10.27256 -10.27112 -10.27041 -10.26999
 Alpha  occ. eigenvalues --  -10.26951 -10.26796 -10.26737 -10.26578 -10.26551
 Alpha  occ. eigenvalues --  -10.26365 -10.26319 -10.26274 -10.26249 -10.26145
 Alpha  occ. eigenvalues --  -10.26127 -10.26016 -10.25967 -10.25953 -10.25798
 Alpha  occ. eigenvalues --  -10.25728 -10.25408 -10.25119 -10.24986 -10.24894
 Alpha  occ. eigenvalues --  -10.24638  -3.18318  -3.17140  -1.93191  -1.92782
 Alpha  occ. eigenvalues --   -1.92609  -1.92048  -1.91587  -1.91452  -1.16305
 Alpha  occ. eigenvalues --   -1.16143  -1.12914  -1.09507  -1.09225  -1.09095
 Alpha  occ. eigenvalues --   -1.08553  -1.05990  -1.05800  -1.04612  -1.04236
 Alpha  occ. eigenvalues --   -1.03156  -1.03109  -1.02497  -1.02215  -1.01851
 Alpha  occ. eigenvalues --   -0.93196  -0.91628  -0.90125  -0.89350  -0.89321
 Alpha  occ. eigenvalues --   -0.88894  -0.88510  -0.88273  -0.87622  -0.87386
 Alpha  occ. eigenvalues --   -0.87189  -0.87113  -0.86657  -0.86109  -0.84706
 Alpha  occ. eigenvalues --   -0.84099  -0.84018  -0.83674  -0.82966  -0.82638
 Alpha  occ. eigenvalues --   -0.82543  -0.82013  -0.81275  -0.80911  -0.80854
 Alpha  occ. eigenvalues --   -0.80417  -0.78701  -0.78301  -0.77752  -0.77475
 Alpha  occ. eigenvalues --   -0.77173  -0.77115  -0.76606  -0.75869  -0.75279
 Alpha  occ. eigenvalues --   -0.74666  -0.73023  -0.72342  -0.71987  -0.71483
 Alpha  occ. eigenvalues --   -0.69830  -0.69577  -0.69296  -0.69290  -0.68218
 Alpha  occ. eigenvalues --   -0.68118  -0.66921  -0.66564  -0.66453  -0.65443
 Alpha  occ. eigenvalues --   -0.65141  -0.64934  -0.64591  -0.64319  -0.64154
 Alpha  occ. eigenvalues --   -0.64027  -0.62574  -0.61720  -0.60441  -0.60042
 Alpha  occ. eigenvalues --   -0.59937  -0.59567  -0.59522  -0.58819  -0.58808
 Alpha  occ. eigenvalues --   -0.58427  -0.58364  -0.58012  -0.57644  -0.57401
 Alpha  occ. eigenvalues --   -0.56499  -0.56163  -0.55894  -0.55782  -0.55550
 Alpha  occ. eigenvalues --   -0.55404  -0.55068  -0.54600  -0.54470  -0.54074
 Alpha  occ. eigenvalues --   -0.54062  -0.53924  -0.53738  -0.53520  -0.53360
 Alpha  occ. eigenvalues --   -0.53200  -0.53000  -0.52782  -0.52391  -0.52004
 Alpha  occ. eigenvalues --   -0.51912  -0.51743  -0.51720  -0.51242  -0.51210
 Alpha  occ. eigenvalues --   -0.50946  -0.50843  -0.50821  -0.50632  -0.50518
 Alpha  occ. eigenvalues --   -0.50325  -0.50312  -0.50048  -0.49963  -0.49683
 Alpha  occ. eigenvalues --   -0.49535  -0.49217  -0.49109  -0.48997  -0.48784
 Alpha  occ. eigenvalues --   -0.48672  -0.48611  -0.48413  -0.48374  -0.48354
 Alpha  occ. eigenvalues --   -0.47990  -0.47832  -0.47710  -0.47394  -0.47265
 Alpha  occ. eigenvalues --   -0.47222  -0.47152  -0.47036  -0.46779  -0.46571
 Alpha  occ. eigenvalues --   -0.46262  -0.46074  -0.46043  -0.45796  -0.45603
 Alpha  occ. eigenvalues --   -0.45569  -0.45443  -0.45172  -0.45085  -0.44645
 Alpha  occ. eigenvalues --   -0.44577  -0.44559  -0.44346  -0.44103  -0.43992
 Alpha  occ. eigenvalues --   -0.43892  -0.43738  -0.43731  -0.43657  -0.43450
 Alpha  occ. eigenvalues --   -0.43262  -0.43182  -0.43015  -0.42945  -0.42625
 Alpha  occ. eigenvalues --   -0.42530  -0.42465  -0.42356  -0.42074  -0.42050
 Alpha  occ. eigenvalues --   -0.41843  -0.41784  -0.41713  -0.41595  -0.41478
 Alpha  occ. eigenvalues --   -0.41267  -0.41100  -0.40899  -0.40890  -0.40610
 Alpha  occ. eigenvalues --   -0.40153  -0.40143  -0.39965  -0.39207  -0.38978
 Alpha  occ. eigenvalues --   -0.38846  -0.38133  -0.37943  -0.37922  -0.37401
 Alpha  occ. eigenvalues --   -0.37073  -0.36917  -0.36099  -0.36034  -0.35924
 Alpha  occ. eigenvalues --   -0.35732  -0.35674  -0.34638  -0.33845  -0.33572
 Alpha  occ. eigenvalues --   -0.33565  -0.33167  -0.33039  -0.31808  -0.31597
 Alpha  occ. eigenvalues --   -0.31077  -0.30853  -0.30624  -0.30621  -0.30572
 Alpha  occ. eigenvalues --   -0.30293  -0.29845  -0.29358  -0.24105  -0.23839
 Alpha  occ. eigenvalues --   -0.21069  -0.20943
 Alpha virt. eigenvalues --   -0.08657  -0.08180  -0.01824  -0.01639   0.00299
 Alpha virt. eigenvalues --    0.00717   0.01141   0.02489   0.02499   0.02985
 Alpha virt. eigenvalues --    0.04493   0.04526   0.05491   0.05674   0.05936

 Mulliken charges:
               1
     1  Mg  11.999988
     2  C    6.000122
     3  C    6.000054
     4  C    5.999887
     5  C    5.999921
     6  N    7.000034
     7  C    5.999892
     8  C    6.000041
     9  C    5.999978
    10  C    6.000036
    11  C    5.999964
    12  C    6.000022
    13  C    6.000003
    14  H    0.999980
    15  N    6.999977
    16  C    6.000109
    17  C    6.000082
    18  C    6.000031
    19  C    6.000178
    20  C    5.999944
    21  C    6.000059
    22  O    8.000109
    23  C    5.999997
    24  N    6.999977
    25  C    6.000121
    26  C    5.999980
    27  C    5.999991
    28  C    5.999955
    29  C    5.999990
    30  C    6.000048
    31  C    5.999996
    32  N    6.999988
    33  C    5.999919
    34  C    5.999849
    35  C    6.000036
    36  C    5.999819
    37  C    6.000038
    38  C    5.999941
    39  O    7.999880
    40  C    5.999982
    41  C    5.999997
    42  O    8.000000
    43  O    7.999986
    44  C    6.000009
    45  H    1.000035
    46  H    1.000024
    47  H    0.999978
    48  H    1.000020
    49  H    0.999996
    50  H    1.000025
    51  H    1.000052
    52  H    1.000021
    53  H    0.999952
    54  H    1.000009
    55  H    1.000012
    56  H    0.999969
    57  H    1.000090
    58  H    1.000066
    59  H    1.000072
    60  H    1.000009
    61  H    1.000038
    62  H    1.000071
    63  H    0.999988
    64  H    1.000009
    65  H    1.000050
    66  H    1.000021
    67  H    0.999993
    68  H    0.999964
    69  H    0.999949
    70  H    0.999963
    71  H    1.000010
    72  H    1.000009
    73  H    0.999888
    74  H    0.999952
    75  H    0.999943
    76  H    0.999951
    77  H    1.000007
    78  H    0.999971
    79  H    0.999986
    80  Mg  12.001256
    81  C    6.031620
    82  C    5.985468
    83  C    5.977311
    84  C    6.006730
    85  N    7.015145
    86  C    5.960257
    87  C    6.007387
    88  C    5.986776
    89  C    6.034336
    90  C    6.000129
    91  C    6.001134
    92  C    5.997769
    93  H    1.002258
    94  N    6.988895
    95  C    6.043878
    96  C    6.018756
    97  C    6.019163
    98  C    6.034494
    99  C    5.992154
   100  C    6.013610
   101  O    8.025413
   102  C    5.994994
   103  N    6.998477
   104  C    6.031178
   105  C    5.986939
   106  C    6.003897
   107  C    5.972870
   108  C    5.999380
   109  C    6.005467
   110  C    6.008389
   111  N    7.004548
   112  C    5.963215
   113  C    5.962392
   114  C    6.000173
   115  C    5.960930
   116  C    6.003959
   117  C    5.986652
   118  O    7.970503
   119  C    5.995934
   120  C    5.996231
   121  O    7.996415
   122  O    7.998582
   123  C    6.001564
   124  H    1.008946
   125  H    1.004824
   126  H    0.987972
   127  H    1.002290
   128  H    1.005365
   129  H    1.012267
   130  H    0.996345
   131  H    1.002872
   132  H    1.002504
   133  H    1.004085
   134  H    0.992574
   135  H    0.997806
   136  H    1.018619
   137  H    1.021722
   138  H    1.020822
   139  H    1.009016
   140  H    1.014194
   141  H    1.003749
   142  H    1.002059
   143  H    1.001358
   144  H    0.992555
   145  H    1.009535
   146  H    1.001518
   147  H    0.987984
   148  H    1.001411
   149  H    0.989431
   150  H    0.991791
   151  H    1.006787
   152  H    0.975884
   153  H    0.985388
   154  H    0.978172
   155  H    0.993883
   156  H    0.993789
   157  H    0.998014
   158  H    0.997841
 Sum of Mulliken charges = 624.00000

 Dipole moment (field-independent basis, Debye):
    X=              5.7775    Y=              0.2505    Z=             -9.2328  Tot=             10.8944
 Quadrupole moment (field-independent basis, Debye-Ang):
   XX=           -295.1222   YY=             -2.3088   ZZ=              9.4450
   XY=            -10.0351   XZ=            234.2530   YZ=              6.2084

 Normal termination of Gaussian 16 at Thu Sep 23 00:07:06 2021.
