 Gaussian 16, Revision A.03,
 Gaussian 16:  ES64L-G16RevA.03 25-Dec-2016

 ----------------------------------------------------------
 #p cam-b3lyp/Def2SVP td=(nstates=5) density=(transition=1)
 ----------------------------------------------------------

 --------------------------------
 TDDFT excited states in gaussian
 --------------------------------
 Symbolic Z-matrix:
 Charge =  0 Multiplicity = 1

                         Standard orientation:
 ---------------------------------------------------------------------
 Center     Atomic      Atomic             Coordinates (Angstroms)
 Number     Number       Type             X           Y           Z
 ---------------------------------------------------------------------
      1         12           0      -23.152252   -0.671558    0.034417
      2          6           0      -22.554768    2.630530   -0.973884
      3          6           0      -22.445151    0.326556    3.357032
      4          6           0      -23.382435   -3.920655    0.993515
      5          6           0      -23.085847   -1.624514   -3.283487
      6          7           0      -22.743327    1.267553    1.026660
      7          6           0      -22.730100    2.507878    0.382133
      8          6           0      -22.884988    3.646339    1.453852
      9          6           0      -22.751979    2.880097    2.775031
     10          6           0      -22.586359    1.374256    2.368258
     11          6           0      -21.529913    3.397852    3.580463
     12          6           0      -24.210278    4.360150    1.217041
     13          6           0      -24.321480    5.817505    1.634103
     14          1           0      -23.221855    6.402409    2.549037
     15          7           0      -22.965168   -1.701883    1.893684
     16          6           0      -22.641904   -1.114786    3.131783
     17          6           0      -22.556357   -2.126681    4.170123
     18          6           0      -22.889801   -3.400103    3.561155
     19          6           0      -23.075578   -3.041994    2.089672
     20          6           0      -22.355005   -1.822118    5.660070
     21          6           0      -23.032164   -4.783523    4.166232
     22          8           0      -23.344585   -5.735713    3.463786
     23          6           0      -22.997573   -4.920125    5.639970
     24          7           0      -23.292000   -2.506884   -1.041778
     25          6           0      -23.469343   -3.699224   -0.407519
     26          6           0      -23.776415   -4.805902   -1.450111
     27          6           0      -23.748938   -4.064890   -2.842986
     28          6           0      -23.465085   -2.606270   -2.399920
     29          6           0      -22.754216   -5.950657   -1.332807
     30          6           0      -25.078597   -4.123175   -3.640933
     31          6           0      -24.956586   -5.171851   -4.742162
     32          7           0      -22.777404    0.216800   -1.822450
     33          6           0      -22.705456   -0.265718   -3.086563
     34          6           0      -22.193758    0.827249   -3.948744
     35          6           0      -22.221522    1.977638   -3.216086
     36          6           0      -22.542951    1.534769   -1.907595
     37          6           0      -21.933274    0.613465   -5.430357
     38          6           0      -22.048709    3.436431   -3.218195
     39          8           0      -21.716829    4.175173   -4.137410
     40          6           0      -22.347309    3.877858   -1.798422
     41          6           0      -21.212119    4.726892   -1.403949
     42          8           0      -20.069167    4.417522   -1.041064
     43          8           0      -21.600449    6.040111   -1.573380
     44          6           0      -20.602815    7.053221   -1.306053
     45          1           0      -22.301863    0.687436    4.377443
     46          1           0      -23.547258   -4.920975    1.399367
     47          1           0      -22.991360   -2.020216   -4.296945
     48          1           0      -22.008305    4.252374    1.222093
     49          1           0      -23.607359    3.181416    3.379627
     50          1           0      -20.701305    2.694119    3.661430
     51          1           0      -21.843247    3.413692    4.623952
     52          1           0      -21.125376    4.321650    3.167340
     53          1           0      -24.947500    3.718713    1.700867
     54          1           0      -24.472794    4.271798    0.163479
     55          1           0      -25.298884    5.974527    2.088307
     56          1           0      -24.330853    6.312596    0.662437
     57          1           0      -22.119719   -0.778653    5.870503
     58          1           0      -21.537049   -2.426502    6.054471
     59          1           0      -23.230001   -2.172424    6.206307
     60          1           0      -23.862008   -4.402253    6.056244
     61          1           0      -22.010296   -4.678368    6.033521
     62          1           0      -23.160743   -5.950867    5.954840
     63          1           0      -24.747392   -5.231971   -1.198623
     64          1           0      -22.874830   -4.465150   -3.358290
     65          1           0      -22.187239   -6.192827   -2.231224
     66          1           0      -23.442138   -6.773579   -1.139920
     67          1           0      -21.964763   -5.781390   -0.601079
     68          1           0      -25.191737   -3.226431   -4.250415
     69          1           0      -25.952481   -4.334940   -3.024538
     70          1           0      -25.878657   -5.745839   -4.651662
     71          1           0      -24.192784   -5.927197   -4.558934
     72          1           0      -24.846126   -4.779238   -5.753365
     73          1           0      -21.922731   -0.426806   -5.756699
     74          1           0      -21.000326    1.067727   -5.761802
     75          1           0      -22.795586    0.987545   -5.983372
     76          1           0      -23.286428    4.429965   -1.815157
     77          1           0      -19.705927    6.787055   -1.865967
     78          1           0      -20.340688    7.139038   -0.251299
     79          1           0      -20.922237    7.912593   -1.894610
     80         12           0       23.183284   -0.583573    0.104784
     81          6           0       21.219616    2.180312    1.062828
     82          6           0       25.677557    1.548422   -0.769228
     83          6           0       24.979541   -3.264250   -0.908811
     84          6           0       20.425266   -2.633626    0.603942
     85          7           0       23.387585    1.579590    0.047254
     86          6           0       22.502220    2.511972    0.594940
     87          6           0       23.148059    3.864887    0.604355
     88          6           0       24.308029    3.687438   -0.403987
     89          6           0       24.476941    2.146437   -0.376191
     90          6           0       24.067032    4.162298   -1.871712
     91          6           0       23.628759    4.387615    2.010284
     92          6           0       23.232801    5.797259    2.315121
     93          1           0       24.322330    6.702439    2.919739
     94          7           0       25.060583   -0.804837   -0.604824
     95          6           0       26.011376    0.205757   -0.824460
     96          6           0       27.227365   -0.360562   -1.254117
     97          6           0       27.067694   -1.824838   -1.306343
     98          6           0       25.697268   -2.018042   -0.926675
     99          6           0       28.432062    0.400619   -1.724894
    100          6           0       28.040048   -2.998189   -1.760948
    101          8           0       27.690961   -4.153064   -1.696909
    102          6           0       29.470835   -2.707888   -2.191232
    103          7           0       22.718548   -2.643246   -0.222675
    104          6           0       23.648050   -3.529038   -0.665277
    105          6           0       22.995631   -4.985801   -0.815451
    106          6           0       21.614729   -4.837614   -0.038751
    107          6           0       21.559516   -3.260037    0.133892
    108          6           0       22.790487   -5.502554   -2.266313
    109          6           0       21.561430   -5.598400    1.333843
    110          6           0       20.387024   -6.480549    1.413051
    111          7           0       21.208663   -0.308218    0.659434
    112          6           0       20.224669   -1.258680    0.927307
    113          6           0       19.039351   -0.609470    1.417416
    114          6           0       19.375525    0.728332    1.457975
    115          6           0       20.659392    0.872966    1.035677
    116          6           0       17.777577   -1.397296    1.856518
    117          6           0       18.880635    2.059360    1.757932
    118          8           0       17.750364    2.387951    2.043924
    119          6           0       20.087193    3.087510    1.483010
    120          6           0       19.665757    4.054771    0.453125
    121          8           0       19.283925    3.742207   -0.705153
    122          8           0       19.726644    5.307520    0.989531
    123          6           0       18.982218    6.339860    0.220686
    124          1           0       26.416493    2.294970   -1.067588
    125          1           0       25.481057   -4.178400   -1.232744
    126          1           0       19.549303   -3.279501    0.687487
    127          1           0       22.540319    4.649919    0.152755
    128          1           0       25.225062    4.196231   -0.106367
    129          1           0       23.422843    5.038794   -1.952875
    130          1           0       23.645293    3.314727   -2.412572
    131          1           0       24.963482    4.354271   -2.460757
    132          1           0       24.709568    4.247687    2.006959
    133          1           0       23.291016    3.736567    2.817142
    134          1           0       22.395678    5.634560    2.994167
    135          1           0       22.962384    6.308359    1.391225
    136          1           0       29.282361    0.408694   -1.042610
    137          1           0       28.176859    1.456446   -1.806005
    138          1           0       28.868191    0.135645   -2.687682
    139          1           0       29.944759   -3.682118   -2.304693
    140          1           0       29.959396   -2.005204   -1.515584
    141          1           0       29.466312   -2.069857   -3.075457
    142          1           0       23.667633   -5.737164   -0.400441
    143          1           0       20.813883   -5.174181   -0.698819
    144          1           0       23.033792   -4.805993   -3.069300
    145          1           0       21.764894   -5.812007   -2.469089
    146          1           0       23.423388   -6.383721   -2.374897
    147          1           0       21.449478   -4.864035    2.132383
    148          1           0       22.420439   -6.239217    1.531671
    149          1           0       20.704524   -7.500040    1.192538
    150          1           0       19.497125   -6.232918    0.835462
    151          1           0       19.965003   -6.428856    2.416768
    152          1           0       18.049052   -2.442317    2.007853
    153          1           0       16.936728   -1.212541    1.186416
    154          1           0       17.544937   -0.994519    2.841589
    155          1           0       20.379332    3.616270    2.390652
    156          1           0       18.959715    7.279169    0.772969
    157          1           0       17.947426    5.996673    0.221631
    158          1           0       19.430854    6.375036   -0.772477
 ---------------------------------------------------------------------

 SCF Done:  E(RCAM-B3LYP) =  -4069.82790229     A.U. after   19 cycles

 Excitation energies and oscillator strengths:

 Excited State   1:      Singlet-A      1.6782 eV  738.80 nm  f=0.3944  <S**2>=0.000
     310 -> 315       -0.17298
     312 -> 314        0.68712
     310 <- 315       -0.10455
 This state for optimization and/or second-order correction.
 Total Energy, E(TD-HF/TD-DFT) =  -4069.76622989
 Copying the excited state density for this state as the 1-particle RhoCI density.

 Excited State   2:      Singlet-A      1.7437 eV  711.03 nm  f=0.3957  <S**2>=0.000
     309 -> 316       -0.17838
     311 -> 313        0.68464
     309 <- 316       -0.10695

 Excited State   3:      Singlet-A      2.1968 eV  564.39 nm  f=0.1149  <S**2>=0.000
     310 -> 314        0.64503
     312 -> 315        0.27384

 Excited State   4:      Singlet-A      2.2018 eV  563.10 nm  f=0.1648  <S**2>=0.000
     309 -> 313        0.65385
     311 -> 316        0.24974

 Excited State   5:      Singlet-A      3.0385 eV  408.04 nm  f=0.0000  <S**2>=0.000
     312 -> 313        0.70710

 The electronic state is 1-A.
 Alpha  occ. eigenvalues --  -46.89089 -46.87168 -19.25647 -19.24426 -19.19875
 Alpha  occ. eigenvalues --  -19.19764 -19.19501 -19.19268 -19.19178 -19.19024
 Alpha  occ. eigenvalues --  -14.42162 -14.42049 -14.41712 -14.41489 -14.40092
 Alpha  occ. eigenvalues --  -14.39276 -14.39174 -14.38542 -10.39416 -10.39332
 Alpha  occ. eigenvalues --  -10.36329 -10.35452 -10.35375 -10.35025 -10.32166
 Alpha  occ. eigenvalues --  -10.31965 -10.31178 -10.31128 -10.31036 -10.30963
 Alpha  occ. eigenvalues --  -10.30939 -10.30622 -10.30616 -10.30607 -10.30606
 Alpha  occ. eigenvalues --  -10.30424 -10.30056 -10.29906 -10.29510 -10.29318
 Alpha  occ. eigenvalues --  -10.29085 -10.29029 -10.28927 -10.28656 -10.28565
 Alpha  occ. eigenvalues --  -10.28376 -10.28142 -10.28123 -10.28049 -10.28018
 Alpha  occ. eigenvalues --  -10.27888 -10.27851 -10.27754 -10.27748 -10.27745
 Alpha  occ. eigenvalues --  -10.27742 -10.27641 -10.27629 -10.27599 -10.27586
 Alpha  occ. eigenvalues --  -10.27569 -10.27536 -10.27397 -10.27370 -10.27207
 Alpha  occ. eigenvalues --  -10.26937 -10.26768 -10.26715 -10.26499 -10.26490
 Alpha  occ. eigenvalues --  -10.26467 -10.26339 -10.26265 -10.26200 -10.26108
 Alpha  occ. eigenvalues --  -10.26073 -10.25780 -10.25699 -10.25499 -10.25479
 Alpha  occ. eigenvalues --  -10.25323 -10.25234 -10.24982 -10.24746 -10.24643
 Alpha  occ. eigenvalues --  -10.24342  -3.17487  -3.15896  -1.92400  -1.91901
 Alpha  occ. eigenvalues --   -1.91819  -1.90801  -1.90340  -1.90221  -1.15764
 Alpha  occ. eigenvalues --   -1.15745  -1.11696  -1.10431  -1.10310  -1.09981
 Alpha  occ. eigenvalues --   -1.06835  -1.06321  -1.04930  -1.04293  -1.03330
 Alpha  occ. eigenvalues --   -1.02760  -1.02610  -1.02541  -1.01599  -1.01414
 Alpha  occ. eigenvalues --   -0.93341  -0.92568  -0.89241  -0.89196  -0.88755
 Alpha  occ. eigenvalues --   -0.88650  -0.88018  -0.87938  -0.87080  -0.87016
 Alpha  occ. eigenvalues --   -0.86826  -0.86403  -0.85814  -0.85569  -0.84301
 Alpha  occ. eigenvalues --   -0.84282  -0.83855  -0.83818  -0.82895  -0.82700
 Alpha  occ. eigenvalues --   -0.82356  -0.82099  -0.81181  -0.80867  -0.80652
 Alpha  occ. eigenvalues --   -0.79993  -0.78223  -0.78070  -0.77310  -0.77233
 Alpha  occ. eigenvalues --   -0.76786  -0.76764  -0.75929  -0.75722  -0.74871
 Alpha  occ. eigenvalues --   -0.74509  -0.72870  -0.72507  -0.70979  -0.70917
 Alpha  occ. eigenvalues --   -0.69033  -0.68597  -0.68463  -0.68104  -0.67897
 Alpha  occ. eigenvalues --   -0.67579  -0.67044  -0.66532  -0.65503  -0.65398
 Alpha  occ. eigenvalues --   -0.65168  -0.64889  -0.64605  -0.64559  -0.64030
 Alpha  occ. eigenvalues --   -0.63868  -0.62099  -0.61933  -0.60309  -0.60105
 Alpha  occ. eigenvalues --   -0.60096  -0.59618  -0.59237  -0.59065  -0.58766
 Alpha  occ. eigenvalues --   -0.58323  -0.58196  -0.57677  -0.57611  -0.57609
 Alpha  occ. eigenvalues --   -0.56148  -0.55859  -0.55738  -0.55669  -0.55493
 Alpha  occ. eigenvalues --   -0.55059  -0.54981  -0.54746  -0.53830  -0.53605
 Alpha  occ. eigenvalues --   -0.53572  -0.53546  -0.53423  -0.53388  -0.53290
 Alpha  occ. eigenvalues --   -0.52881  -0.52790  -0.52613  -0.52572  -0.51874
 Alpha  occ. eigenvalues --   -0.51860  -0.51810  -0.51694  -0.51544  -0.51347
 Alpha  occ. eigenvalues --   -0.51017  -0.50882  -0.50743  -0.50448  -0.50305
 Alpha  occ. eigenvalues --   -0.50097  -0.49800  -0.49791  -0.49590  -0.49440
 Alpha  occ. eigenvalues --   -0.49398  -0.49279  -0.49222  -0.49097  -0.48996
 Alpha  occ. eigenvalues --   -0.48704  -0.48618  -0.48137  -0.47938  -0.47833
 Alpha  occ. eigenvalues --   -0.47664  -0.47370  -0.47245  -0.47103  -0.46775
 Alpha  occ. eigenvalues --   -0.46704  -0.46633  -0.46445  -0.46369  -0.46134
 Alpha  occ. eigenvalues --   -0.46005  -0.45858  -0.45835  -0.45761  -0.45394
 Alpha  occ. eigenvalues --   -0.45205  -0.45071  -0.44961  -0.44732  -0.44706
 Alpha  occ. eigenvalues --   -0.44662  -0.44443  -0.44422  -0.44363  -0.44323
 Alpha  occ. eigenvalues --   -0.44191  -0.43566  -0.43387  -0.43371  -0.43343
 Alpha  occ. eigenvalues --   -0.43149  -0.43010  -0.42906  -0.42861  -0.42775
 Alpha  occ. eigenvalues --   -0.42602  -0.42592  -0.42334  -0.42268  -0.41927
 Alpha  occ. eigenvalues --   -0.41867  -0.41852  -0.41501  -0.41216  -0.41212
 Alpha  occ. eigenvalues --   -0.41040  -0.40937  -0.40469  -0.40408  -0.40060
 Alpha  occ. eigenvalues --   -0.39948  -0.39142  -0.38900  -0.38829  -0.38438
 Alpha  occ. eigenvalues --   -0.38342  -0.37996  -0.37933  -0.37835  -0.37817
 Alpha  occ. eigenvalues --   -0.37730  -0.36744  -0.36420  -0.36319  -0.36280
 Alpha  occ. eigenvalues --   -0.35977  -0.35818  -0.34335  -0.34233  -0.34127
 Alpha  occ. eigenvalues --   -0.34059  -0.33142  -0.32590  -0.31750  -0.31548
 Alpha  occ. eigenvalues --   -0.31430  -0.31259  -0.31247  -0.30845  -0.30248
 Alpha  occ. eigenvalues --   -0.29972  -0.29957  -0.29549  -0.23956  -0.23776
 Alpha  occ. eigenvalues --   -0.21515  -0.20909
 Alpha virt. eigenvalues --   -0.08999  -0.08642  -0.01436  -0.01256   0.00212
 Alpha virt. eigenvalues --    0.00751   0.01851   0.02536   0.02806   0.03459
 Alpha virt. eigenvalues --    0.04521   0.05163   0.05233   0.05417   0.05899

 Mulliken charges:
               1
     1  Mg  11.999571
     2  C    6.029259
     3  C    5.987349
     4  C    5.970282
     5  C    6.011591
     6  N    7.014892
     7  C    5.961785
     8  C    6.005828
     9  C    5.987231
    10  C    6.032707
    11  C    5.997763
    12  C    6.004702
    13  C    6.000020
    14  H    0.992771
    15  N    6.990626
    16  C    6.045778
    17  C    6.017429
    18  C    6.019870
    19  C    6.036331
    20  C    5.996008
    21  C    6.014138
    22  O    8.030914
    23  C    5.991502
    24  N    6.992713
    25  C    6.037845
    26  C    5.991310
    27  C    6.012546
    28  C    5.970348
    29  C    5.997306
    30  C    6.004864
    31  C    6.001997
    32  N    7.004342
    33  C    5.958592
    34  C    5.970382
    35  C    5.997621
    36  C    5.959393
    37  C    6.004809
    38  C    5.981966
    39  O    7.972006
    40  C    5.998916
    41  C    5.996554
    42  O    7.992248
    43  O    7.999446
    44  C    6.001712
    45  H    1.013452
    46  H    1.001371
    47  H    0.988132
    48  H    1.002753
    49  H    1.007336
    50  H    0.998832
    51  H    0.999307
    52  H    1.014131
    53  H    0.989690
    54  H    1.008150
    55  H    0.996518
    56  H    1.004515
    57  H    1.018018
    58  H    1.018836
    59  H    1.018414
    60  H    1.007688
    61  H    1.007929
    62  H    1.016030
    63  H    0.998833
    64  H    0.995897
    65  H    1.009623
    66  H    1.000364
    67  H    0.994870
    68  H    1.005136
    69  H    0.989669
    70  H    0.994068
    71  H    0.994058
    72  H    1.001425
    73  H    0.980276
    74  H    0.979981
    75  H    0.977562
    76  H    0.992493
    77  H    0.999360
    78  H    0.992863
    79  H    0.997156
    80  Mg  11.999993
    81  C    5.999979
    82  C    6.000070
    83  C    5.999957
    84  C    5.999954
    85  N    6.999994
    86  C    5.999978
    87  C    6.000027
    88  C    5.999979
    89  C    6.000016
    90  C    5.999988
    91  C    5.999999
    92  C    5.999999
    93  H    0.999986
    94  N    7.000004
    95  C    6.000010
    96  C    6.000016
    97  C    6.000041
    98  C    6.000042
    99  C    5.999978
   100  C    6.000015
   101  O    8.000022
   102  C    6.000005
   103  N    7.000023
   104  C    6.000012
   105  C    5.999994
   106  C    6.000011
   107  C    5.999978
   108  C    5.999995
   109  C    6.000017
   110  C    6.000013
   111  N    7.000011
   112  C    5.999959
   113  C    5.999967
   114  C    6.000006
   115  C    5.999989
   116  C    6.000001
   117  C    5.999969
   118  O    7.999968
   119  C    5.999998
   120  C    6.000009
   121  O    8.000029
   122  O    7.999984
   123  C    5.999989
   124  H    1.000019
   125  H    1.000005
   126  H    0.999982
   127  H    1.000020
   128  H    1.000005
   129  H    1.000051
   130  H    1.000016
   131  H    1.000014
   132  H    0.999976
   133  H    0.999984
   134  H    0.999993
   135  H    1.000026
   136  H    1.000026
   137  H    1.000037
   138  H    1.000047
   139  H    1.000011
   140  H    0.999998
   141  H    1.000028
   142  H    0.999977
   143  H    1.000003
   144  H    1.000023
   145  H    1.000021
   146  H    0.999991
   147  H    0.999986
   148  H    0.999963
   149  H    0.999976
   150  H    1.000015
   151  H    0.999956
   152  H    0.999947
   153  H    0.999988
   154  H    0.999931
   155  H    0.999973
   156  H    0.999995
   157  H    1.000015
   158  H    1.000023
 Sum of Mulliken charges = 624.00000

 Dipole moment (field-independent basis, Debye):
    X=             -0.3552    Y=             -4.8065    Z=             10.0361  Tot=             11.1334
 Quadrupole moment (field-independent basis, Debye-Ang):
   XX=             16.4102   YY=              4.8154   ZZ=              2.8832
   XY=            107.8561   XZ=           -226.4129   YZ=             -9.0071

 Normal termination of Gaussian 16 at Wed Sep 22 20:28:38 2021.
