 Gaussian 16, Revision A.03,
 Gaussian 16:  ES64L-G16RevA.03 25-Dec-2016

 -----------------------------------
 #p cam-b3lyp/Def2SVP td=(nstates=5)
 -----------------------------------

 --------------------------------
 TDDFT excited states in gaussian
 --------------------------------
 Symbolic Z-matrix:
 Charge =  0 Multiplicity = 1

                         Standard orientation:
 ---------------------------------------------------------------------
 Center     Atomic      Atomic             Coordinates (Angstroms)
 Number     Number       Type             X           Y           Z
 ---------------------------------------------------------------------
      1         12           0       30.520671    0.459069    0.550200
      2          6           0       30.606636   -2.550198   -1.285853
      3          6           0       29.042923    1.974298   -2.157521
      4          6           0       30.473045    3.382859    2.202382
      5          6           0       32.529541   -0.970282    3.033058
      6          7           0       29.820451   -0.313120   -1.371960
      7          6           0       29.904099   -1.498642   -1.968894
      8          6           0       29.276672   -1.608983   -3.374145
      9          6           0       29.090080   -0.034792   -3.625779
     10          6           0       29.384724    0.602777   -2.289986
     11          6           0       29.975195    0.514827   -4.717945
     12          6           0       27.869345   -2.425736   -3.417851
     13          6           0       27.590250   -3.069205   -4.779286
     14          1           0       27.472446   -4.614617   -4.738124
     15          7           0       29.697608    2.416027    0.167039
     16          6           0       29.162195    2.828637   -1.078223
     17          6           0       28.544974    4.117198   -0.858273
     18          6           0       28.922179    4.547387    0.410683
     19          6           0       29.720969    3.437221    1.018350
     20          6           0       27.839420    4.912636   -1.940361
     21          6           0       28.601653    5.809169    1.178752
     22          8           0       28.977903    5.928755    2.308115
     23          6           0       27.756588    6.899519    0.599494
     24          7           0       31.528021    1.188578    2.246709
     25          6           0       31.288252    2.420352    2.782400
     26          6           0       32.058247    2.467174    4.131352
     27          6           0       32.177569    1.027783    4.599157
     28          6           0       32.105920    0.320418    3.225377
     29          6           0       33.455373    3.039591    3.896360
     30          6           0       31.136835    0.600659    5.566858
     31          6           0       29.692313    0.932049    5.284683
     32          7           0       31.387816   -1.378882    0.885947
     33          6           0       32.185293   -1.837400    1.917583
     34          6           0       32.521070   -3.247402    1.666064
     35          6           0       31.898803   -3.552077    0.442939
     36          6           0       31.246483   -2.423625    0.026940
     37          6           0       33.370530   -4.103855    2.502037
     38          6           0       31.553262   -4.605578   -0.473376
     39          8           0       31.825672   -5.841874   -0.455133
     40          6           0       30.654519   -3.954419   -1.628064
     41          6           0       31.407379   -4.157402   -2.917375
     42          8           0       32.570175   -3.907619   -3.036609
     43          8           0       30.629597   -4.613056   -4.016174
     44          6           0       31.291645   -4.502894   -5.351606
     45          1           0       28.620831    2.486077   -3.024247
     46          1           0       30.567703    4.337666    2.724459
     47          1           0       33.004330   -1.526665    3.844229
     48          1           0       29.951973   -2.143423   -4.043473
     49          1           0       28.041279    0.059689   -3.909882
     50          1           0       29.357878    0.554576   -5.615264
     51          1           0       30.908474   -0.038275   -4.825732
     52          1           0       30.105643    1.561612   -4.443687
     53          1           0       27.042257   -1.748889   -3.201370
     54          1           0       27.836863   -3.176558   -2.628092
     55          1           0       28.428917   -2.697873   -5.368587
     56          1           0       26.713663   -2.640247   -5.264390
     57          1           0       27.596108    4.171013   -2.700269
     58          1           0       28.637180    5.542420   -2.333096
     59          1           0       26.930449    5.393657   -1.578554
     60          1           0       26.787018    6.401662    0.621108
     61          1           0       27.995752    7.161226   -0.430885
     62          1           0       27.788844    7.783639    1.237122
     63          1           0       31.618363    3.106513    4.895976
     64          1           0       33.100859    0.782621    5.123018
     65          1           0       34.313930    2.369635    3.848971
     66          1           0       33.644339    3.765727    4.686937
     67          1           0       33.431941    3.607841    2.965801
     68          1           0       31.362004    0.934455    6.580041
     69          1           0       31.224580   -0.485573    5.579305
     70          1           0       29.207435   -0.022611    5.078663
     71          1           0       29.369663    1.598912    4.484575
     72          1           0       29.245861    1.303797    6.206818
     73          1           0       34.398382   -3.752842    2.410946
     74          1           0       33.191583   -5.105075    2.110235
     75          1           0       33.115566   -4.010296    3.558517
     76          1           0       29.694810   -4.464869   -1.545350
     77          1           0       32.011831   -5.310211   -5.484172
     78          1           0       31.800225   -3.549499   -5.501818
     79          1           0       30.645429   -4.643401   -6.217599
     80         12           0      -31.068499   -0.471651   -0.042387
     81          6           0      -28.080133    1.317670   -0.174874
     82          6           0      -29.739084   -2.426341    2.466880
     83          6           0      -33.997763   -1.950505   -0.015858
     84          6           0      -32.652836    2.264352   -1.855313
     85          7           0      -29.011723   -0.541592    0.987859
     86          6           0      -27.952745    0.301362    0.799128
     87          6           0      -26.796283   -0.099804    1.644350
     88          6           0      -27.355581   -1.285212    2.527945
     89          6           0      -28.825008   -1.475119    1.983391
     90          6           0      -26.448564   -2.540482    2.577546
     91          6           0      -26.251236    1.058195    2.515208
     92          6           0      -24.742722    1.211995    2.329231
     93          1           0      -23.856710    1.215942    3.611406
     94          7           0      -31.761712   -2.012059    1.059899
     95          6           0      -31.068531   -2.740423    2.025565
     96          6           0      -31.977987   -3.801857    2.437492
     97          6           0      -33.242318   -3.709012    1.689848
     98          6           0      -33.030944   -2.538970    0.780124
     99          6           0      -31.701629   -4.678232    3.554378
    100          6           0      -34.411714   -4.543663    2.012515
    101          8           0      -34.417418   -5.413250    2.858515
    102          6           0      -35.759011   -4.354354    1.407686
    103          7           0      -32.968225    0.102557   -0.767154
    104          6           0      -33.953931   -0.846795   -0.862933
    105          6           0      -35.178058   -0.261123   -1.534589
    106          6           0      -34.874970    1.186260   -1.646138
    107          6           0      -33.457882    1.238058   -1.355008
    108          6           0      -35.626931   -0.989579   -2.867136
    109          6           0      -35.589236    2.052767   -0.552796
    110          6           0      -35.917729    3.426484   -0.917202
    111          7           0      -30.520482    1.420039   -0.900144
    112          6           0      -31.227787    2.371394   -1.646832
    113          6           0      -30.299671    3.284537   -2.236443
    114          6           0      -29.072428    2.956453   -1.672560
    115          6           0      -29.259484    1.814737   -0.814278
    116          6           0      -30.683512    4.359305   -3.185303
    117          6           0      -27.718452    3.336638   -1.590075
    118          8           0      -27.129244    4.244908   -2.132212
    119          6           0      -27.022316    2.291652   -0.689851
    120          6           0      -25.915981    1.674046   -1.438213
    121          8           0      -26.013792    0.698299   -2.201332
    122          8           0      -24.779926    2.436711   -1.292624
    123          6           0      -23.517045    1.986409   -1.854877
    124          1           0      -29.232822   -3.043670    3.211163
    125          1           0      -35.030816   -2.304288   -0.060588
    126          1           0      -33.164857    3.047667   -2.418120
    127          1           0      -26.135250   -0.628254    0.956840
    128          1           0      -27.444372   -1.036077    3.584923
    129          1           0      -25.486359   -2.143133    2.252213
    130          1           0      -26.794765   -3.415925    2.028039
    131          1           0      -26.340678   -2.878141    3.608009
    132          1           0      -26.339104    0.886765    3.587893
    133          1           0      -26.801878    1.949082    2.213737
    134          1           0      -24.717044    2.238764    1.964583
    135          1           0      -24.437975    0.500773    1.562928
    136          1           0      -30.709547   -4.434792    3.935255
    137          1           0      -31.629216   -5.741073    3.321730
    138          1           0      -32.422943   -4.486958    4.349651
    139          1           0      -35.467549   -4.281764    0.359871
    140          1           0      -36.173631   -3.412954    1.769145
    141          1           0      -36.399430   -5.217796    1.589075
    142          1           0      -35.970205   -0.462875   -0.814488
    143          1           0      -34.950737    1.649006   -2.630176
    144          1           0      -35.081245   -1.924841   -2.993474
    145          1           0      -35.637547   -0.357588   -3.755840
    146          1           0      -36.632521   -1.405354   -2.810123
    147          1           0      -34.986230    2.050020    0.355294
    148          1           0      -36.536008    1.598476   -0.261085
    149          1           0      -36.891474    3.432577   -1.408184
    150          1           0      -35.146954    3.886313   -1.536602
    151          1           0      -36.163091    3.994696   -0.019385
    152          1           0      -31.459802    4.020552   -3.871261
    153          1           0      -29.845152    4.779567   -3.741082
    154          1           0      -31.178910    5.093767   -2.550216
    155          1           0      -26.476525    2.742521    0.139069
    156          1           0      -23.375511    2.019984   -2.935177
    157          1           0      -23.293078    0.984722   -1.488609
    158          1           0      -22.793407    2.712203   -1.485692
 ---------------------------------------------------------------------

 SCF Done:  E(RCAM-B3LYP) =  -4069.77630741     A.U. after   18 cycles

 Excitation energies and oscillator strengths:

 Excited State   1:      Singlet-A      1.6751 eV  740.15 nm  f=0.3638  <S**2>=0.000
     309 -> 315       -0.18826
     311 -> 313        0.68338
     309 <- 315       -0.11090
 This state for optimization and/or second-order correction.
 Total Energy, E(TD-HF/TD-DFT) =  -4069.71474794
 Copying the excited state density for this state as the 1-particle RhoCI density.

 Excited State   2:      Singlet-A      1.6958 eV  731.13 nm  f=0.3737  <S**2>=0.000
     310 -> 316       -0.17410
     312 -> 314        0.68767
     310 <- 316       -0.10609

 Excited State   3:      Singlet-A      2.1842 eV  567.65 nm  f=0.1194  <S**2>=0.000
     310 -> 314        0.64715
     312 -> 316        0.27037

 Excited State   4:      Singlet-A      2.1859 eV  567.19 nm  f=0.1018  <S**2>=0.000
     309 -> 313        0.63556
     311 -> 315        0.29757

 Excited State   5:      Singlet-A      3.1706 eV  391.05 nm  f=0.0000  <S**2>=0.000
     312 -> 313        0.70711

 The electronic state is 1-A.
 Alpha  occ. eigenvalues --  -46.88967 -46.88628 -19.24897 -19.24503 -19.20048
 Alpha  occ. eigenvalues --  -19.19391 -19.19087 -19.18382 -19.18246 -19.17403
 Alpha  occ. eigenvalues --  -14.43420 -14.42350 -14.41955 -14.41345 -14.40292
 Alpha  occ. eigenvalues --  -14.39712 -14.39193 -14.39061 -10.39403 -10.39117
 Alpha  occ. eigenvalues --  -10.35192 -10.34746 -10.34235 -10.33727 -10.31855
 Alpha  occ. eigenvalues --  -10.31706 -10.31687 -10.31645 -10.31597 -10.31593
 Alpha  occ. eigenvalues --  -10.31277 -10.31126 -10.31087 -10.31075 -10.30954
 Alpha  occ. eigenvalues --  -10.30614 -10.30524 -10.30497 -10.29890 -10.29443
 Alpha  occ. eigenvalues --  -10.29394 -10.29116 -10.29012 -10.28861 -10.28809
 Alpha  occ. eigenvalues --  -10.28579 -10.28571 -10.28397 -10.28392 -10.28372
 Alpha  occ. eigenvalues --  -10.28342 -10.28315 -10.28248 -10.28242 -10.28205
 Alpha  occ. eigenvalues --  -10.28148 -10.28133 -10.27993 -10.27836 -10.27534
 Alpha  occ. eigenvalues --  -10.27384 -10.27318 -10.27232 -10.27230 -10.27201
 Alpha  occ. eigenvalues --  -10.27164 -10.27131 -10.27125 -10.26818 -10.26699
 Alpha  occ. eigenvalues --  -10.26656 -10.26595 -10.26492 -10.26464 -10.26421
 Alpha  occ. eigenvalues --  -10.26247 -10.25626 -10.25574 -10.25402 -10.25208
 Alpha  occ. eigenvalues --  -10.25122 -10.25111 -10.24887 -10.24747 -10.24467
 Alpha  occ. eigenvalues --  -10.24431  -3.17457  -3.17123  -1.92360  -1.92045
 Alpha  occ. eigenvalues --   -1.91921  -1.91747  -1.91555  -1.91440  -1.15618
 Alpha  occ. eigenvalues --   -1.15477  -1.12123  -1.10082  -1.09866  -1.07386
 Alpha  occ. eigenvalues --   -1.06736  -1.06659  -1.05303  -1.05009  -1.03826
 Alpha  occ. eigenvalues --   -1.03544  -1.03012  -1.02940  -1.01774  -1.01596
 Alpha  occ. eigenvalues --   -0.92957  -0.92678  -0.90788  -0.90054  -0.89618
 Alpha  occ. eigenvalues --   -0.89445  -0.89074  -0.88839  -0.87854  -0.87733
 Alpha  occ. eigenvalues --   -0.87266  -0.86941  -0.86320  -0.86226  -0.85287
 Alpha  occ. eigenvalues --   -0.84712  -0.84567  -0.83579  -0.83481  -0.82635
 Alpha  occ. eigenvalues --   -0.82596  -0.82479  -0.81434  -0.81119  -0.80848
 Alpha  occ. eigenvalues --   -0.79928  -0.78918  -0.78693  -0.78001  -0.77353
 Alpha  occ. eigenvalues --   -0.77144  -0.77112  -0.76332  -0.76291  -0.75407
 Alpha  occ. eigenvalues --   -0.74995  -0.73433  -0.72463  -0.72058  -0.71339
 Alpha  occ. eigenvalues --   -0.69710  -0.69361  -0.69131  -0.68856  -0.68018
 Alpha  occ. eigenvalues --   -0.67848  -0.67540  -0.67129  -0.66490  -0.65955
 Alpha  occ. eigenvalues --   -0.65836  -0.65298  -0.64946  -0.64708  -0.64210
 Alpha  occ. eigenvalues --   -0.63415  -0.62058  -0.61774  -0.60763  -0.60390
 Alpha  occ. eigenvalues --   -0.59946  -0.59521  -0.59488  -0.59152  -0.58988
 Alpha  occ. eigenvalues --   -0.58985  -0.58615  -0.57940  -0.57600  -0.57437
 Alpha  occ. eigenvalues --   -0.56429  -0.56402  -0.55923  -0.55768  -0.55505
 Alpha  occ. eigenvalues --   -0.55167  -0.54792  -0.54548  -0.54458  -0.54268
 Alpha  occ. eigenvalues --   -0.54096  -0.53987  -0.53725  -0.53622  -0.53217
 Alpha  occ. eigenvalues --   -0.53051  -0.52855  -0.52573  -0.52442  -0.52314
 Alpha  occ. eigenvalues --   -0.52119  -0.51888  -0.51766  -0.51704  -0.51639
 Alpha  occ. eigenvalues --   -0.51535  -0.51308  -0.51254  -0.50848  -0.50739
 Alpha  occ. eigenvalues --   -0.50438  -0.50210  -0.50031  -0.50017  -0.49699
 Alpha  occ. eigenvalues --   -0.49680  -0.49593  -0.49410  -0.49215  -0.49143
 Alpha  occ. eigenvalues --   -0.49082  -0.48873  -0.48584  -0.48533  -0.48308
 Alpha  occ. eigenvalues --   -0.48228  -0.47741  -0.47657  -0.47643  -0.47182
 Alpha  occ. eigenvalues --   -0.47157  -0.47023  -0.46813  -0.46716  -0.46623
 Alpha  occ. eigenvalues --   -0.46362  -0.46338  -0.46232  -0.45885  -0.45762
 Alpha  occ. eigenvalues --   -0.45564  -0.45412  -0.45330  -0.45226  -0.44964
 Alpha  occ. eigenvalues --   -0.44957  -0.44610  -0.44503  -0.44327  -0.44177
 Alpha  occ. eigenvalues --   -0.44070  -0.43739  -0.43707  -0.43510  -0.43452
 Alpha  occ. eigenvalues --   -0.43254  -0.43163  -0.43114  -0.43085  -0.42989
 Alpha  occ. eigenvalues --   -0.42858  -0.42588  -0.42531  -0.42472  -0.42108
 Alpha  occ. eigenvalues --   -0.41829  -0.41686  -0.41609  -0.41565  -0.41356
 Alpha  occ. eigenvalues --   -0.41192  -0.41050  -0.40937  -0.40696  -0.40386
 Alpha  occ. eigenvalues --   -0.40286  -0.40279  -0.39754  -0.39530  -0.39234
 Alpha  occ. eigenvalues --   -0.38510  -0.38351  -0.37760  -0.37723  -0.37356
 Alpha  occ. eigenvalues --   -0.37292  -0.37135  -0.36996  -0.36437  -0.36409
 Alpha  occ. eigenvalues --   -0.36346  -0.36200  -0.34689  -0.34526  -0.34371
 Alpha  occ. eigenvalues --   -0.33738  -0.33213  -0.33052  -0.31720  -0.31406
 Alpha  occ. eigenvalues --   -0.31376  -0.30702  -0.30321  -0.30016  -0.29904
 Alpha  occ. eigenvalues --   -0.29679  -0.29463  -0.29336  -0.24332  -0.24150
 Alpha  occ. eigenvalues --   -0.21598  -0.21394
 Alpha virt. eigenvalues --   -0.09186  -0.08968  -0.02535  -0.01745   0.00226
 Alpha virt. eigenvalues --    0.00430   0.02166   0.02325   0.02652   0.03255
 Alpha virt. eigenvalues --    0.04060   0.04646   0.04969   0.05293   0.05434

 Mulliken charges:
               1
     1  Mg   0.813748
     2  C   -0.040329
     3  C   -0.100314
     4  C   -0.056105
     5  C   -0.065204
     6  N   -0.248687
     7  C   -0.044806
     8  C   -0.042239
     9  C   -0.088364
    10  C    0.097221
    11  C    0.104631
    12  C    0.047538
    13  C   -0.047301
    14  H    0.045016
    15  N   -0.365832
    16  C    0.130084
    17  C   -0.165504
    18  C   -0.010033
    19  C    0.115983
    20  C    0.118457
    21  C   -0.027537
    22  O   -0.177940
    23  C    0.053332
    24  N   -0.336417
    25  C    0.059158
    26  C   -0.036001
    27  C    0.001051
    28  C    0.092602
    29  C    0.078979
    30  C    0.053798
    31  C   -0.013974
    32  N   -0.352958
    33  C    0.068147
    34  C   -0.192109
    35  C    0.046567
    36  C    0.100702
    37  C    0.125868
    38  C    0.023008
    39  O   -0.217219
    40  C    0.037642
    41  C    0.193560
    42  O   -0.181814
    43  O   -0.372698
    44  C    0.178955
    45  H   -0.015777
    46  H   -0.006740
    47  H   -0.026811
    48  H    0.020222
    49  H    0.010235
    50  H    0.008612
    51  H    0.034973
    52  H    0.001629
    53  H    0.003178
    54  H    0.019051
    55  H    0.008183
    56  H    0.020935
    57  H    0.008450
    58  H    0.052494
    59  H    0.037126
    60  H    0.038111
    61  H    0.030885
    62  H    0.035322
    63  H   -0.003205
    64  H   -0.009957
    65  H    0.023923
    66  H    0.009691
    67  H    0.009334
    68  H    0.006471
    69  H   -0.008904
    70  H    0.008037
    71  H    0.038124
    72  H    0.006340
    73  H    0.030656
    74  H    0.042264
    75  H    0.013577
    76  H    0.046816
    77  H    0.037697
    78  H    0.032996
    79  H    0.033400
    80  Mg   0.816006
    81  C    0.061254
    82  C   -0.041720
    83  C   -0.115216
    84  C   -0.090459
    85  N   -0.274135
    86  C   -0.072866
    87  C    0.029118
    88  C   -0.105841
    89  C    0.020208
    90  C    0.061875
    91  C    0.063536
    92  C   -0.082822
    93  H    0.022977
    94  N   -0.454285
    95  C    0.183556
    96  C   -0.155236
    97  C   -0.020241
    98  C    0.249178
    99  C    0.147979
   100  C   -0.059482
   101  O   -0.208381
   102  C    0.069711
   103  N   -0.300517
   104  C    0.044355
   105  C   -0.028487
   106  C   -0.022862
   107  C    0.032438
   108  C    0.076698
   109  C    0.046887
   110  C    0.037668
   111  N   -0.321488
   112  C    0.100602
   113  C   -0.177558
   114  C    0.038588
   115  C    0.077966
   116  C    0.134571
   117  C    0.030827
   118  O   -0.149649
   119  C   -0.065418
   120  C    0.186041
   121  O   -0.240188
   122  O   -0.329528
   123  C    0.188561
   124  H   -0.024508
   125  H   -0.026432
   126  H   -0.025926
   127  H    0.025414
   128  H    0.016569
   129  H    0.017412
   130  H    0.029711
   131  H    0.010086
   132  H    0.027901
   133  H    0.028718
   134  H    0.041897
   135  H    0.032854
   136  H   -0.022421
   137  H    0.032767
   138  H    0.041409
   139  H    0.021173
   140  H    0.040057
   141  H    0.031095
   142  H    0.007563
   143  H    0.001025
   144  H    0.012650
   145  H    0.023870
   146  H    0.005955
   147  H    0.014791
   148  H   -0.004803
   149  H    0.004495
   150  H    0.009384
   151  H    0.010873
   152  H    0.014709
   153  H    0.043121
   154  H    0.027828
   155  H    0.023717
   156  H    0.040271
   157  H    0.029975
   158  H    0.032575
 Sum of Mulliken charges =  -0.00000

 Dipole moment (field-independent basis, Debye):
    X=             -5.4012    Y=              6.2848    Z=             -1.8979  Tot=              8.5015
 Quadrupole moment (field-independent basis, Debye-Ang):
   XX=           -596.0480   YY=           -572.1530   ZZ=           -484.4589
   XY=            123.4546   XZ=            -35.4991   YZ=             -1.1940

 Normal termination of Gaussian 16 at Tue Sep 14 16:44:31 2021.
