 Gaussian 16, Revision A.03,
 Gaussian 16:  ES64L-G16RevA.03 25-Dec-2016

 -----------------------------------
 #p cam-b3lyp/Def2SVP td=(nstates=5)
 -----------------------------------

 --------------------------------
 TDDFT excited states in gaussian
 --------------------------------
 Symbolic Z-matrix:
 Charge =  0 Multiplicity = 1

                         Standard orientation:
 ---------------------------------------------------------------------
 Center     Atomic      Atomic             Coordinates (Angstroms)
 Number     Number       Type             X           Y           Z
 ---------------------------------------------------------------------
      1         12           0       19.594344    0.346448    0.469574
      2          6           0       17.390172   -1.699111   -1.401607
      3          6           0       20.681734    1.580788   -2.614674
      4          6           0       21.620099    2.391936    2.048128
      5          6           0       18.947087   -1.581350    3.289960
      6          7           0       19.041547   -0.022876   -1.716527
      7          6           0       18.029795   -0.777318   -2.228685
      8          6           0       17.884535   -0.759214   -3.760015
      9          6           0       19.094691    0.255492   -4.083531
     10          6           0       19.623005    0.591694   -2.720431
     11          6           0       20.248000   -0.367134   -4.965789
     12          6           0       16.495525   -0.222361   -4.236528
     13          6           0       15.433186   -1.067840   -4.928182
     14          1           0       14.543818   -0.483685   -6.017808
     15          7           0       20.922425    1.855766   -0.160670
     16          6           0       21.289464    2.169473   -1.477271
     17          6           0       22.352402    3.147140   -1.407301
     18          6           0       22.533744    3.520007   -0.077748
     19          6           0       21.633705    2.618127    0.667154
     20          6           0       22.867027    3.728926   -2.679563
     21          6           0       23.498312    4.510670    0.573314
     22          8           0       23.575468    4.720829    1.787623
     23          6           0       24.288675    5.371160   -0.331863
     24          7           0       20.301288    0.365257    2.371727
     25          6           0       20.977204    1.436661    2.886489
     26          6           0       20.926068    1.436184    4.451991
     27          6           0       20.180316    0.146497    4.769198
     28          6           0       19.832245   -0.458269    3.380662
     29          6           0       22.328665    1.599595    5.123712
     30          6           0       18.947200    0.461160    5.629753
     31          6           0       18.657163   -0.412874    6.795329
     32          7           0       18.506130   -1.365461    0.899264
     33          6           0       18.306323   -2.022737    2.086854
     34          6           0       17.400828   -3.121482    1.930242
     35          6           0       16.878779   -3.023588    0.548384
     36          6           0       17.610443   -1.905488   -0.015799
     37          6           0       17.021328   -4.138172    3.020501
     38          6           0       15.967681   -3.579820   -0.483472
     39          8           0       15.078967   -4.443145   -0.387439
     40          6           0       16.278179   -2.721332   -1.778125
     41          6           0       16.699717   -3.810262   -2.714554
     42          8           0       17.812928   -4.299323   -2.864058
     43          8           0       15.719998   -4.142435   -3.509964
     44          6           0       15.866186   -5.313608   -4.408061
     45          1           0       20.809740    1.979199   -3.622981
     46          1           0       22.279843    2.977502    2.691286
     47          1           0       18.702618   -2.129610    4.201756
     48          1           0       18.120009   -1.759616   -4.125280
     49          1           0       18.854595    1.218947   -4.534273
     50          1           0       20.273632   -1.452758   -5.055880
     51          1           0       21.218103   -0.086596   -4.557042
     52          1           0       20.173280    0.050358   -5.970055
     53          1           0       16.705565    0.579576   -4.944444
     54          1           0       15.942899    0.191826   -3.394188
     55          1           0       14.743782   -1.229039   -4.099296
     56          1           0       16.016595   -1.930128   -5.251132
     57          1           0       22.691168    4.802254   -2.736506
     58          1           0       22.386652    3.269985   -3.544060
     59          1           0       23.941409    3.601128   -2.808216
     60          1           0       23.627374    5.827348   -1.068638
     61          1           0       24.954672    4.797278   -0.976388
     62          1           0       24.798404    6.197189    0.163045
     63          1           0       20.340091    2.333713    4.649237
     64          1           0       20.784609   -0.515288    5.389436
     65          1           0       23.130502    1.853289    4.430471
     66          1           0       22.673286    0.707369    5.645151
     67          1           0       22.257561    2.298101    5.957330
     68          1           0       18.134917    0.384721    4.908069
     69          1           0       18.950905    1.450655    6.086236
     70          1           0       17.635227   -0.754241    6.632035
     71          1           0       18.845308    0.123645    7.725250
     72          1           0       19.226850   -1.341892    6.826135
     73          1           0       17.709005   -4.981697    2.972471
     74          1           0       15.987630   -4.442530    2.857084
     75          1           0       17.127001   -3.724945    4.023823
     76          1           0       15.332584   -2.280804   -2.093648
     77          1           0       16.680864   -5.223280   -5.125726
     78          1           0       14.960488   -5.570149   -4.957253
     79          1           0       16.050611   -6.276842   -3.933367
     80         12           0      -19.539330   -0.547865   -0.454761
     81          6           0      -18.308591    2.879797   -0.417880
     82          6           0      -16.270046   -1.566634   -0.202830
     83          6           0      -20.611613   -3.379184    0.965188
     84          6           0      -22.699741    0.638366   -0.843347
     85          7           0      -17.525970    0.586362   -0.127780
     86          6           0      -17.270785    2.001620   -0.227056
     87          6           0      -15.759655    2.242425   -0.284279
     88          6           0      -15.155122    0.840442   -0.590595
     89          6           0      -16.358753   -0.164464   -0.316134
     90          6           0      -14.628068    0.683147   -2.094976
     91          6           0      -15.144257    3.018227    0.843455
     92          6           0      -15.965572    3.156560    2.147064
     93          1           0      -15.517055    3.840738    3.451360
     94          7           0      -18.567641   -2.324282    0.162935
     95          6           0      -17.205937   -2.527735    0.202306
     96          6           0      -16.960361   -3.947279    0.606412
     97          6           0      -18.206228   -4.392724    1.040651
     98          6           0      -19.216244   -3.365382    0.797723
     99          6           0      -15.585591   -4.515761    0.605667
    100          6           0      -18.464502   -5.778664    1.700301
    101          8           0      -17.500786   -6.487819    1.929285
    102          6           0      -19.788846   -6.242041    2.210030
    103          7           0      -21.416723   -1.148091    0.119820
    104          6           0      -21.581899   -2.460155    0.562090
    105          6           0      -23.063854   -2.818069    0.674308
    106          6           0      -23.754538   -1.686065   -0.169368
    107          6           0      -22.587561   -0.712155   -0.347119
    108          6           0      -23.519651   -4.231085    0.227849
    109          6           0      -25.029220   -1.038707    0.460854
    110          6           0      -26.421059   -1.436490   -0.213589
    111          7           0      -20.387126    1.353082   -0.688058
    112          6           0      -21.719131    1.662002   -0.922367
    113          6           0      -21.827025    3.062711   -1.248768
    114          6           0      -20.537094    3.538087   -0.976253
    115          6           0      -19.706860    2.433744   -0.662540
    116          6           0      -23.153642    3.758265   -1.599925
    117          6           0      -19.690357    4.691443   -0.979935
    118          8           0      -20.044659    5.841717   -1.308191
    119          6           0      -18.155129    4.329636   -0.757842
    120          6           0      -17.718591    5.235369    0.323459
    121          8           0      -18.293637    5.432613    1.399063
    122          8           0      -16.501933    5.710030   -0.039743
    123          6           0      -15.934585    6.801830    0.812181
    124          1           0      -15.231421   -1.887969   -0.105306
    125          1           0      -20.947397   -4.314996    1.417384
    126          1           0      -23.710301    0.970232   -1.089004
    127          1           0      -15.750926    2.838870   -1.196605
    128          1           0      -14.416558    0.525053    0.146607
    129          1           0      -13.549871    0.591076   -1.970300
    130          1           0      -14.946321    1.544676   -2.682479
    131          1           0      -15.043693   -0.259777   -2.452069
    132          1           0      -14.843293    3.976087    0.419551
    133          1           0      -14.233690    2.442103    1.011300
    134          1           0      -16.237342    2.133672    2.409623
    135          1           0      -16.882114    3.710398    1.942823
    136          1           0      -15.325667   -4.666679    1.653003
    137          1           0      -14.924351   -3.803549    0.113015
    138          1           0      -15.572696   -5.428414    0.008817
    139          1           0      -20.234570   -5.706350    3.047299
    140          1           0      -19.746147   -7.240943    2.643172
    141          1           0      -20.362568   -6.253727    1.283416
    142          1           0      -23.148215   -2.694058    1.754561
    143          1           0      -23.957252   -2.152374   -1.133762
    144          1           0      -23.664940   -4.923842    1.057372
    145          1           0      -22.742536   -4.687296   -0.384484
    146          1           0      -24.414340   -4.106586   -0.383155
    147          1           0      -25.003348    0.050433    0.505415
    148          1           0      -24.988713   -1.347993    1.505344
    149          1           0      -27.048733   -1.614672    0.659193
    150          1           0      -26.388068   -2.319925   -0.851384
    151          1           0      -26.693684   -0.615074   -0.875241
    152          1           0      -23.066859    4.619754   -2.262417
    153          1           0      -23.467300    4.102314   -0.614951
    154          1           0      -23.787456    3.088521   -2.180739
    155          1           0      -17.612294    4.480326   -1.692126
    156          1           0      -14.957341    7.089643    0.423004
    157          1           0      -15.793727    6.467314    1.840149
    158          1           0      -16.685541    7.583221    0.704390
 ---------------------------------------------------------------------

 SCF Done:  E(RCAM-B3LYP) =  -4069.77035307     A.U. after   19 cycles

 Excitation energies and oscillator strengths:

 Excited State   1:      Singlet-A      1.6563 eV  748.58 nm  f=0.3565  <S**2>=0.000
     309 -> 316        0.15660
     312 -> 313        0.69069
     309 <- 316        0.10157
 This state for optimization and/or second-order correction.
 Total Energy, E(TD-HF/TD-DFT) =  -4069.70948636
 Copying the excited state density for this state as the 1-particle RhoCI density.

 Excited State   2:      Singlet-A      1.7573 eV  705.56 nm  f=0.3829  <S**2>=0.000
     310 -> 315        0.18342
     311 -> 314        0.68373
     310 <- 315        0.10473

 Excited State   3:      Singlet-A      2.2202 eV  558.43 nm  f=0.1060  <S**2>=0.000
     310 -> 314        0.63626
     311 -> 315       -0.29385

 Excited State   4:      Singlet-A      2.2760 eV  544.74 nm  f=0.0762  <S**2>=0.000
     309 -> 313        0.61914
     312 -> 316       -0.32532

 Excited State   5:      Singlet-A      3.0891 eV  401.35 nm  f=0.0000  <S**2>=0.000
     312 -> 314        0.70710

 The electronic state is 1-A.
 Alpha  occ. eigenvalues --  -46.89295 -46.88536 -19.25355 -19.25316 -19.19590
 Alpha  occ. eigenvalues --  -19.19415 -19.19064 -19.18882 -19.18199 -19.17066
 Alpha  occ. eigenvalues --  -14.42593 -14.42459 -14.41912 -14.41537 -14.39832
 Alpha  occ. eigenvalues --  -14.39716 -14.38995 -14.38732 -10.39128 -10.38658
 Alpha  occ. eigenvalues --  -10.35983 -10.35490 -10.35451 -10.33526 -10.32122
 Alpha  occ. eigenvalues --  -10.31958 -10.31925 -10.31644 -10.31644 -10.31413
 Alpha  occ. eigenvalues --  -10.31120 -10.30995 -10.30921 -10.30865 -10.30802
 Alpha  occ. eigenvalues --  -10.30752 -10.30534 -10.30491 -10.29436 -10.29046
 Alpha  occ. eigenvalues --  -10.28997 -10.28868 -10.28825 -10.28777 -10.28745
 Alpha  occ. eigenvalues --  -10.28705 -10.28633 -10.28508 -10.28468 -10.28412
 Alpha  occ. eigenvalues --  -10.28383 -10.28047 -10.28038 -10.27959 -10.27887
 Alpha  occ. eigenvalues --  -10.27869 -10.27849 -10.27720 -10.27662 -10.27626
 Alpha  occ. eigenvalues --  -10.27599 -10.27547 -10.27528 -10.27289 -10.27226
 Alpha  occ. eigenvalues --  -10.27159 -10.27111 -10.27066 -10.26990 -10.26913
 Alpha  occ. eigenvalues --  -10.26881 -10.26775 -10.26532 -10.26511 -10.26413
 Alpha  occ. eigenvalues --  -10.26384 -10.26244 -10.26025 -10.25932 -10.25861
 Alpha  occ. eigenvalues --  -10.25832 -10.25698 -10.25650 -10.25231 -10.24868
 Alpha  occ. eigenvalues --  -10.23967  -3.17783  -3.17133  -1.92655  -1.92260
 Alpha  occ. eigenvalues --   -1.92065  -1.92033  -1.91589  -1.91436  -1.17808
 Alpha  occ. eigenvalues --   -1.16075  -1.10673  -1.10092  -1.08398  -1.07472
 Alpha  occ. eigenvalues --   -1.06670  -1.06499  -1.05484  -1.04828  -1.04018
 Alpha  occ. eigenvalues --   -1.04012  -1.02812  -1.02787  -1.01370  -1.00341
 Alpha  occ. eigenvalues --   -0.91927  -0.91855  -0.89585  -0.89337  -0.89052
 Alpha  occ. eigenvalues --   -0.88963  -0.88803  -0.88597  -0.87728  -0.86812
 Alpha  occ. eigenvalues --   -0.86768  -0.86638  -0.86075  -0.85119  -0.84365
 Alpha  occ. eigenvalues --   -0.84348  -0.83690  -0.83489  -0.82887  -0.82719
 Alpha  occ. eigenvalues --   -0.82706  -0.82342  -0.80957  -0.80839  -0.80526
 Alpha  occ. eigenvalues --   -0.80157  -0.78785  -0.78011  -0.77747  -0.77506
 Alpha  occ. eigenvalues --   -0.76884  -0.76480  -0.76201  -0.75989  -0.75238
 Alpha  occ. eigenvalues --   -0.75168  -0.73021  -0.72237  -0.71825  -0.71671
 Alpha  occ. eigenvalues --   -0.69628  -0.69235  -0.69001  -0.68210  -0.67622
 Alpha  occ. eigenvalues --   -0.67597  -0.66938  -0.66899  -0.66176  -0.65884
 Alpha  occ. eigenvalues --   -0.65356  -0.65292  -0.64874  -0.64654  -0.64212
 Alpha  occ. eigenvalues --   -0.63531  -0.62414  -0.62110  -0.60957  -0.59614
 Alpha  occ. eigenvalues --   -0.59522  -0.59107  -0.59035  -0.58992  -0.58507
 Alpha  occ. eigenvalues --   -0.58016  -0.57860  -0.57650  -0.57487  -0.57187
 Alpha  occ. eigenvalues --   -0.56761  -0.56708  -0.56272  -0.55651  -0.55166
 Alpha  occ. eigenvalues --   -0.54983  -0.54558  -0.54317  -0.54231  -0.54190
 Alpha  occ. eigenvalues --   -0.53850  -0.53657  -0.53565  -0.53444  -0.52929
 Alpha  occ. eigenvalues --   -0.52848  -0.52651  -0.52576  -0.52539  -0.52282
 Alpha  occ. eigenvalues --   -0.52148  -0.51825  -0.51432  -0.51367  -0.51196
 Alpha  occ. eigenvalues --   -0.51032  -0.50641  -0.50587  -0.50457  -0.50035
 Alpha  occ. eigenvalues --   -0.49964  -0.49892  -0.49750  -0.49654  -0.49519
 Alpha  occ. eigenvalues --   -0.49422  -0.49072  -0.48934  -0.48767  -0.48720
 Alpha  occ. eigenvalues --   -0.48508  -0.48338  -0.48200  -0.48103  -0.48042
 Alpha  occ. eigenvalues --   -0.47816  -0.47745  -0.47592  -0.47442  -0.47140
 Alpha  occ. eigenvalues --   -0.46897  -0.46780  -0.46643  -0.46535  -0.46328
 Alpha  occ. eigenvalues --   -0.46226  -0.46096  -0.45846  -0.45702  -0.45590
 Alpha  occ. eigenvalues --   -0.45460  -0.45448  -0.45181  -0.45175  -0.45036
 Alpha  occ. eigenvalues --   -0.44943  -0.44665  -0.44433  -0.44368  -0.44268
 Alpha  occ. eigenvalues --   -0.44027  -0.43977  -0.43933  -0.43467  -0.43405
 Alpha  occ. eigenvalues --   -0.43204  -0.43070  -0.42822  -0.42810  -0.42721
 Alpha  occ. eigenvalues --   -0.42546  -0.42429  -0.42267  -0.42111  -0.41914
 Alpha  occ. eigenvalues --   -0.41912  -0.41737  -0.41655  -0.41416  -0.41246
 Alpha  occ. eigenvalues --   -0.41063  -0.40837  -0.40754  -0.40428  -0.40083
 Alpha  occ. eigenvalues --   -0.39908  -0.39852  -0.39523  -0.39339  -0.39073
 Alpha  occ. eigenvalues --   -0.38494  -0.38453  -0.37933  -0.37395  -0.37248
 Alpha  occ. eigenvalues --   -0.37085  -0.36637  -0.36571  -0.36394  -0.36333
 Alpha  occ. eigenvalues --   -0.35858  -0.35828  -0.34461  -0.34369  -0.33814
 Alpha  occ. eigenvalues --   -0.33454  -0.33101  -0.32681  -0.31929  -0.31790
 Alpha  occ. eigenvalues --   -0.31515  -0.31158  -0.30614  -0.30324  -0.30093
 Alpha  occ. eigenvalues --   -0.29422  -0.29223  -0.28725  -0.24443  -0.23925
 Alpha  occ. eigenvalues --   -0.21190  -0.20743
 Alpha virt. eigenvalues --   -0.08574  -0.08531  -0.01873  -0.01781  -0.00203
 Alpha virt. eigenvalues --    0.00937   0.01482   0.02065   0.02509   0.02682
 Alpha virt. eigenvalues --    0.04894   0.05228   0.05419   0.05756   0.06121

 Mulliken charges:
               1
     1  Mg   0.832110
     2  C    0.053316
     3  C   -0.082052
     4  C   -0.070450
     5  C   -0.080603
     6  N   -0.209675
     7  C   -0.071938
     8  C    0.011126
     9  C   -0.072303
    10  C   -0.024600
    11  C    0.046704
    12  C    0.028510
    13  C   -0.068348
    14  H    0.027992
    15  N   -0.362211
    16  C    0.170265
    17  C   -0.116440
    18  C   -0.038001
    19  C    0.148180
    20  C    0.098553
    21  C    0.036643
    22  O   -0.200882
    23  C    0.053964
    24  N   -0.348562
    25  C   -0.000966
    26  C   -0.010940
    27  C   -0.014556
    28  C    0.090630
    29  C    0.058935
    30  C    0.000422
    31  C    0.009595
    32  N   -0.370107
    33  C    0.134146
    34  C   -0.185262
    35  C   -0.007960
    36  C    0.094237
    37  C    0.119453
    38  C    0.044307
    39  O   -0.191212
    40  C   -0.048609
    41  C    0.168005
    42  O   -0.239934
    43  O   -0.279011
    44  C    0.189687
    45  H   -0.020179
    46  H   -0.008651
    47  H   -0.032226
    48  H    0.036455
    49  H    0.020257
    50  H    0.030110
    51  H    0.017495
    52  H    0.014701
    53  H    0.014804
    54  H    0.008451
    55  H    0.040732
    56  H    0.030053
    57  H    0.032436
    58  H    0.010813
    59  H    0.024893
    60  H    0.019489
    61  H    0.028245
    62  H    0.034476
    63  H    0.027683
    64  H    0.006929
    65  H    0.037048
    66  H    0.003351
    67  H    0.012722
    68  H    0.013010
    69  H    0.007198
    70  H    0.015192
    71  H    0.020914
    72  H    0.005612
    73  H    0.033377
    74  H    0.038382
    75  H    0.005126
    76  H    0.046494
    77  H    0.033299
    78  H    0.033805
    79  H    0.035346
    80  Mg   0.820328
    81  C   -0.030359
    82  C   -0.063561
    83  C   -0.071139
    84  C   -0.075662
    85  N   -0.309261
    86  C   -0.098363
    87  C    0.032400
    88  C   -0.088981
    89  C    0.018002
    90  C    0.083153
    91  C    0.077561
    92  C   -0.046991
    93  H    0.019770
    94  N   -0.391665
    95  C    0.125446
    96  C   -0.145325
    97  C   -0.034498
    98  C    0.142982
    99  C    0.154398
   100  C   -0.013486
   101  O   -0.198060
   102  C    0.066659
   103  N   -0.314483
   104  C    0.069869
   105  C   -0.078983
   106  C    0.038572
   107  C   -0.001211
   108  C    0.080939
   109  C    0.022883
   110  C   -0.006870
   111  N   -0.284793
   112  C    0.084264
   113  C   -0.172596
   114  C    0.043271
   115  C    0.082280
   116  C    0.114727
   117  C    0.003066
   118  O   -0.216465
   119  C    0.045285
   120  C    0.197711
   121  O   -0.231867
   122  O   -0.339253
   123  C    0.180681
   124  H   -0.019344
   125  H   -0.063776
   126  H   -0.033516
   127  H    0.001466
   128  H    0.014805
   129  H    0.026275
   130  H    0.028973
   131  H    0.019954
   132  H    0.006688
   133  H   -0.007970
   134  H    0.024317
   135  H    0.048657
   136  H    0.049616
   137  H   -0.000614
   138  H    0.036285
   139  H    0.054899
   140  H    0.021138
   141  H    0.037884
   142  H    0.025850
   143  H    0.005547
   144  H    0.018963
   145  H    0.015444
   146  H    0.020803
   147  H    0.021143
   148  H   -0.000057
   149  H    0.029346
   150  H    0.015082
   151  H    0.025929
   152  H    0.027685
   153  H    0.049091
   154  H    0.018913
   155  H    0.043752
   156  H    0.041283
   157  H    0.050548
   158  H    0.054568
 Sum of Mulliken charges =  -0.00000

 Dipole moment (field-independent basis, Debye):
    X=              1.2461    Y=              0.0841    Z=             -4.5975  Tot=              4.7641
 Quadrupole moment (field-independent basis, Debye-Ang):
   XX=           -403.4588   YY=           -556.6719   ZZ=           -478.5034
   XY=            179.0502   XZ=            -18.3830   YZ=             -5.8456

 Normal termination of Gaussian 16 at Thu Sep 16 07:54:07 2021.
