 Gaussian 16, Revision A.03,
 Gaussian 16:  ES64L-G16RevA.03 25-Dec-2016

 -----------------------------------
 #p cam-b3lyp/Def2SVP td=(nstates=5)
 -----------------------------------

 --------------------------------
 TDDFT excited states in gaussian
 --------------------------------
 Symbolic Z-matrix:
 Charge =  0 Multiplicity = 1

                         Standard orientation:
 ---------------------------------------------------------------------
 Center     Atomic      Atomic             Coordinates (Angstroms)
 Number     Number       Type             X           Y           Z
 ---------------------------------------------------------------------
      1         12           0      -11.690931    0.371301   -0.301990
      2          6           0       -9.690490   -2.497823   -0.434791
      3          6           0      -14.032663   -1.614115    1.290207
      4          6           0      -13.524467    3.117454    0.186672
      5          6           0       -8.910503    2.321748   -1.129856
      6          7           0      -11.706504   -1.902359    0.545448
      7          6           0      -10.819359   -2.868694    0.240418
      8          6           0      -11.190383   -4.224903    0.790566
      9          6           0      -12.710923   -3.902991    1.052984
     10          6           0      -12.870849   -2.386463    1.022919
     11          6           0      -13.583667   -4.510815   -0.077354
     12          6           0      -10.273231   -4.626339    1.952744
     13          6           0       -9.838448   -3.568372    2.988192
     14          1           0       -9.999247   -3.962479    4.451649
     15          7           0      -13.502341    0.707961    0.586947
     16          6           0      -14.341340   -0.263516    1.064893
     17          6           0      -15.702358    0.282389    1.147003
     18          6           0      -15.580743    1.720238    0.983723
     19          6           0      -14.158158    1.882702    0.554435
     20          6           0      -16.921542   -0.544525    1.708702
     21          6           0      -16.675616    2.766696    1.205641
     22          8           0      -17.807395    2.430854    1.417874
     23          6           0      -16.347325    4.228862    1.111981
     24          7           0      -11.152092    2.476866   -0.259592
     25          6           0      -12.132527    3.479019   -0.138008
     26          6           0      -11.553939    4.941058   -0.354726
     27          6           0      -10.062349    4.616744   -0.843164
     28          6           0      -10.035589    3.020885   -0.784439
     29          6           0      -12.328931    5.991563   -1.296871
     30          6           0       -8.860978    5.303789   -0.047136
     31          6           0       -7.637354    5.627405   -1.039115
     32          7           0       -9.680188    0.044319   -0.768300
     33          6           0       -8.701819    0.930443   -1.171007
     34          6           0       -7.503592    0.185262   -1.537382
     35          6           0       -7.808078   -1.187262   -1.346542
     36          6           0       -9.139352   -1.216962   -0.794302
     37          6           0       -6.259655    0.744087   -2.177084
     38          6           0       -7.335573   -2.610129   -1.349584
     39          8           0       -6.235481   -3.068567   -1.563437
     40          6           0       -8.567721   -3.456836   -0.814981
     41          6           0       -8.955925   -4.395964   -1.923763
     42          8           0       -8.325658   -5.444885   -2.208946
     43          8           0      -10.173000   -4.003100   -2.461493
     44          6           0      -10.772748   -4.929251   -3.362913
     45          1           0      -14.809283   -2.257286    1.709514
     46          1           0      -14.080877    4.054377    0.112547
     47          1           0       -8.117626    2.925529   -1.576515
     48          1           0      -11.188888   -4.989693    0.014138
     49          1           0      -13.150445   -4.244374    1.989223
     50          1           0      -14.420084   -3.823814   -0.208215
     51          1           0      -13.849100   -5.540974    0.155936
     52          1           0      -13.199932   -4.521302   -1.098004
     53          1           0       -9.334748   -4.932002    1.491256
     54          1           0      -10.729990   -5.472416    2.466330
     55          1           0      -10.452555   -2.677333    2.860079
     56          1           0       -8.775305   -3.375609    2.847328
     57          1           0      -16.949303   -0.647750    2.793789
     58          1           0      -16.927240   -1.536507    1.256869
     59          1           0      -17.911462   -0.196761    1.415620
     60          1           0      -17.176893    4.855312    1.441442
     61          1           0      -16.066076    4.542168    0.106378
     62          1           0      -15.583813    4.333189    1.883325
     63          1           0      -11.564013    5.288582    0.677657
     64          1           0       -9.930358    4.876358   -1.893140
     65          1           0      -13.022449    6.539733   -0.660249
     66          1           0      -12.860167    5.488382   -2.104295
     67          1           0      -11.591724    6.651629   -1.754430
     68          1           0       -8.412098    4.607743    0.661384
     69          1           0       -9.203252    6.183339    0.498714
     70          1           0       -6.738937    5.087198   -0.740302
     71          1           0       -7.423020    6.695387   -1.012259
     72          1           0       -7.703904    5.315208   -2.080757
     73          1           0       -5.841848    1.499241   -1.512151
     74          1           0       -6.517547    1.218924   -3.123964
     75          1           0       -5.489085   -0.013616   -2.318295
     76          1           0       -8.134057   -4.081902   -0.034703
     77          1           0      -11.760538   -4.565846   -3.645373
     78          1           0      -10.749130   -5.942744   -2.962071
     79          1           0      -10.267732   -4.945761   -4.328685
     80         12           0       11.001420    0.865377   -0.324024
     81          6           0       12.064153   -2.575350    0.381397
     82          6           0        7.926324   -0.146717    0.900366
     83          6           0       10.350630    3.959841    0.089050
     84          6           0       14.459234    1.489186   -1.076459
     85          7           0       10.160356   -1.206963    0.702032
     86          6           0       10.752930   -2.440239    0.863734
     87          6           0        9.767942   -3.394048    1.633680
     88          6           0        8.398832   -2.699751    1.530252
     89          6           0        8.840420   -1.275877    1.018927
     90          6           0        7.314863   -3.304116    0.544028
     91          6           0       10.225106   -3.725229    3.095599
     92          6           0        9.999427   -5.146206    3.565392
     93          1           0        8.777560   -5.388712    4.506027
     94          7           0        9.353376    1.789028    0.265998
     95          6           0        8.151978    1.244117    0.629645
     96          6           0        7.183321    2.327497    0.951800
     97          6           0        7.911513    3.526264    0.735103
     98          6           0        9.270986    3.118613    0.389280
     99          6           0        5.750118    2.163782    1.483630
    100          6           0        7.493398    4.965656    1.048890
    101          8           0        6.344185    5.142892    1.443867
    102          6           0        8.316101    6.098933    0.887552
    103          7           0       12.352189    2.497589   -0.222930
    104          6           0       11.698583    3.711963   -0.290803
    105          6           0       12.769300    4.825449   -0.611778
    106          6           0       14.122809    4.030328   -0.668566
    107          6           0       13.595160    2.578351   -0.759408
    108          6           0       12.498064    5.673935   -1.884384
    109          6           0       15.182910    4.242049    0.486287
    110          6           0       16.077004    5.492792    0.427161
    111          7           0       12.920658   -0.238179   -0.416837
    112          6           0       14.172263    0.140450   -0.859672
    113          6           0       15.062880   -0.987830   -0.984547
    114          6           0       14.260055   -2.094305   -0.515971
    115          6           0       12.959408   -1.631236   -0.111596
    116          6           0       16.493903   -0.887019   -1.414650
    117          6           0       14.310243   -3.457445   -0.226764
    118          8           0       15.251274   -4.238916   -0.196374
    119          6           0       12.970742   -3.819157    0.477945
    120          6           0       12.401151   -4.948552   -0.348375
    121          8           0       11.983191   -6.002376    0.137789
    122          8           0       12.216175   -4.658202   -1.759933
    123          6           0       11.345478   -5.629785   -2.419810
    124          1           0        6.926978   -0.455248    1.212748
    125          1           0       10.224653    5.041641    0.009771
    126          1           0       15.445885    1.822016   -1.405131
    127          1           0        9.615299   -4.290314    1.030732
    128          1           0        7.957038   -2.526561    2.511533
    129          1           0        6.583391   -3.777463    1.198663
    130          1           0        7.742063   -4.091732   -0.075990
    131          1           0        6.868464   -2.597596   -0.155652
    132          1           0        9.680081   -3.191462    3.874571
    133          1           0       11.296170   -3.553880    3.205262
    134          1           0       10.941597   -5.491937    3.990737
    135          1           0        9.811362   -5.756879    2.681748
    136          1           0        5.095092    2.895196    1.009517
    137          1           0        5.857765    2.285371    2.561402
    138          1           0        5.343158    1.189203    1.217490
    139          1           0        8.502491    6.230304   -0.178806
    140          1           0        9.230202    6.090328    1.481305
    141          1           0        7.701452    6.864435    1.362408
    142          1           0       12.882873    5.565367    0.179802
    143          1           0       14.632951    4.182973   -1.619339
    144          1           0       13.383356    5.542833   -2.506768
    145          1           0       12.402868    6.717132   -1.584707
    146          1           0       11.578953    5.243693   -2.284042
    147          1           0       15.809263    3.352103    0.416679
    148          1           0       14.690378    4.347272    1.453176
    149          1           0       15.768004    5.914056   -0.529908
    150          1           0       17.125119    5.223138    0.289749
    151          1           0       15.964057    6.222929    1.228197
    152          1           0       16.954563   -0.191147   -0.714699
    153          1           0       16.623844   -0.407086   -2.384474
    154          1           0       17.051328   -1.810121   -1.255261
    155          1           0       13.228545   -4.210412    1.461910
    156          1           0       11.016377   -4.956014   -3.211808
    157          1           0       10.630065   -6.077249   -1.729872
    158          1           0       12.004902   -6.360237   -2.888695
 ---------------------------------------------------------------------

 SCF Done:  E(RCAM-B3LYP) =  -4069.75274169     A.U. after   18 cycles

 Excitation energies and oscillator strengths:

 Excited State   1:      Singlet-A      1.7217 eV  720.14 nm  f=0.4682  <S**2>=0.000
     309 -> 315        0.19392
     311 -> 314        0.11113
     312 -> 313        0.67039
     309 <- 315        0.10878
 This state for optimization and/or second-order correction.
 Total Energy, E(TD-HF/TD-DFT) =  -4069.68947132
 Copying the excited state density for this state as the 1-particle RhoCI density.

 Excited State   2:      Singlet-A      1.7476 eV  709.47 nm  f=0.2581  <S**2>=0.000
     310 -> 316        0.19167
     311 -> 314        0.67157
     312 -> 313       -0.11008
     310 <- 316        0.10803

 Excited State   3:      Singlet-A      2.2373 eV  554.17 nm  f=0.0863  <S**2>=0.000
     310 -> 314        0.63192
     311 -> 316       -0.29724

 Excited State   4:      Singlet-A      2.2420 eV  553.01 nm  f=0.0847  <S**2>=0.000
     309 -> 313        0.61272
     312 -> 315       -0.32877

 Excited State   5:      Singlet-A      3.0332 eV  408.76 nm  f=0.0000  <S**2>=0.000
     311 -> 313        0.70698

 The electronic state is 1-A.
 Alpha  occ. eigenvalues --  -46.90673 -46.90432 -19.26084 -19.23604 -19.20059
 Alpha  occ. eigenvalues --  -19.19979 -19.19595 -19.19071 -19.18723 -19.17776
 Alpha  occ. eigenvalues --  -14.42619 -14.42295 -14.41930 -14.41848 -14.40723
 Alpha  occ. eigenvalues --  -14.40559 -14.39513 -14.39050 -10.40021 -10.39281
 Alpha  occ. eigenvalues --  -10.35836 -10.35337 -10.34867 -10.33415 -10.32867
 Alpha  occ. eigenvalues --  -10.32232 -10.32022 -10.31868 -10.31784 -10.31488
 Alpha  occ. eigenvalues --  -10.31434 -10.31283 -10.31167 -10.30928 -10.30888
 Alpha  occ. eigenvalues --  -10.30660 -10.30620 -10.30247 -10.29916 -10.29618
 Alpha  occ. eigenvalues --  -10.29585 -10.29568 -10.29307 -10.29303 -10.29146
 Alpha  occ. eigenvalues --  -10.28986 -10.28819 -10.28786 -10.28716 -10.28574
 Alpha  occ. eigenvalues --  -10.28569 -10.28479 -10.28430 -10.28428 -10.28337
 Alpha  occ. eigenvalues --  -10.28226 -10.28197 -10.28125 -10.28106 -10.28029
 Alpha  occ. eigenvalues --  -10.27995 -10.27947 -10.27829 -10.27811 -10.27776
 Alpha  occ. eigenvalues --  -10.27757 -10.27377 -10.27258 -10.26913 -10.26818
 Alpha  occ. eigenvalues --  -10.26789 -10.26768 -10.26688 -10.26589 -10.26553
 Alpha  occ. eigenvalues --  -10.26464 -10.26325 -10.26282 -10.26249 -10.26211
 Alpha  occ. eigenvalues --  -10.26185 -10.26105 -10.25995 -10.25927 -10.25794
 Alpha  occ. eigenvalues --  -10.25145  -3.19083  -3.18795  -1.93928  -1.93658
 Alpha  occ. eigenvalues --   -1.93591  -1.93349  -1.93270  -1.93085  -1.16501
 Alpha  occ. eigenvalues --   -1.13835  -1.11536  -1.10708  -1.10393  -1.08891
 Alpha  occ. eigenvalues --   -1.07096  -1.06237  -1.04946  -1.04823  -1.03924
 Alpha  occ. eigenvalues --   -1.03287  -1.03243  -1.02999  -1.01933  -1.00994
 Alpha  occ. eigenvalues --   -0.92795  -0.92553  -0.89056  -0.88913  -0.88843
 Alpha  occ. eigenvalues --   -0.88436  -0.88373  -0.87769  -0.87381  -0.86907
 Alpha  occ. eigenvalues --   -0.86842  -0.86089  -0.85848  -0.85700  -0.84936
 Alpha  occ. eigenvalues --   -0.84888  -0.83805  -0.83607  -0.83384  -0.82746
 Alpha  occ. eigenvalues --   -0.82437  -0.81914  -0.81067  -0.80845  -0.80405
 Alpha  occ. eigenvalues --   -0.79786  -0.78168  -0.77573  -0.77327  -0.77282
 Alpha  occ. eigenvalues --   -0.76928  -0.76742  -0.76454  -0.75723  -0.75359
 Alpha  occ. eigenvalues --   -0.75184  -0.72853  -0.72754  -0.72095  -0.71833
 Alpha  occ. eigenvalues --   -0.69964  -0.69437  -0.69070  -0.68525  -0.68260
 Alpha  occ. eigenvalues --   -0.67621  -0.67195  -0.66919  -0.65930  -0.65466
 Alpha  occ. eigenvalues --   -0.65298  -0.64967  -0.64933  -0.64876  -0.64668
 Alpha  occ. eigenvalues --   -0.63942  -0.63759  -0.61800  -0.60305  -0.60067
 Alpha  occ. eigenvalues --   -0.59726  -0.59312  -0.59177  -0.58995  -0.58839
 Alpha  occ. eigenvalues --   -0.58214  -0.57839  -0.57388  -0.57082  -0.56923
 Alpha  occ. eigenvalues --   -0.56667  -0.56331  -0.56130  -0.55529  -0.55520
 Alpha  occ. eigenvalues --   -0.55102  -0.54699  -0.54340  -0.54269  -0.53855
 Alpha  occ. eigenvalues --   -0.53708  -0.53707  -0.53454  -0.53251  -0.53212
 Alpha  occ. eigenvalues --   -0.53095  -0.52825  -0.52816  -0.52395  -0.51968
 Alpha  occ. eigenvalues --   -0.51884  -0.51672  -0.51645  -0.51474  -0.51352
 Alpha  occ. eigenvalues --   -0.51127  -0.50938  -0.50738  -0.50588  -0.50557
 Alpha  occ. eigenvalues --   -0.50082  -0.49975  -0.49810  -0.49761  -0.49753
 Alpha  occ. eigenvalues --   -0.49589  -0.49455  -0.49032  -0.48980  -0.48862
 Alpha  occ. eigenvalues --   -0.48724  -0.48569  -0.48416  -0.48312  -0.48061
 Alpha  occ. eigenvalues --   -0.47882  -0.47633  -0.47608  -0.47350  -0.47271
 Alpha  occ. eigenvalues --   -0.47183  -0.46983  -0.46707  -0.46648  -0.46412
 Alpha  occ. eigenvalues --   -0.46357  -0.46121  -0.46044  -0.45809  -0.45724
 Alpha  occ. eigenvalues --   -0.45595  -0.45368  -0.45287  -0.45242  -0.44924
 Alpha  occ. eigenvalues --   -0.44891  -0.44606  -0.44370  -0.44291  -0.44234
 Alpha  occ. eigenvalues --   -0.44050  -0.43989  -0.43899  -0.43720  -0.43676
 Alpha  occ. eigenvalues --   -0.43509  -0.43420  -0.43302  -0.43096  -0.43023
 Alpha  occ. eigenvalues --   -0.42824  -0.42490  -0.42379  -0.42265  -0.42251
 Alpha  occ. eigenvalues --   -0.42203  -0.42041  -0.41988  -0.41838  -0.41766
 Alpha  occ. eigenvalues --   -0.41392  -0.41270  -0.41260  -0.40413  -0.40201
 Alpha  occ. eigenvalues --   -0.40099  -0.39953  -0.39902  -0.39205  -0.39127
 Alpha  occ. eigenvalues --   -0.38983  -0.38779  -0.38160  -0.37786  -0.37429
 Alpha  occ. eigenvalues --   -0.37314  -0.37230  -0.37068  -0.36828  -0.36355
 Alpha  occ. eigenvalues --   -0.36230  -0.35258  -0.34730  -0.34436  -0.34384
 Alpha  occ. eigenvalues --   -0.33774  -0.33196  -0.33104  -0.31680  -0.31411
 Alpha  occ. eigenvalues --   -0.31317  -0.31241  -0.30957  -0.30951  -0.30645
 Alpha  occ. eigenvalues --   -0.30066  -0.29774  -0.28655  -0.24382  -0.24072
 Alpha  occ. eigenvalues --   -0.21433  -0.21369
 Alpha virt. eigenvalues --   -0.08701  -0.08674  -0.02615  -0.02116  -0.00279
 Alpha virt. eigenvalues --    0.00052   0.00671   0.00729   0.01967   0.02248
 Alpha virt. eigenvalues --    0.04389   0.04472   0.04923   0.05452   0.05599

 Mulliken charges:
               1
     1  Mg   0.821451
     2  C    0.141388
     3  C   -0.072422
     4  C   -0.088169
     5  C   -0.079360
     6  N   -0.220284
     7  C   -0.143073
     8  C    0.066406
     9  C   -0.054775
    10  C   -0.010625
    11  C    0.063574
    12  C    0.064055
    13  C   -0.078564
    14  H    0.015574
    15  N   -0.372609
    16  C    0.163274
    17  C   -0.137135
    18  C   -0.058490
    19  C    0.190618
    20  C    0.093520
    21  C   -0.010302
    22  O   -0.168224
    23  C    0.051821
    24  N   -0.300596
    25  C   -0.020977
    26  C   -0.011938
    27  C   -0.040267
    28  C    0.044974
    29  C    0.055008
    30  C    0.036430
    31  C   -0.036865
    32  N   -0.352609
    33  C    0.125076
    34  C   -0.196560
    35  C    0.022369
    36  C    0.045474
    37  C    0.117935
    38  C    0.063934
    39  O   -0.137826
    40  C   -0.138978
    41  C    0.228298
    42  O   -0.237595
    43  O   -0.322876
    44  C    0.183473
    45  H   -0.018077
    46  H   -0.048377
    47  H   -0.045698
    48  H    0.002296
    49  H   -0.000391
    50  H    0.003860
    51  H    0.026753
    52  H    0.004856
    53  H    0.013013
    54  H    0.020397
    55  H    0.050722
    56  H    0.037365
    57  H    0.040253
    58  H    0.005511
    59  H    0.031912
    60  H    0.019408
    61  H    0.059876
    62  H    0.032499
    63  H    0.026113
    64  H    0.015613
    65  H    0.028296
    66  H    0.025932
    67  H    0.028378
    68  H    0.025603
    69  H    0.019088
    70  H    0.017315
    71  H    0.020805
    72  H    0.021607
    73  H    0.015830
    74  H    0.029752
    75  H    0.033840
    76  H    0.055727
    77  H    0.031292
    78  H    0.037738
    79  H    0.027358
    80  Mg   0.834479
    81  C   -0.008322
    82  C   -0.050793
    83  C   -0.075085
    84  C   -0.088014
    85  N   -0.224696
    86  C   -0.070800
    87  C    0.059398
    88  C   -0.071731
    89  C   -0.036619
    90  C    0.062035
    91  C    0.059737
    92  C   -0.072319
    93  H    0.008141
    94  N   -0.409465
    95  C    0.147762
    96  C   -0.174325
    97  C   -0.015507
    98  C    0.192246
    99  C    0.144532
   100  C   -0.033366
   101  O   -0.215910
   102  C    0.089349
   103  N   -0.319267
   104  C    0.023127
   105  C   -0.072959
   106  C   -0.047454
   107  C    0.019151
   108  C    0.084318
   109  C    0.042857
   110  C    0.012963
   111  N   -0.344558
   112  C    0.143206
   113  C   -0.151191
   114  C    0.030916
   115  C    0.129225
   116  C    0.139523
   117  C   -0.006514
   118  O   -0.179943
   119  C   -0.020490
   120  C    0.217680
   121  O   -0.226271
   122  O   -0.390083
   123  C    0.179627
   124  H   -0.025701
   125  H   -0.047215
   126  H   -0.028026
   127  H    0.012442
   128  H    0.017939
   129  H    0.027017
   130  H    0.015468
   131  H    0.029240
   132  H    0.025128
   133  H    0.018802
   134  H    0.034146
   135  H    0.030450
   136  H    0.044665
   137  H    0.045336
   138  H    0.009792
   139  H    0.053922
   140  H    0.041890
   141  H    0.027676
   142  H    0.008260
   143  H   -0.004014
   144  H    0.016773
   145  H    0.019814
   146  H    0.021313
   147  H    0.004909
   148  H    0.011154
   149  H   -0.004589
   150  H    0.017387
   151  H    0.028064
   152  H    0.012293
   153  H    0.024903
   154  H    0.037551
   155  H    0.040490
   156  H    0.031599
   157  H    0.053069
   158  H    0.033465
 Sum of Mulliken charges =  -0.00000

 Dipole moment (field-independent basis, Debye):
    X=             -4.4326    Y=              9.0049    Z=             -2.9955  Tot=             10.4742
 Quadrupole moment (field-independent basis, Debye-Ang):
   XX=           -537.6567   YY=           -510.4891   ZZ=           -506.4527
   XY=             91.8248   XZ=              7.5632   YZ=            -14.1726

 Normal termination of Gaussian 16 at Thu Sep  2 02:38:34 2021.
