 Gaussian 16, Revision A.03,
 Gaussian 16:  ES64L-G16RevA.03 25-Dec-2016

 ----------------------------------------------------------
 #p cam-b3lyp/Def2SVP td=(nstates=5) density=(transition=1)
 ----------------------------------------------------------

 --------------------------------
 TDDFT excited states in gaussian
 --------------------------------
 Symbolic Z-matrix:
 Charge =  0 Multiplicity = 1

                         Standard orientation:
 ---------------------------------------------------------------------
 Center     Atomic      Atomic             Coordinates (Angstroms)
 Number     Number       Type             X           Y           Z
 ---------------------------------------------------------------------
      1         12           0      -25.245411   -0.508861   -0.116631
      2          6           0      -21.781928   -1.261195   -0.456366
      3          6           0      -25.078625   -1.356067    3.198059
      4          6           0      -28.251116    1.201007    0.421090
      5          6           0      -25.189329    0.886916   -3.341089
      6          7           0      -23.420655   -1.006224    1.252593
      7          6           0      -22.222304   -1.478716    0.872523
      8          6           0      -21.637550   -2.322839    1.990148
      9          6           0      -22.667256   -2.308355    3.219956
     10          6           0      -23.877525   -1.610120    2.416038
     11          6           0      -22.958082   -3.765911    3.642716
     12          6           0      -20.261857   -1.814198    2.389947
     13          6           0      -20.059786   -0.280290    2.399132
     14          1           0      -19.965600    0.405976    3.789257
     15          7           0      -26.568660   -0.193594    1.587326
     16          6           0      -26.251676   -0.636609    2.853007
     17          6           0      -27.416655   -0.404363    3.647903
     18          6           0      -28.354351    0.428140    2.925891
     19          6           0      -27.788614    0.490882    1.554476
     20          6           0      -27.486280   -0.761926    5.114534
     21          6           0      -29.557414    1.190177    3.483865
     22          8           0      -29.796634    1.161092    4.675687
     23          6           0      -30.440633    1.973784    2.673144
     24          7           0      -26.493695    0.933756   -1.246942
     25          6           0      -27.696362    1.332531   -0.859935
     26          6           0      -28.386684    2.234481   -1.870115
     27          6           0      -27.205757    2.409473   -2.919114
     28          6           0      -26.261835    1.323501   -2.547136
     29          6           0      -29.714726    1.596785   -2.510361
     30          6           0      -26.624781    3.896975   -2.864198
     31          6           0      -26.825852    4.837677   -4.018393
     32          7           0      -23.942433   -0.446901   -1.645625
     33          6           0      -24.100707    0.047157   -2.956484
     34          6           0      -22.917001   -0.268433   -3.777629
     35          6           0      -22.045563   -0.788018   -2.820558
     36          6           0      -22.619231   -0.783204   -1.501214
     37          6           0      -22.721202   -0.167176   -5.329844
     38          6           0      -20.683486   -1.311804   -2.676430
     39          8           0      -19.761044   -1.513151   -3.483564
     40          6           0      -20.452701   -1.655410   -1.167827
     41          6           0      -19.350156   -0.702080   -0.859628
     42          8           0      -19.408819    0.494161   -0.985961
     43          8           0      -18.243973   -1.370443   -0.545994
     44          6           0      -17.020051   -0.610203   -0.112424
     45          1           0      -25.120778   -1.892387    4.148186
     46          1           0      -29.211734    1.719916    0.425141
     47          1           0      -25.237814    1.448297   -4.277047
     48          1           0      -21.562479   -3.266563    1.449866
     49          1           0      -22.309058   -1.710964    4.058782
     50          1           0      -22.657906   -3.882751    4.683842
     51          1           0      -22.402559   -4.519080    3.083344
     52          1           0      -24.038475   -3.886085    3.567287
     53          1           0      -19.511266   -2.227006    1.715871
     54          1           0      -20.024694   -2.115492    3.410695
     55          1           0      -20.863105    0.339548    2.001155
     56          1           0      -19.139625   -0.126306    1.835371
     57          1           0      -26.542944   -1.170487    5.477783
     58          1           0      -28.352230   -1.409959    5.254037
     59          1           0      -27.775207    0.140099    5.652817
     60          1           0      -29.988602    2.841766    2.192688
     61          1           0      -31.258239    2.346947    3.289591
     62          1           0      -30.748112    1.265707    1.902848
     63          1           0      -28.590671    3.239556   -1.501774
     64          1           0      -27.755345    2.369167   -3.859727
     65          1           0      -29.919474    0.634990   -2.039211
     66          1           0      -29.505321    1.410921   -3.563957
     67          1           0      -30.604804    2.227633   -2.493870
     68          1           0      -25.535167    3.894023   -2.833131
     69          1           0      -26.988048    4.425767   -1.984062
     70          1           0      -25.951453    4.941610   -4.660880
     71          1           0      -27.002551    5.761356   -3.466324
     72          1           0      -27.770321    4.717231   -4.549284
     73          1           0      -22.581106    0.884917   -5.576478
     74          1           0      -23.592075   -0.632030   -5.792294
     75          1           0      -21.789352   -0.668481   -5.590846
     76          1           0      -20.204083   -2.716889   -1.137775
     77          1           0      -16.415930   -0.266834   -0.952516
     78          1           0      -16.381741   -1.222498    0.525863
     79          1           0      -17.407095    0.224597    0.471848
     80         12           0       24.913502    0.393782   -0.028361
     81          6           0       21.962707   -1.179321   -0.652264
     82          6           0       26.606335   -2.599403   -0.138139
     83          6           0       27.742073    2.070839    0.776274
     84          6           0       23.080197    3.359968    0.548262
     85          7           0       24.301857   -1.696042   -0.141081
     86          6           0       23.114740   -2.032046   -0.712836
     87          6           0       23.075943   -3.433588   -1.220471
     88          6           0       24.553292   -3.918104   -0.780347
     89          6           0       25.223492   -2.666453   -0.316942
     90          6           0       24.522243   -5.030776    0.362906
     91          6           0       22.900439   -3.402213   -2.810143
     92          6           0       22.318226   -4.650691   -3.476433
     93          1           0       22.180937   -6.028992   -2.782935
     94          7           0       26.929523   -0.118744    0.189297
     95          6           0       27.416406   -1.434517    0.124681
     96          6           0       28.837739   -1.371226    0.374690
     97          6           0       29.183945   -0.025095    0.610136
     98          6           0       27.923867    0.692839    0.475992
     99          6           0       29.720345   -2.638860    0.297722
    100          6           0       30.629704    0.562960    1.035098
    101          8           0       30.869957    1.776025    1.082203
    102          6           0       31.834932   -0.296750    1.378692
    103          7           0       25.336427    2.496287    0.519904
    104          6           0       26.596848    2.879545    0.834605
    105          6           0       26.616853    4.273809    1.458915
    106          6           0       25.126747    4.826977    1.071527
    107          6           0       24.452893    3.536909    0.578310
    108          6           0       27.050191    4.351423    2.994106
    109          6           0       25.042614    5.860513   -0.163096
    110          6           0       24.263195    7.153982   -0.012786
    111          7           0       22.936231    1.065155   -0.078370
    112          6           0       22.338673    2.241999    0.178105
    113          6           0       20.874037    2.140426   -0.111959
    114          6           0       20.734526    0.786289   -0.498373
    115          6           0       22.003527    0.180690   -0.328545
    116          6           0       19.797282    3.166491   -0.075314
    117          6           0       19.737928   -0.123010   -0.924768
    118          8           0       18.517049    0.050215   -1.118215
    119          6           0       20.486500   -1.448315   -1.041912
    120          6           0       19.889737   -2.402529   -0.135530
    121          8           0       19.696712   -2.345852    1.038629
    122          8           0       19.649057   -3.549991   -0.885366
    123          6           0       19.079616   -4.810537   -0.272066
    124          1           0       27.235056   -3.459029   -0.377760
    125          1           0       28.640060    2.583415    1.128450
    126          1           0       22.435441    4.170609    0.892355
    127          1           0       22.336584   -4.150323   -0.863612
    128          1           0       25.102517   -4.332622   -1.625682
    129          1           0       25.292378   -5.799219    0.300034
    130          1           0       23.512392   -5.433323    0.440514
    131          1           0       24.712090   -4.508350    1.301091
    132          1           0       23.844317   -3.189196   -3.312336
    133          1           0       22.235910   -2.559843   -3.003946
    134          1           0       22.897028   -4.789134   -4.390505
    135          1           0       21.320280   -4.412786   -3.842709
    136          1           0       29.187096   -3.539010   -0.007731
    137          1           0       30.171223   -2.762428    1.281818
    138          1           0       30.529089   -2.421484   -0.400356
    139          1           0       32.120583   -0.753013    0.431612
    140          1           0       31.562853   -1.196084    1.931568
    141          1           0       32.545202    0.267049    1.983119
    142          1           0       27.331014    4.876004    0.896011
    143          1           0       24.648985    5.295665    1.932085
    144          1           0       26.268610    4.805262    3.603877
    145          1           0       27.980230    4.910142    3.092396
    146          1           0       27.176985    3.350934    3.408369
    147          1           0       24.715316    5.370701   -1.080073
    148          1           0       26.072054    6.127620   -0.399948
    149          1           0       23.518840    7.158946   -0.808273
    150          1           0       24.896921    8.039731   -0.046959
    151          1           0       23.696180    7.134006    0.918964
    152          1           0       20.135776    4.179753    0.140448
    153          1           0       19.056967    2.925976    0.688139
    154          1           0       19.300547    3.175293   -1.045303
    155          1           0       20.450553   -1.853900   -2.053425
    156          1           0       18.954470   -4.686128    0.803773
    157          1           0       19.784674   -5.632152   -0.405226
    158          1           0       18.125818   -4.970436   -0.774788
 ---------------------------------------------------------------------

 SCF Done:  E(RCAM-B3LYP) =  -4069.77029361     A.U. after   19 cycles

 Excitation energies and oscillator strengths:

 Excited State   1:      Singlet-A      1.6890 eV  734.08 nm  f=0.3565  <S**2>=0.000
     309 -> 315        0.20075
     311 -> 313        0.68047
     309 <- 315        0.11491
 This state for optimization and/or second-order correction.
 Total Energy, E(TD-HF/TD-DFT) =  -4069.70822501
 Copying the excited state density for this state as the 1-particle RhoCI density.

 Excited State   2:      Singlet-A      1.7389 eV  713.01 nm  f=0.3952  <S**2>=0.000
     310 -> 316       -0.19175
     312 -> 314        0.68292
     310 <- 316       -0.10976

 Excited State   3:      Singlet-A      2.1999 eV  563.59 nm  f=0.0721  <S**2>=0.000
     309 -> 313        0.61855
     311 -> 315       -0.32994

 Excited State   4:      Singlet-A      2.2287 eV  556.30 nm  f=0.1026  <S**2>=0.000
     310 -> 314        0.63902
     312 -> 316        0.29488

 Excited State   5:      Singlet-A      3.1789 eV  390.02 nm  f=0.0000  <S**2>=0.000
     312 -> 313        0.70710

 The electronic state is 1-A.
 Alpha  occ. eigenvalues --  -46.90206 -46.89398 -19.25066 -19.23681 -19.19589
 Alpha  occ. eigenvalues --  -19.19191 -19.18848 -19.18844 -19.18777 -19.18064
 Alpha  occ. eigenvalues --  -14.42475 -14.42424 -14.41968 -14.41668 -14.40133
 Alpha  occ. eigenvalues --  -14.39549 -14.39533 -14.39388 -10.38717 -10.38650
 Alpha  occ. eigenvalues --  -10.36227 -10.34961 -10.34472 -10.34316 -10.32447
 Alpha  occ. eigenvalues --  -10.32000 -10.31900 -10.31744 -10.31383 -10.30973
 Alpha  occ. eigenvalues --  -10.30922 -10.30732 -10.30699 -10.30673 -10.30642
 Alpha  occ. eigenvalues --  -10.30212 -10.29991 -10.29948 -10.29866 -10.29843
 Alpha  occ. eigenvalues --  -10.29743 -10.29011 -10.28852 -10.28848 -10.28812
 Alpha  occ. eigenvalues --  -10.28771 -10.28721 -10.28393 -10.28375 -10.28296
 Alpha  occ. eigenvalues --  -10.28247 -10.28185 -10.28184 -10.28148 -10.28092
 Alpha  occ. eigenvalues --  -10.28058 -10.27960 -10.27956 -10.27843 -10.27821
 Alpha  occ. eigenvalues --  -10.27664 -10.27513 -10.27458 -10.27434 -10.27396
 Alpha  occ. eigenvalues --  -10.27361 -10.27008 -10.26982 -10.26905 -10.26792
 Alpha  occ. eigenvalues --  -10.26660 -10.26584 -10.26434 -10.26408 -10.26207
 Alpha  occ. eigenvalues --  -10.26184 -10.26166 -10.26112 -10.26064 -10.25890
 Alpha  occ. eigenvalues --  -10.25779 -10.25632 -10.25512 -10.25359 -10.25043
 Alpha  occ. eigenvalues --  -10.24745  -3.18512  -3.17804  -1.93376  -1.92999
 Alpha  occ. eigenvalues --   -1.92789  -1.92724  -1.92242  -1.92116  -1.17053
 Alpha  occ. eigenvalues --   -1.15630  -1.10209  -1.09512  -1.08810  -1.08323
 Alpha  occ. eigenvalues --   -1.07694  -1.07200  -1.05560  -1.04595  -1.04457
 Alpha  occ. eigenvalues --   -1.03671  -1.03574  -1.02627  -1.02391  -1.01595
 Alpha  occ. eigenvalues --   -0.93491  -0.91938  -0.88945  -0.88811  -0.88606
 Alpha  occ. eigenvalues --   -0.88260  -0.88247  -0.87514  -0.87081  -0.87062
 Alpha  occ. eigenvalues --   -0.86903  -0.86219  -0.86113  -0.85350  -0.84679
 Alpha  occ. eigenvalues --   -0.84323  -0.84037  -0.83471  -0.82846  -0.82611
 Alpha  occ. eigenvalues --   -0.82362  -0.81606  -0.81186  -0.81086  -0.80297
 Alpha  occ. eigenvalues --   -0.80246  -0.78409  -0.77893  -0.77469  -0.77340
 Alpha  occ. eigenvalues --   -0.77121  -0.76381  -0.76291  -0.76200  -0.75185
 Alpha  occ. eigenvalues --   -0.74958  -0.72849  -0.72587  -0.71983  -0.71714
 Alpha  occ. eigenvalues --   -0.69255  -0.68892  -0.68636  -0.68519  -0.68222
 Alpha  occ. eigenvalues --   -0.68112  -0.66674  -0.65981  -0.65576  -0.65335
 Alpha  occ. eigenvalues --   -0.65202  -0.65186  -0.64747  -0.64512  -0.64249
 Alpha  occ. eigenvalues --   -0.64022  -0.62408  -0.61814  -0.60447  -0.60277
 Alpha  occ. eigenvalues --   -0.59923  -0.59264  -0.59180  -0.58971  -0.58793
 Alpha  occ. eigenvalues --   -0.58682  -0.58470  -0.57795  -0.57752  -0.57255
 Alpha  occ. eigenvalues --   -0.56307  -0.56024  -0.55833  -0.55499  -0.55291
 Alpha  occ. eigenvalues --   -0.55026  -0.54897  -0.54501  -0.54233  -0.53856
 Alpha  occ. eigenvalues --   -0.53768  -0.53525  -0.53049  -0.53041  -0.52973
 Alpha  occ. eigenvalues --   -0.52757  -0.52609  -0.52483  -0.52199  -0.52135
 Alpha  occ. eigenvalues --   -0.52011  -0.51742  -0.51692  -0.51628  -0.51517
 Alpha  occ. eigenvalues --   -0.51404  -0.50804  -0.50661  -0.50539  -0.50151
 Alpha  occ. eigenvalues --   -0.49802  -0.49794  -0.49700  -0.49679  -0.49473
 Alpha  occ. eigenvalues --   -0.49393  -0.49205  -0.49123  -0.48941  -0.48914
 Alpha  occ. eigenvalues --   -0.48499  -0.48304  -0.48248  -0.48143  -0.47949
 Alpha  occ. eigenvalues --   -0.47789  -0.47611  -0.47294  -0.47265  -0.46942
 Alpha  occ. eigenvalues --   -0.46925  -0.46892  -0.46589  -0.46587  -0.46455
 Alpha  occ. eigenvalues --   -0.46282  -0.46244  -0.46166  -0.45792  -0.45590
 Alpha  occ. eigenvalues --   -0.45581  -0.45298  -0.45186  -0.45171  -0.45086
 Alpha  occ. eigenvalues --   -0.44882  -0.44686  -0.44347  -0.44345  -0.44260
 Alpha  occ. eigenvalues --   -0.43977  -0.43938  -0.43895  -0.43689  -0.43665
 Alpha  occ. eigenvalues --   -0.43565  -0.43202  -0.43138  -0.42876  -0.42669
 Alpha  occ. eigenvalues --   -0.42379  -0.42321  -0.41985  -0.41744  -0.41628
 Alpha  occ. eigenvalues --   -0.41483  -0.41395  -0.41293  -0.41274  -0.41132
 Alpha  occ. eigenvalues --   -0.41050  -0.40848  -0.40809  -0.40205  -0.40110
 Alpha  occ. eigenvalues --   -0.40012  -0.39792  -0.39719  -0.39405  -0.38632
 Alpha  occ. eigenvalues --   -0.38417  -0.37979  -0.37783  -0.37533  -0.37408
 Alpha  occ. eigenvalues --   -0.37099  -0.36756  -0.36736  -0.36577  -0.36371
 Alpha  occ. eigenvalues --   -0.36072  -0.35697  -0.34488  -0.34237  -0.34229
 Alpha  occ. eigenvalues --   -0.34093  -0.33338  -0.33152  -0.31371  -0.31247
 Alpha  occ. eigenvalues --   -0.31097  -0.31018  -0.30733  -0.30668  -0.30264
 Alpha  occ. eigenvalues --   -0.30171  -0.30046  -0.28913  -0.24272  -0.23830
 Alpha  occ. eigenvalues --   -0.21306  -0.21129
 Alpha virt. eigenvalues --   -0.08757  -0.08511  -0.02545  -0.01698   0.00000
 Alpha virt. eigenvalues --    0.00276   0.01042   0.02311   0.02439   0.02796
 Alpha virt. eigenvalues --    0.04671   0.04796   0.05202   0.05336   0.06268

 Mulliken charges:
               1
     1  Mg  12.004991
     2  C    6.016880
     3  C    5.966929
     4  C    5.979847
     5  C    6.025885
     6  N    7.006821
     7  C    5.969263
     8  C    6.001156
     9  C    5.984783
    10  C    6.045414
    11  C    5.998783
    12  C    6.003007
    13  C    6.008062
    14  H    0.985979
    15  N    6.986480
    16  C    6.051178
    17  C    6.015962
    18  C    6.012160
    19  C    6.044159
    20  C    5.994990
    21  C    6.011375
    22  O    8.018275
    23  C    5.995557
    24  N    7.004115
    25  C    6.028891
    26  C    5.986730
    27  C    6.015997
    28  C    5.959126
    29  C    5.997096
    30  C    6.001062
    31  C    6.002027
    32  N    7.007484
    33  C    5.951210
    34  C    5.974064
    35  C    5.996812
    36  C    5.963608
    37  C    5.996661
    38  C    5.985350
    39  O    7.966728
    40  C    5.999329
    41  C    5.993262
    42  O    7.998010
    43  O    7.998567
    44  C    6.002154
    45  H    1.005639
    46  H    1.009704
    47  H    0.990892
    48  H    1.006003
    49  H    1.006927
    50  H    1.004885
    51  H    1.011420
    52  H    0.995916
    53  H    1.005067
    54  H    0.991757
    55  H    1.000154
    56  H    1.003891
    57  H    1.020112
    58  H    1.019888
    59  H    1.017244
    60  H    1.011455
    61  H    1.012614
    62  H    1.006640
    63  H    1.002249
    64  H    0.994622
    65  H    0.996442
    66  H    1.012816
    67  H    1.001710
    68  H    1.003592
    69  H    0.986026
    70  H    1.002573
    71  H    0.994675
    72  H    0.995097
    73  H    0.982778
    74  H    0.984529
    75  H    0.988573
    76  H    0.990046
    77  H    0.998175
    78  H    0.994019
    79  H    0.995651
    80  Mg  11.999982
    81  C    5.999772
    82  C    6.000181
    83  C    6.000183
    84  C    5.999873
    85  N    7.000004
    86  C    6.000339
    87  C    5.999844
    88  C    6.000114
    89  C    5.999722
    90  C    6.000025
    91  C    5.999974
    92  C    5.999985
    93  H    1.000049
    94  N    7.000036
    95  C    5.999587
    96  C    5.999911
    97  C    5.999810
    98  C    5.999751
    99  C    6.000036
   100  C    5.999885
   101  O    7.999768
   102  C    6.000029
   103  N    7.000020
   104  C    5.999749
   105  C    6.000097
   106  C    5.999922
   107  C    6.000216
   108  C    6.000023
   109  C    5.999923
   110  C    6.000003
   111  N    6.999967
   112  C    6.000350
   113  C    6.000221
   114  C    6.000031
   115  C    6.000265
   116  C    5.999910
   117  C    6.000197
   118  O    8.000299
   119  C    5.999946
   120  C    6.000047
   121  O    8.000025
   122  O    8.000015
   123  C    5.999984
   124  H    0.999912
   125  H    0.999907
   126  H    1.000069
   127  H    1.000054
   128  H    0.999975
   129  H    0.999974
   130  H    0.999895
   131  H    0.999979
   132  H    1.000086
   133  H    0.999955
   134  H    1.000034
   135  H    1.000021
   136  H    0.999849
   137  H    0.999835
   138  H    0.999848
   139  H    0.999932
   140  H    0.999935
   141  H    0.999859
   142  H    0.999983
   143  H    1.000020
   144  H    0.999897
   145  H    0.999968
   146  H    1.000022
   147  H    1.000018
   148  H    1.000088
   149  H    1.000011
   150  H    1.000024
   151  H    0.999996
   152  H    1.000157
   153  H    1.000193
   154  H    1.000196
   155  H    1.000112
   156  H    1.000017
   157  H    1.000030
   158  H    1.000079
 Sum of Mulliken charges = 624.00000

 Dipole moment (field-independent basis, Debye):
    X=             -6.9143    Y=              0.1420    Z=              7.9677  Tot=             10.5505
 Quadrupole moment (field-independent basis, Debye-Ang):
   XX=            335.0005   YY=              0.0163   ZZ=             -0.2664
   XY=             -1.3574   XZ=           -201.9226   YZ=             -2.3924

 Normal termination of Gaussian 16 at Tue Sep 21 20:02:46 2021.
