 Gaussian 16, Revision A.03,
 Gaussian 16:  ES64L-G16RevA.03 25-Dec-2016

 ----------------------------------------------------------
 #p cam-b3lyp/Def2SVP td=(nstates=5) density=(transition=1)
 ----------------------------------------------------------

 --------------------------------
 TDDFT excited states in gaussian
 --------------------------------
 Symbolic Z-matrix:
 Charge =  0 Multiplicity = 1

                         Standard orientation:
 ---------------------------------------------------------------------
 Center     Atomic      Atomic             Coordinates (Angstroms)
 Number     Number       Type             X           Y           Z
 ---------------------------------------------------------------------
      1         12           0       20.109035    0.437768    0.389192
      2          6           0       17.751443   -1.556555   -1.215065
      3          6           0       21.212534    1.559039   -2.590148
      4          6           0       22.641974    1.978123    2.013078
      5          6           0       19.253407   -1.119565    3.344256
      6          7           0       19.517525   -0.001632   -1.700880
      7          6           0       18.394642   -0.684895   -2.093104
      8          6           0       18.210886   -0.577293   -3.559176
      9          6           0       19.314453    0.356952   -4.068777
     10          6           0       20.096264    0.713732   -2.731832
     11          6           0       20.208359   -0.110848   -5.206760
     12          6           0       16.698801   -0.090558   -3.937048
     13          6           0       15.820464   -1.054201   -4.769020
     14          1           0       14.918633   -0.532149   -5.860379
     15          7           0       21.627914    1.698704   -0.184641
     16          6           0       21.945869    2.044222   -1.489542
     17          6           0       23.097937    2.870386   -1.495187
     18          6           0       23.546675    3.009672   -0.153831
     19          6           0       22.582403    2.228349    0.627414
     20          6           0       23.543398    3.524708   -2.861155
     21          6           0       24.809172    3.751737    0.281266
     22          8           0       25.244740    3.808797    1.441196
     23          6           0       25.559639    4.540700   -0.699481
     24          7           0       21.046414    0.281380    2.353020
     25          6           0       21.982482    1.083535    2.816453
     26          6           0       22.356151    0.716690    4.270386
     27          6           0       20.954408    0.131603    4.703534
     28          6           0       20.336426   -0.253881    3.363253
     29          6           0       23.503731   -0.317808    4.568954
     30          6           0       19.991073    1.098084    5.545750
     31          6           0       19.576600    2.372942    4.933362
     32          7           0       18.783199   -1.117125    1.052500
     33          6           0       18.527840   -1.648899    2.331720
     34          6           0       17.516958   -2.652989    2.233263
     35          6           0       17.220740   -2.714124    0.886137
     36          6           0       17.949620   -1.674858    0.220355
     37          6           0       17.130993   -3.591532    3.269052
     38          6           0       16.317821   -3.238065   -0.026903
     39          8           0       15.422865   -4.081090    0.093100
     40          6           0       16.652056   -2.612858   -1.457417
     41          6           0       17.223543   -3.736712   -2.257049
     42          8           0       18.193586   -4.443442   -2.080163
     43          8           0       16.394368   -3.878644   -3.292612
     44          6           0       16.760160   -4.939657   -4.287268
     45          1           0       21.325619    2.013166   -3.576750
     46          1           0       23.375001    2.614935    2.511267
     47          1           0       18.948317   -1.555579    4.297590
     48          1           0       18.362138   -1.589648   -3.931762
     49          1           0       18.860969    1.292893   -4.394320
     50          1           0       21.010003   -0.493520   -4.576172
     51          1           0       20.486776    0.651428   -5.934659
     52          1           0       19.883761   -0.930075   -5.847747
     53          1           0       16.759528    0.872257   -4.443533
     54          1           0       16.050042    0.034331   -3.069725
     55          1           0       15.113818   -1.495700   -4.065694
     56          1           0       16.388109   -1.904843   -5.143882
     57          1           0       24.598901    3.304340   -3.019562
     58          1           0       23.439417    4.562718   -2.544972
     59          1           0       23.071009    3.178706   -3.780574
     60          1           0       25.879076    3.922576   -1.537373
     61          1           0       26.526111    4.736884   -0.235817
     62          1           0       25.092871    5.479907   -0.997439
     63          1           0       22.418808    1.639292    4.847602
     64          1           0       21.218282   -0.708147    5.345970
     65          1           0       23.547980   -1.180418    3.905175
     66          1           0       23.297045   -0.598700    5.602287
     67          1           0       24.480873    0.161998    4.507450
     68          1           0       20.419536    1.410174    6.498493
     69          1           0       18.992071    0.672611    5.640542
     70          1           0       18.755438    2.076468    4.282260
     71          1           0       20.284390    2.921142    4.310836
     72          1           0       19.165744    3.149659    5.577513
     73          1           0       17.891825   -4.370184    3.203035
     74          1           0       16.147567   -4.045036    3.148735
     75          1           0       17.040166   -3.135725    4.255607
     76          1           0       15.801794   -2.111914   -1.920372
     77          1           0       17.132653   -4.383327   -5.147703
     78          1           0       15.886131   -5.551455   -4.509453
     79          1           0       17.565942   -5.623192   -4.018217
     80         12           0      -20.003888   -0.517891   -0.395071
     81          6           0      -19.706097    2.917526    0.019988
     82          6           0      -16.553954   -0.833007    0.351399
     83          6           0      -20.452652   -3.745228    0.344561
     84          6           0      -23.502028   -0.081874   -0.434724
     85          7           0      -18.357841    0.917118    0.490012
     86          6           0      -18.472308    2.272228    0.292760
     87          6           0      -17.184814    2.979299    0.579087
     88          6           0      -16.127819    1.790664    0.429788
     89          6           0      -17.030899    0.507008    0.451138
     90          6           0      -15.182426    1.847188   -0.873943
     91          6           0      -17.265414    3.759669    1.990458
     92          6           0      -16.384441    4.898657    2.103630
     93          1           0      -15.444284    4.834346    3.325954
     94          7           0      -18.695942   -2.112683    0.075902
     95          6           0      -17.299047   -2.038055    0.336931
     96          6           0      -16.825414   -3.391652    0.571745
     97          6           0      -17.931388   -4.275937    0.556076
     98          6           0      -19.101243   -3.393046    0.229488
     99          6           0      -15.418109   -3.679433    0.941588
    100          6           0      -17.841434   -5.825817    0.880296
    101          8           0      -16.726749   -6.275243    1.141987
    102          6           0      -18.988863   -6.783317    0.577519
    103          7           0      -21.739296   -1.660101   -0.002209
    104          6           0      -21.616772   -3.002544    0.154934
    105          6           0      -23.064762   -3.747926    0.436294
    106          6           0      -24.062552   -2.585132   -0.036909
    107          6           0      -23.106974   -1.361476   -0.203370
    108          6           0      -23.326257   -5.070874   -0.378601
    109          6           0      -25.172213   -2.296051    0.975767
    110          6           0      -26.662287   -2.423895    0.578064
    111          7           0      -21.312287    1.073926   -0.529412
    112          6           0      -22.676143    1.089955   -0.574488
    113          6           0      -23.123615    2.438993   -0.785939
    114          6           0      -21.931441    3.201676   -0.491122
    115          6           0      -20.881758    2.286404   -0.303041
    116          6           0      -24.545916    2.895145   -0.938373
    117          6           0      -21.447296    4.547148   -0.262793
    118          8           0      -21.973944    5.597733   -0.470885
    119          6           0      -19.900273    4.465925    0.039531
    120          6           0      -18.997552    5.113703   -1.033461
    121          8           0      -19.078692    4.898215   -2.223649
    122          8           0      -18.145281    6.058804   -0.426028
    123          6           0      -17.361894    6.877271   -1.301461
    124          1           0      -15.475415   -0.858477    0.515701
    125          1           0      -20.674916   -4.710768    0.803304
    126          1           0      -24.589694    0.004226   -0.466747
    127          1           0      -16.867403    3.615539   -0.247728
    128          1           0      -15.493384    1.792071    1.316858
    129          1           0      -14.165522    1.897238   -0.484921
    130          1           0      -15.401019    2.696851   -1.520035
    131          1           0      -15.332901    0.903560   -1.399169
    132          1           0      -16.956872    3.002954    2.711571
    133          1           0      -18.340063    3.924007    2.073844
    134          1           0      -17.031117    5.772153    2.177650
    135          1           0      -15.731320    4.954205    1.232784
    136          1           0      -14.771501   -2.820537    0.762754
    137          1           0      -15.014123   -4.455489    0.291006
    138          1           0      -15.330324   -3.934472    1.997950
    139          1           0      -19.876648   -6.612221    1.187157
    140          1           0      -18.613668   -7.797080    0.721368
    141          1           0      -19.226136   -6.677416   -0.481120
    142          1           0      -23.083825   -3.848694    1.521113
    143          1           0      -24.466549   -2.707236   -1.042121
    144          1           0      -23.354869   -5.921593    0.301629
    145          1           0      -22.518646   -5.220608   -1.096154
    146          1           0      -24.286532   -4.942620   -0.879279
    147          1           0      -25.030357   -1.331451    1.462602
    148          1           0      -25.114419   -2.880655    1.893776
    149          1           0      -27.245297   -1.505265    0.506941
    150          1           0      -27.119414   -2.990292    1.389799
    151          1           0      -26.773852   -2.935447   -0.378710
    152          1           0      -24.514069    3.890705   -1.381725
    153          1           0      -25.031835    3.209983   -0.015405
    154          1           0      -25.205623    2.189117   -1.442074
    155          1           0      -19.804720    5.038795    0.962340
    156          1           0      -16.516026    7.098623   -0.649798
    157          1           0      -17.823520    7.849251   -1.474518
    158          1           0      -17.164401    6.363921   -2.241656
 ---------------------------------------------------------------------

 SCF Done:  E(RCAM-B3LYP) =  -4069.75812175     A.U. after   19 cycles

 Excitation energies and oscillator strengths:

 Excited State   1:      Singlet-A      1.6846 eV  735.98 nm  f=0.3833  <S**2>=0.000
     309 -> 315       -0.17398
     312 -> 314        0.68772
     309 <- 315       -0.10827
 This state for optimization and/or second-order correction.
 Total Energy, E(TD-HF/TD-DFT) =  -4069.69621306
 Copying the excited state density for this state as the 1-particle RhoCI density.

 Excited State   2:      Singlet-A      1.7047 eV  727.31 nm  f=0.3801  <S**2>=0.000
     310 -> 316       -0.17509
     311 -> 313        0.68558
     310 <- 316       -0.10608

 Excited State   3:      Singlet-A      2.1770 eV  569.53 nm  f=0.1391  <S**2>=0.000
     310 -> 313        0.65149
     311 -> 316        0.26308

 Excited State   4:      Singlet-A      2.2457 eV  552.08 nm  f=0.1074  <S**2>=0.000
     309 -> 314        0.63689
     312 -> 315        0.29190

 Excited State   5:      Singlet-A      3.0759 eV  403.08 nm  f=0.0000  <S**2>=0.000
     312 -> 313        0.70710

 The electronic state is 1-A.
 Alpha  occ. eigenvalues --  -46.89797 -46.89367 -19.25132 -19.25070 -19.20743
 Alpha  occ. eigenvalues --  -19.19690 -19.19099 -19.18695 -19.18257 -19.18236
 Alpha  occ. eigenvalues --  -14.42309 -14.42026 -14.42009 -14.41855 -14.40194
 Alpha  occ. eigenvalues --  -14.39729 -14.39078 -14.39013 -10.40083 -10.38638
 Alpha  occ. eigenvalues --  -10.36374 -10.35100 -10.34182 -10.34018 -10.31808
 Alpha  occ. eigenvalues --  -10.31725 -10.31618 -10.31459 -10.31451 -10.31233
 Alpha  occ. eigenvalues --  -10.31185 -10.30966 -10.30652 -10.30557 -10.30472
 Alpha  occ. eigenvalues --  -10.30310 -10.30131 -10.29817 -10.29650 -10.29278
 Alpha  occ. eigenvalues --  -10.29132 -10.29013 -10.28697 -10.28646 -10.28577
 Alpha  occ. eigenvalues --  -10.28566 -10.28507 -10.28504 -10.28477 -10.28309
 Alpha  occ. eigenvalues --  -10.28218 -10.28181 -10.28163 -10.28131 -10.28114
 Alpha  occ. eigenvalues --  -10.27911 -10.27891 -10.27824 -10.27807 -10.27648
 Alpha  occ. eigenvalues --  -10.27617 -10.27550 -10.27532 -10.27507 -10.27499
 Alpha  occ. eigenvalues --  -10.27183 -10.27034 -10.26862 -10.26693 -10.26526
 Alpha  occ. eigenvalues --  -10.26489 -10.26435 -10.26428 -10.26404 -10.26394
 Alpha  occ. eigenvalues --  -10.26290 -10.26289 -10.26062 -10.25857 -10.25832
 Alpha  occ. eigenvalues --  -10.25695 -10.25609 -10.25453 -10.24758 -10.24683
 Alpha  occ. eigenvalues --  -10.24629  -3.18215  -3.17776  -1.93065  -1.92725
 Alpha  occ. eigenvalues --   -1.92679  -1.92482  -1.92210  -1.92093  -1.17032
 Alpha  occ. eigenvalues --   -1.16081  -1.10794  -1.10285  -1.09152  -1.08736
 Alpha  occ. eigenvalues --   -1.08588  -1.07385  -1.05449  -1.04910  -1.04285
 Alpha  occ. eigenvalues --   -1.03412  -1.02912  -1.02656  -1.02381  -1.01593
 Alpha  occ. eigenvalues --   -0.92242  -0.92240  -0.89247  -0.89214  -0.88776
 Alpha  occ. eigenvalues --   -0.88398  -0.88369  -0.88183  -0.87992  -0.87626
 Alpha  occ. eigenvalues --   -0.86891  -0.86871  -0.86426  -0.85811  -0.84665
 Alpha  occ. eigenvalues --   -0.84315  -0.84089  -0.83368  -0.83100  -0.82697
 Alpha  occ. eigenvalues --   -0.82229  -0.82035  -0.81590  -0.81147  -0.80768
 Alpha  occ. eigenvalues --   -0.80252  -0.78779  -0.77834  -0.77692  -0.77409
 Alpha  occ. eigenvalues --   -0.77329  -0.76762  -0.76124  -0.75976  -0.75394
 Alpha  occ. eigenvalues --   -0.74933  -0.73508  -0.72660  -0.71705  -0.71343
 Alpha  occ. eigenvalues --   -0.69415  -0.69240  -0.69119  -0.68436  -0.67803
 Alpha  occ. eigenvalues --   -0.67453  -0.67239  -0.66505  -0.65918  -0.65786
 Alpha  occ. eigenvalues --   -0.65418  -0.64844  -0.64813  -0.64502  -0.64093
 Alpha  occ. eigenvalues --   -0.63997  -0.62823  -0.62087  -0.60464  -0.59952
 Alpha  occ. eigenvalues --   -0.59648  -0.59478  -0.59337  -0.58992  -0.58645
 Alpha  occ. eigenvalues --   -0.58566  -0.58288  -0.58007  -0.57952  -0.57464
 Alpha  occ. eigenvalues --   -0.56465  -0.56328  -0.55805  -0.55509  -0.55332
 Alpha  occ. eigenvalues --   -0.55083  -0.54965  -0.54858  -0.54834  -0.54731
 Alpha  occ. eigenvalues --   -0.54005  -0.53417  -0.53281  -0.53244  -0.53019
 Alpha  occ. eigenvalues --   -0.52720  -0.52720  -0.52598  -0.52446  -0.52216
 Alpha  occ. eigenvalues --   -0.52090  -0.51932  -0.51734  -0.51640  -0.51194
 Alpha  occ. eigenvalues --   -0.51118  -0.51040  -0.50798  -0.50396  -0.50200
 Alpha  occ. eigenvalues --   -0.50083  -0.49828  -0.49755  -0.49701  -0.49612
 Alpha  occ. eigenvalues --   -0.49482  -0.49227  -0.49216  -0.49148  -0.49019
 Alpha  occ. eigenvalues --   -0.48760  -0.48531  -0.48449  -0.48381  -0.48101
 Alpha  occ. eigenvalues --   -0.48013  -0.47890  -0.47398  -0.47306  -0.47141
 Alpha  occ. eigenvalues --   -0.47024  -0.46949  -0.46865  -0.46697  -0.46420
 Alpha  occ. eigenvalues --   -0.46267  -0.46169  -0.46021  -0.45920  -0.45842
 Alpha  occ. eigenvalues --   -0.45675  -0.45278  -0.45237  -0.44957  -0.44763
 Alpha  occ. eigenvalues --   -0.44663  -0.44510  -0.44502  -0.44140  -0.44085
 Alpha  occ. eigenvalues --   -0.44072  -0.43965  -0.43751  -0.43531  -0.43391
 Alpha  occ. eigenvalues --   -0.43380  -0.43219  -0.43107  -0.42971  -0.42710
 Alpha  occ. eigenvalues --   -0.42678  -0.42533  -0.42495  -0.42247  -0.42193
 Alpha  occ. eigenvalues --   -0.42138  -0.41857  -0.41633  -0.41426  -0.41097
 Alpha  occ. eigenvalues --   -0.41074  -0.40996  -0.40974  -0.40741  -0.40460
 Alpha  occ. eigenvalues --   -0.40191  -0.39802  -0.39551  -0.38966  -0.38651
 Alpha  occ. eigenvalues --   -0.38183  -0.38091  -0.38054  -0.37726  -0.37721
 Alpha  occ. eigenvalues --   -0.37066  -0.37043  -0.36694  -0.36397  -0.36228
 Alpha  occ. eigenvalues --   -0.36149  -0.35605  -0.34787  -0.34504  -0.34331
 Alpha  occ. eigenvalues --   -0.34261  -0.33507  -0.33278  -0.31579  -0.31506
 Alpha  occ. eigenvalues --   -0.31250  -0.31065  -0.30558  -0.30483  -0.30215
 Alpha  occ. eigenvalues --   -0.30013  -0.29967  -0.29172  -0.24314  -0.24044
 Alpha  occ. eigenvalues --   -0.21468  -0.21167
 Alpha virt. eigenvalues --   -0.09006  -0.08781  -0.01646  -0.01645   0.00254
 Alpha virt. eigenvalues --    0.00394   0.01334   0.01987   0.02165   0.02436
 Alpha virt. eigenvalues --    0.04571   0.04670   0.05315   0.05833   0.06074

 Mulliken charges:
               1
     1  Mg  12.000157
     2  C    6.001292
     3  C    5.999735
     4  C    5.998814
     5  C    5.999723
     6  N    7.000719
     7  C    5.998522
     8  C    6.000431
     9  C    5.999798
    10  C    6.000962
    11  C    5.999920
    12  C    6.000110
    13  C    6.000047
    14  H    0.999816
    15  N    6.999598
    16  C    6.001518
    17  C    6.000645
    18  C    6.000585
    19  C    6.001488
    20  C    5.999991
    21  C    6.000479
    22  O    8.001094
    23  C    5.999633
    24  N    6.999184
    25  C    6.001552
    26  C    5.999586
    27  C    6.000349
    28  C    5.999226
    29  C    6.000034
    30  C    6.000360
    31  C    5.999958
    32  N    7.000298
    33  C    5.998710
    34  C    5.998935
    35  C    5.999679
    36  C    5.998761
    37  C    6.000170
    38  C    5.999595
    39  O    7.998579
    40  C    5.999890
    41  C    5.999858
    42  O    7.999911
    43  O    7.999945
    44  C    6.000099
    45  H    1.000574
    46  H    1.000071
    47  H    0.999407
    48  H    0.999994
    49  H    1.000145
    50  H    0.999973
    51  H    1.000107
    52  H    1.000497
    53  H    0.999747
    54  H    1.000151
    55  H    1.000135
    56  H    0.999984
    57  H    1.000722
    58  H    1.000628
    59  H    1.000612
    60  H    1.000209
    61  H    1.000591
    62  H    1.000378
    63  H    0.999989
    64  H    0.999783
    65  H    1.000150
    66  H    1.000285
    67  H    0.999815
    68  H    0.999626
    69  H    1.000083
    70  H    1.000235
    71  H    0.999399
    72  H    0.999859
    73  H    0.999224
    74  H    0.999271
    75  H    0.999356
    76  H    0.999689
    77  H    0.999785
    78  H    0.999842
    79  H    0.999930
    80  Mg  11.998770
    81  C    6.012368
    82  C    5.971408
    83  C    5.986157
    84  C    6.028763
    85  N    6.990918
    86  C    5.971178
    87  C    6.013968
    88  C    5.987600
    89  C    6.042836
    90  C    5.998546
    91  C    6.001650
    92  C    6.004331
    93  H    0.988523
    94  N    6.989769
    95  C    6.058511
    96  C    6.008825
    97  C    6.022439
    98  C    6.035163
    99  C    5.992686
   100  C    6.012419
   101  O    8.020875
   102  C    5.996074
   103  N    7.014874
   104  C    6.025748
   105  C    5.991174
   106  C    6.008644
   107  C    5.960766
   108  C    5.998622
   109  C    6.002326
   110  C    6.000951
   111  N    7.002783
   112  C    5.950619
   113  C    5.980072
   114  C    5.987816
   115  C    5.972135
   116  C    6.002753
   117  C    5.982752
   118  O    7.968854
   119  C    5.997432
   120  C    5.994482
   121  O    7.994893
   122  O    7.996800
   123  C    6.003207
   124  H    1.008574
   125  H    1.007834
   126  H    0.993230
   127  H    0.997245
   128  H    1.004039
   129  H    1.003230
   130  H    1.014341
   131  H    0.995591
   132  H    0.987543
   133  H    1.009327
   134  H    1.003329
   135  H    0.995846
   136  H    1.019340
   137  H    1.016817
   138  H    1.018993
   139  H    1.012088
   140  H    1.013252
   141  H    1.008387
   142  H    1.002415
   143  H    0.999095
   144  H    0.999853
   145  H    0.996003
   146  H    1.010873
   147  H    1.005131
   148  H    0.990943
   149  H    1.003631
   150  H    0.995742
   151  H    0.996622
   152  H    0.986240
   153  H    0.976946
   154  H    0.981102
   155  H    0.989553
   156  H    0.993555
   157  H    0.996925
   158  H    0.994889
 Sum of Mulliken charges = 624.00000

 Dipole moment (field-independent basis, Debye):
    X=              6.3606    Y=             -8.8501    Z=              1.1007  Tot=             10.9542
 Quadrupole moment (field-independent basis, Debye-Ang):
   XX=           -231.8767   YY=              5.4493   ZZ=             -0.7985
   XY=            182.5705   XZ=            -29.1078   YZ=             -1.1638

 Normal termination of Gaussian 16 at Tue Sep 21 23:15:06 2021.
