 Gaussian 16, Revision A.03,
 Gaussian 16:  ES64L-G16RevA.03 25-Dec-2016

 ----------------------------------------------------------
 #p cam-b3lyp/Def2SVP td=(nstates=5) density=(transition=1)
 ----------------------------------------------------------

 --------------------------------
 TDDFT excited states in gaussian
 --------------------------------
 Symbolic Z-matrix:
 Charge =  0 Multiplicity = 1

                         Standard orientation:
 ---------------------------------------------------------------------
 Center     Atomic      Atomic             Coordinates (Angstroms)
 Number     Number       Type             X           Y           Z
 ---------------------------------------------------------------------
      1         12           0      -26.183656   -0.406170   -0.260517
      2          6           0      -24.348494    2.399900   -0.724057
      3          6           0      -27.425397    0.896576    2.710287
      4          6           0      -28.014293   -3.215556    0.205944
      5          6           0      -24.584024   -1.897413   -2.943876
      6          7           0      -25.965437    1.442229    0.724041
      7          6           0      -25.140007    2.471052    0.405330
      8          6           0      -25.381838    3.688555    1.258914
      9          6           0      -26.151811    3.106192    2.504508
     10          6           0      -26.572201    1.715964    1.924596
     11          6           0      -25.454052    3.058697    3.927757
     12          6           0      -26.289329    4.765368    0.510122
     13          6           0      -26.075850    6.208080    1.055871
     14          1           0      -25.618660    6.470664    2.500576
     15          7           0      -27.498949   -1.148013    1.291272
     16          6           0      -27.873298   -0.400709    2.438702
     17          6           0      -28.797164   -1.163246    3.223115
     18          6           0      -28.982827   -2.403441    2.514314
     19          6           0      -28.145437   -2.259833    1.270104
     20          6           0      -29.468824   -0.672575    4.457556
     21          6           0      -29.849249   -3.603959    2.878254
     22          8           0      -29.874199   -4.710136    2.263003
     23          6           0      -30.764302   -3.522351    4.088303
     24          7           0      -26.243461   -2.303853   -1.173929
     25          6           0      -27.230568   -3.258939   -0.925730
     26          6           0      -27.352103   -4.363968   -2.014496
     27          6           0      -26.212498   -3.823222   -3.047294
     28          6           0      -25.655142   -2.607206   -2.402812
     29          6           0      -27.041446   -5.726596   -1.381898
     30          6           0      -26.698589   -3.615396   -4.451377
     31          6           0      -25.909155   -4.376612   -5.477682
     32          7           0      -24.728911   -0.014580   -1.509821
     33          6           0      -24.159790   -0.669706   -2.594801
     34          6           0      -23.157739    0.139444   -3.183118
     35          6           0      -23.129878    1.369580   -2.472739
     36          6           0      -24.173098    1.284385   -1.526710
     37          6           0      -22.293169   -0.146015   -4.350572
     38          6           0      -22.421627    2.619296   -2.302376
     39          8           0      -21.445286    3.131729   -2.813875
     40          6           0      -23.286030    3.353051   -1.170590
     41          6           0      -22.436566    4.086843   -0.196344
     42          8           0      -21.416929    3.692449    0.309234
     43          8           0      -22.888314    5.320281    0.078906
     44          6           0      -22.062455    6.073096    1.065436
     45          1           0      -27.614690    1.319932    3.699046
     46          1           0      -28.505611   -4.162403    0.439127
     47          1           0      -24.114118   -2.248517   -3.864865
     48          1           0      -24.460863    4.091598    1.679841
     49          1           0      -27.087798    3.653327    2.612398
     50          1           0      -24.496366    3.570923    3.834489
     51          1           0      -25.290593    2.081092    4.378489
     52          1           0      -26.128934    3.563967    4.618914
     53          1           0      -27.306359    4.397030    0.645715
     54          1           0      -26.021583    4.732261   -0.546035
     55          1           0      -27.052805    6.662387    0.889736
     56          1           0      -25.424269    6.708159    0.339794
     57          1           0      -30.346914   -0.045474    4.302951
     58          1           0      -28.693519   -0.150409    5.016817
     59          1           0      -29.683708   -1.465647    5.173154
     60          1           0      -30.140157   -3.760815    4.949378
     61          1           0      -31.493980   -4.317913    3.939487
     62          1           0      -31.216448   -2.541851    4.238621
     63          1           0      -28.396550   -4.363092   -2.326542
     64          1           0      -25.421778   -4.571703   -3.108768
     65          1           0      -26.657870   -5.701982   -0.361701
     66          1           0      -26.426832   -6.303431   -2.072586
     67          1           0      -28.003508   -6.229099   -1.277661
     68          1           0      -26.618821   -2.580909   -4.785666
     69          1           0      -27.748759   -3.860444   -4.610608
     70          1           0      -26.536112   -4.932510   -6.174235
     71          1           0      -25.242422   -5.100170   -5.009357
     72          1           0      -25.258192   -3.623474   -5.922648
     73          1           0      -22.031725   -1.192740   -4.508687
     74          1           0      -21.319401    0.228156   -4.033236
     75          1           0      -22.722570    0.296494   -5.249470
     76          1           0      -23.744373    4.094737   -1.825395
     77          1           0      -21.152531    6.474629    0.617182
     78          1           0      -21.907903    5.507104    1.984211
     79          1           0      -22.634068    6.942524    1.391096
     80         12           0       25.422682   -0.795371    0.058044
     81          6           0       26.306572    2.425449   -0.981529
     82          6           0       24.660327    0.349970    3.037432
     83          6           0       25.305789   -4.025182    1.223574
     84          6           0       26.721745   -2.085251   -2.960922
     85          7           0       25.398752    1.162890    0.836486
     86          6           0       25.725842    2.374274    0.267906
     87          6           0       25.338419    3.542883    1.164827
     88          6           0       25.032969    2.814079    2.512669
     89          6           0       24.921349    1.388089    2.098578
     90          6           0       25.913675    3.066657    3.717276
     91          6           0       24.198592    4.452050    0.604068
     92          6           0       23.821811    5.646014    1.487955
     93          1           0       23.806755    7.004945    0.803427
     94          7           0       25.076538   -1.748440    1.992795
     95          6           0       24.630894   -1.064456    3.067172
     96          6           0       24.279809   -1.992622    4.106020
     97          6           0       24.569692   -3.280086    3.622359
     98          6           0       25.020772   -3.046493    2.223495
     99          6           0       23.766919   -1.578977    5.469256
    100          6           0       24.375348   -4.611514    4.270812
    101          8           0       24.789281   -5.719370    3.835873
    102          6           0       23.574734   -4.723432    5.562502
    103          7           0       25.959793   -2.728348   -0.735469
    104          6           0       25.876696   -3.879510   -0.028670
    105          6           0       26.142035   -5.141800   -1.013324
    106          6           0       26.124021   -4.460115   -2.426464
    107          6           0       26.204879   -3.010441   -2.069983
    108          6           0       27.506504   -5.828155   -0.613983
    109          6           0       24.736771   -4.677241   -3.134214
    110          6           0       23.457617   -4.329761   -2.388707
    111          7           0       26.308658   -0.004760   -1.726480
    112          6           0       26.760142   -0.681004   -2.826449
    113          6           0       27.238065    0.269071   -3.719883
    114          6           0       27.134838    1.545667   -3.096056
    115          6           0       26.559095    1.325337   -1.872461
    116          6           0       27.876923    0.067351   -5.048604
    117          6           0       27.386833    3.001853   -3.185529
    118          8           0       27.924948    3.715625   -4.024166
    119          6           0       26.752748    3.639634   -1.830651
    120          6           0       27.695764    4.615492   -1.222210
    121          8           0       28.957243    4.498834   -1.221648
    122          8           0       26.978053    5.669154   -0.856860
    123          6           0       27.754959    6.880877   -0.678490
    124          1           0       24.285586    0.685859    4.006682
    125          1           0       25.239457   -5.060205    1.567253
    126          1           0       26.993248   -2.507354   -3.929758
    127          1           0       26.218497    4.186142    1.152912
    128          1           0       24.040161    3.040787    2.902821
    129          1           0       26.517024    3.974326    3.704281
    130          1           0       26.553679    2.198726    3.878252
    131          1           0       25.283417    2.950435    4.599183
    132          1           0       23.315805    3.846489    0.397322
    133          1           0       24.499530    4.836286   -0.370013
    134          1           0       24.642337    5.924489    2.148995
    135          1           0       22.903364    5.453953    2.043418
    136          1           0       23.796133   -0.506964    5.663926
    137          1           0       24.371218   -1.894561    6.319393
    138          1           0       22.746469   -1.908295    5.667449
    139          1           0       24.155622   -4.254143    6.356017
    140          1           0       23.562076   -5.742797    5.947629
    141          1           0       22.545709   -4.376115    5.463054
    142          1           0       25.360520   -5.887765   -0.868763
    143          1           0       27.033458   -4.808488   -2.915974
    144          1           0       27.885907   -5.509856    0.357176
    145          1           0       28.325138   -5.629519   -1.305899
    146          1           0       27.432861   -6.908344   -0.496480
    147          1           0       24.810820   -5.748406   -3.322173
    148          1           0       24.636958   -4.185218   -4.101240
    149          1           0       23.674004   -4.152687   -1.334960
    150          1           0       22.618465   -5.011921   -2.520628
    151          1           0       23.119640   -3.436529   -2.914129
    152          1           0       27.284586   -0.524699   -5.746706
    153          1           0       28.783890   -0.499387   -4.840079
    154          1           0       28.167201    1.005498   -5.520479
    155          1           0       25.884309    4.190778   -2.190499
    156          1           0       27.232111    7.728339   -1.123582
    157          1           0       28.742397    6.894028   -1.139274
    158          1           0       27.827484    7.031633    0.399090
 ---------------------------------------------------------------------

 SCF Done:  E(RCAM-B3LYP) =  -4069.82314783     A.U. after   19 cycles

 Excitation energies and oscillator strengths:

 Excited State   1:      Singlet-A      1.6462 eV  753.16 nm  f=0.3900  <S**2>=0.000
     309 -> 315        0.17001
     312 -> 314        0.68912
     309 <- 315        0.10749
 This state for optimization and/or second-order correction.
 Total Energy, E(TD-HF/TD-DFT) =  -4069.76265165
 Copying the excited state density for this state as the 1-particle RhoCI density.

 Excited State   2:      Singlet-A      1.7144 eV  723.18 nm  f=0.3932  <S**2>=0.000
     310 -> 316       -0.16596
     311 -> 313        0.68904
     310 <- 316       -0.10310

 Excited State   3:      Singlet-A      2.1453 eV  577.93 nm  f=0.1689  <S**2>=0.000
     310 -> 313        0.66340
     311 -> 316        0.22678

 Excited State   4:      Singlet-A      2.2270 eV  556.73 nm  f=0.1134  <S**2>=0.000
     309 -> 314        0.63819
     312 -> 315       -0.29161

 Excited State   5:      Singlet-A      2.9995 eV  413.35 nm  f=0.0000  <S**2>=0.000
     312 -> 313        0.70711

 The electronic state is 1-A.
 Alpha  occ. eigenvalues --  -46.89376 -46.87167 -19.26657 -19.25188 -19.19243
 Alpha  occ. eigenvalues --  -19.19106 -19.19046 -19.18781 -19.18512 -19.18449
 Alpha  occ. eigenvalues --  -14.42897 -14.42872 -14.41820 -14.41703 -14.39758
 Alpha  occ. eigenvalues --  -14.39543 -14.38776 -14.38020 -10.39235 -10.38612
 Alpha  occ. eigenvalues --  -10.35752 -10.35241 -10.35165 -10.34822 -10.32114
 Alpha  occ. eigenvalues --  -10.32065 -10.32016 -10.31373 -10.31085 -10.31011
 Alpha  occ. eigenvalues --  -10.30970 -10.30778 -10.30746 -10.30623 -10.30500
 Alpha  occ. eigenvalues --  -10.30131 -10.30092 -10.29872 -10.29760 -10.29363
 Alpha  occ. eigenvalues --  -10.29247 -10.28966 -10.28872 -10.28762 -10.28520
 Alpha  occ. eigenvalues --  -10.28308 -10.28300 -10.28266 -10.28245 -10.28213
 Alpha  occ. eigenvalues --  -10.28168 -10.28160 -10.28051 -10.27886 -10.27878
 Alpha  occ. eigenvalues --  -10.27875 -10.27860 -10.27815 -10.27784 -10.27760
 Alpha  occ. eigenvalues --  -10.27699 -10.27671 -10.27552 -10.27530 -10.27493
 Alpha  occ. eigenvalues --  -10.27217 -10.27065 -10.26833 -10.26497 -10.26480
 Alpha  occ. eigenvalues --  -10.26475 -10.26467 -10.26141 -10.26121 -10.26015
 Alpha  occ. eigenvalues --  -10.25858 -10.25775 -10.25663 -10.25622 -10.25493
 Alpha  occ. eigenvalues --  -10.25412 -10.25402 -10.25256 -10.25137 -10.24882
 Alpha  occ. eigenvalues --  -10.24269  -3.17764  -3.16025  -1.92673  -1.92189
 Alpha  occ. eigenvalues --   -1.92079  -1.90916  -1.90459  -1.90370  -1.18094
 Alpha  occ. eigenvalues --   -1.17329  -1.10160  -1.08791  -1.08366  -1.07425
 Alpha  occ. eigenvalues --   -1.07277  -1.05917  -1.05407  -1.04544  -1.04358
 Alpha  occ. eigenvalues --   -1.03588  -1.03333  -1.02736  -1.02455  -1.01429
 Alpha  occ. eigenvalues --   -0.93393  -0.91851  -0.89735  -0.89595  -0.89280
 Alpha  occ. eigenvalues --   -0.88829  -0.88607  -0.88401  -0.87982  -0.87699
 Alpha  occ. eigenvalues --   -0.87244  -0.87135  -0.86435  -0.85677  -0.84799
 Alpha  occ. eigenvalues --   -0.84351  -0.83838  -0.83759  -0.82905  -0.82499
 Alpha  occ. eigenvalues --   -0.81854  -0.81680  -0.81332  -0.81078  -0.80666
 Alpha  occ. eigenvalues --   -0.80527  -0.78878  -0.78378  -0.77799  -0.77582
 Alpha  occ. eigenvalues --   -0.77381  -0.77353  -0.76551  -0.76121  -0.75238
 Alpha  occ. eigenvalues --   -0.75231  -0.72905  -0.72746  -0.71869  -0.71744
 Alpha  occ. eigenvalues --   -0.69906  -0.69177  -0.69113  -0.68708  -0.68347
 Alpha  occ. eigenvalues --   -0.68213  -0.67680  -0.66723  -0.65883  -0.65527
 Alpha  occ. eigenvalues --   -0.65376  -0.65198  -0.64798  -0.64674  -0.64559
 Alpha  occ. eigenvalues --   -0.64100  -0.62737  -0.62361  -0.61013  -0.60344
 Alpha  occ. eigenvalues --   -0.59956  -0.59774  -0.59244  -0.58990  -0.58530
 Alpha  occ. eigenvalues --   -0.58395  -0.58023  -0.57732  -0.57608  -0.57224
 Alpha  occ. eigenvalues --   -0.56205  -0.56110  -0.56031  -0.55797  -0.55524
 Alpha  occ. eigenvalues --   -0.55460  -0.55315  -0.55208  -0.54998  -0.54392
 Alpha  occ. eigenvalues --   -0.53965  -0.53366  -0.53270  -0.53136  -0.53021
 Alpha  occ. eigenvalues --   -0.52923  -0.52912  -0.52578  -0.52532  -0.52454
 Alpha  occ. eigenvalues --   -0.52168  -0.51997  -0.51713  -0.51571  -0.51332
 Alpha  occ. eigenvalues --   -0.51173  -0.50974  -0.50561  -0.50447  -0.50334
 Alpha  occ. eigenvalues --   -0.50121  -0.50109  -0.50000  -0.49633  -0.49522
 Alpha  occ. eigenvalues --   -0.49104  -0.49027  -0.48898  -0.48851  -0.48576
 Alpha  occ. eigenvalues --   -0.48486  -0.48408  -0.48356  -0.48248  -0.48100
 Alpha  occ. eigenvalues --   -0.48018  -0.47787  -0.47345  -0.47237  -0.47236
 Alpha  occ. eigenvalues --   -0.47197  -0.46761  -0.46731  -0.46623  -0.46491
 Alpha  occ. eigenvalues --   -0.46380  -0.46379  -0.45958  -0.45943  -0.45852
 Alpha  occ. eigenvalues --   -0.45439  -0.45217  -0.45177  -0.44932  -0.44794
 Alpha  occ. eigenvalues --   -0.44729  -0.44568  -0.44451  -0.44279  -0.44072
 Alpha  occ. eigenvalues --   -0.43913  -0.43857  -0.43721  -0.43534  -0.43414
 Alpha  occ. eigenvalues --   -0.43307  -0.43203  -0.43196  -0.42873  -0.42581
 Alpha  occ. eigenvalues --   -0.42432  -0.42369  -0.42350  -0.42070  -0.42068
 Alpha  occ. eigenvalues --   -0.41969  -0.41765  -0.41435  -0.41434  -0.41232
 Alpha  occ. eigenvalues --   -0.41000  -0.40913  -0.40862  -0.40515  -0.40495
 Alpha  occ. eigenvalues --   -0.40454  -0.40411  -0.40070  -0.39606  -0.39247
 Alpha  occ. eigenvalues --   -0.38667  -0.38272  -0.37991  -0.37893  -0.37639
 Alpha  occ. eigenvalues --   -0.37304  -0.37217  -0.37052  -0.36916  -0.36637
 Alpha  occ. eigenvalues --   -0.36573  -0.36295  -0.34617  -0.34155  -0.34076
 Alpha  occ. eigenvalues --   -0.33948  -0.33365  -0.32902  -0.31947  -0.31557
 Alpha  occ. eigenvalues --   -0.31150  -0.30788  -0.30755  -0.30732  -0.30101
 Alpha  occ. eigenvalues --   -0.29969  -0.29597  -0.28505  -0.24335  -0.24064
 Alpha  occ. eigenvalues --   -0.21768  -0.21057
 Alpha virt. eigenvalues --   -0.09369  -0.08985  -0.01640  -0.01285  -0.00025
 Alpha virt. eigenvalues --    0.00091   0.01799   0.02144   0.02505   0.03143
 Alpha virt. eigenvalues --    0.04445   0.04660   0.04746   0.05447   0.05684

 Mulliken charges:
               1
     1  Mg  11.995329
     2  C    6.026300
     3  C    5.990702
     4  C    5.964151
     5  C    5.990405
     6  N    7.013216
     7  C    5.963815
     8  C    6.013018
     9  C    5.989196
    10  C    6.036282
    11  C    5.994750
    12  C    6.002990
    13  C    6.000217
    14  H    0.993160
    15  N    6.992946
    16  C    6.049160
    17  C    6.012264
    18  C    6.025009
    19  C    6.036324
    20  C    5.995172
    21  C    6.013053
    22  O    8.038742
    23  C    5.994189
    24  N    6.978891
    25  C    6.038216
    26  C    5.989079
    27  C    6.013006
    28  C    5.981144
    29  C    5.999719
    30  C    6.006865
    31  C    6.000342
    32  N    7.005260
    33  C    5.974365
    34  C    5.964044
    35  C    5.998013
    36  C    5.964368
    37  C    6.004982
    38  C    5.987137
    39  O    7.974745
    40  C    5.995643
    41  C    5.997055
    42  O    7.997586
    43  O    7.997896
    44  C    6.002187
    45  H    1.015614
    46  H    0.997710
    47  H    0.984015
    48  H    1.000226
    49  H    1.004050
    50  H    1.016532
    51  H    0.999321
    52  H    1.003582
    53  H    0.987091
    54  H    1.007814
    55  H    0.997248
    56  H    1.004553
    57  H    1.020441
    58  H    1.014543
    59  H    1.015888
    60  H    1.010870
    61  H    1.015809
    62  H    1.007332
    63  H    0.996668
    64  H    0.995424
    65  H    0.995071
    66  H    1.008990
    67  H    0.995075
    68  H    1.002298
    69  H    0.986228
    70  H    0.992273
    71  H    0.995750
    72  H    1.004675
    73  H    0.980777
    74  H    0.982298
    75  H    0.976170
    76  H    0.996050
    77  H    0.999388
    78  H    0.994557
    79  H    0.994734
    80  Mg  12.000038
    81  C    5.999972
    82  C    5.999928
    83  C    6.000067
    84  C    6.000054
    85  N    7.000012
    86  C    6.000041
    87  C    5.999976
    88  C    6.000000
    89  C    5.999989
    90  C    6.000009
    91  C    5.999993
    92  C    6.000007
    93  H    1.000011
    94  N    6.999996
    95  C    6.000013
    96  C    5.999941
    97  C    5.999997
    98  C    5.999921
    99  C    6.000020
   100  C    5.999996
   101  O    7.999938
   102  C    6.000020
   103  N    6.999960
   104  C    5.999963
   105  C    6.000017
   106  C    5.999973
   107  C    6.000037
   108  C    6.000010
   109  C    5.999980
   110  C    5.999986
   111  N    7.000005
   112  C    6.000017
   113  C    6.000048
   114  C    5.999987
   115  C    6.000051
   116  C    6.000000
   117  C    6.000010
   118  O    8.000044
   119  C    6.000022
   120  C    5.999996
   121  O    7.999984
   122  O    8.000016
   123  C    6.000000
   124  H    1.000006
   125  H    0.999979
   126  H    1.000012
   127  H    0.999982
   128  H    1.000013
   129  H    0.999960
   130  H    0.999980
   131  H    0.999994
   132  H    1.000042
   133  H    0.999997
   134  H    0.999975
   135  H    1.000025
   136  H    0.999969
   137  H    0.999938
   138  H    0.999984
   139  H    0.999962
   140  H    0.999955
   141  H    1.000014
   142  H    1.000012
   143  H    0.999991
   144  H    0.999987
   145  H    0.999970
   146  H    0.999988
   147  H    1.000017
   148  H    1.000019
   149  H    1.000005
   150  H    1.000043
   151  H    1.000022
   152  H    1.000054
   153  H    1.000008
   154  H    1.000025
   155  H    1.000030
   156  H    1.000019
   157  H    0.999984
   158  H    0.999993
 Sum of Mulliken charges = 624.00000

 Dipole moment (field-independent basis, Debye):
    X=             -7.2352    Y=             -2.0812    Z=              8.2614  Tot=             11.1773
 Quadrupole moment (field-independent basis, Debye-Ang):
   XX=            377.3825   YY=              1.4052   ZZ=             -0.3469
   XY=             59.4179   XZ=           -217.5422   YZ=             -7.3817

 Normal termination of Gaussian 16 at Wed Sep 22 21:04:03 2021.
