 Gaussian 16, Revision A.03,
 Gaussian 16:  ES64L-G16RevA.03 25-Dec-2016

 ----------------------------------------------------------
 #p cam-b3lyp/Def2SVP td=(nstates=5) density=(transition=1)
 ----------------------------------------------------------

 --------------------------------
 TDDFT excited states in gaussian
 --------------------------------
 Symbolic Z-matrix:
 Charge =  0 Multiplicity = 1

                         Standard orientation:
 ---------------------------------------------------------------------
 Center     Atomic      Atomic             Coordinates (Angstroms)
 Number     Number       Type             X           Y           Z
 ---------------------------------------------------------------------
      1         12           0      -17.454793   -0.632712    0.211605
      2          6           0      -17.271037    2.364172   -1.350968
      3          6           0      -16.277492    0.820978    3.138291
      4          6           0      -17.632816   -3.631633    1.772454
      5          6           0      -18.152220   -2.167943   -2.811589
      6          7           0      -16.980628    1.341372    0.769920
      7          6           0      -16.930115    2.446929   -0.015306
      8          6           0      -16.703623    3.706926    0.778740
      9          6           0      -16.119835    3.172155    2.141356
     10          6           0      -16.515244    1.663915    2.020443
     11          6           0      -14.605133    3.442203    2.525428
     12          6           0      -18.065608    4.494788    1.039556
     13          6           0      -17.836095    6.013009    1.298718
     14          1           0      -16.522431    6.545757    1.895050
     15          7           0      -16.945581   -1.377750    2.179853
     16          6           0      -16.478427   -0.559685    3.241800
     17          6           0      -16.297988   -1.359856    4.415454
     18          6           0      -16.676804   -2.697853    4.039668
     19          6           0      -17.122189   -2.578718    2.605324
     20          6           0      -15.894691   -0.832694    5.747814
     21          6           0      -16.681500   -3.971897    4.877027
     22          8           0      -16.919081   -5.138160    4.445555
     23          6           0      -16.359110   -3.889828    6.359435
     24          7           0      -17.766141   -2.617204   -0.423965
     25          6           0      -17.986343   -3.689004    0.442597
     26          6           0      -18.640294   -4.935450   -0.220721
     27          6           0      -18.824957   -4.347084   -1.729861
     28          6           0      -18.257867   -2.975722   -1.680137
     29          6           0      -17.675044   -6.123145   -0.115290
     30          6           0      -20.228350   -4.420835   -2.255194
     31          6           0      -20.343029   -5.162703   -3.556132
     32          7           0      -17.573630   -0.163455   -1.684723
     33          6           0      -17.892631   -0.848777   -2.850416
     34          6           0      -17.887107    0.037250   -3.954895
     35          6           0      -17.603146    1.337778   -3.458263
     36          6           0      -17.522767    1.198774   -2.056566
     37          6           0      -18.164575   -0.246688   -5.381186
     38          6           0      -17.305905    2.704329   -3.827886
     39          8           0      -17.194118    3.306973   -4.877545
     40          6           0      -17.152619    3.420491   -2.403055
     41          6           0      -16.050923    4.418083   -2.386584
     42          8           0      -14.950357    4.282312   -2.856834
     43          8           0      -16.393370    5.578072   -1.804894
     44          6           0      -15.301270    6.591706   -1.761579
     45          1           0      -15.744001    1.334399    3.941095
     46          1           0      -17.557474   -4.609853    2.251720
     47          1           0      -18.475791   -2.552161   -3.781117
     48          1           0      -15.901497    4.319646    0.367659
     49          1           0      -16.740322    3.554834    2.951061
     50          1           0      -14.190477    4.098089    1.759849
     51          1           0      -13.951956    2.579181    2.644358
     52          1           0      -14.615469    3.909323    3.510392
     53          1           0      -18.516668    3.974434    1.884650
     54          1           0      -18.685784    4.366529    0.152322
     55          1           0      -18.667917    6.260778    1.958353
     56          1           0      -18.077586    6.518484    0.364064
     57          1           0      -16.693873   -0.397443    6.347867
     58          1           0      -15.105140   -0.110811    5.542818
     59          1           0      -15.318017   -1.546723    6.335037
     60          1           0      -15.271366   -3.895225    6.427649
     61          1           0      -16.752234   -4.814497    6.781263
     62          1           0      -16.740738   -2.993442    6.848581
     63          1           0      -19.525243   -5.161438    0.374291
     64          1           0      -18.216224   -4.945416   -2.408598
     65          1           0      -16.674619   -5.892984    0.251740
     66          1           0      -17.686312   -6.670615   -1.057462
     67          1           0      -18.086291   -6.768837    0.661173
     68          1           0      -20.654944   -3.443596   -2.481682
     69          1           0      -20.948501   -4.866848   -1.569108
     70          1           0      -21.136120   -5.909889   -3.554462
     71          1           0      -19.418581   -5.686765   -3.797275
     72          1           0      -20.436100   -4.373853   -4.303139
     73          1           0      -17.893121   -1.242382   -5.733169
     74          1           0      -17.401191    0.333157   -5.900758
     75          1           0      -19.203895   -0.013101   -5.612416
     76          1           0      -18.091489    3.973741   -2.440247
     77          1           0      -15.159164    7.083084   -2.725154
     78          1           0      -14.391247    6.191881   -1.313942
     79          1           0      -15.601288    7.382494   -1.073579
     80         12           0       17.570737   -0.749512   -0.020250
     81          6           0       15.514128    2.015957    0.575975
     82          6           0       20.252970    1.354791    0.624370
     83          6           0       19.501055   -3.181557   -0.984769
     84          6           0       14.670922   -2.606385   -0.848967
     85          7           0       17.873094    1.584833    0.153743
     86          6           0       16.892488    2.413508    0.526744
     87          6           0       17.512863    3.726930    0.868367
     88          6           0       18.995988    3.594540    0.443650
     89          6           0       19.090390    2.081737    0.425733
     90          6           0       19.478406    4.246241   -0.853471
     91          6           0       17.371260    4.061751    2.387151
     92          6           0       16.836988    5.469378    2.806343
     93          1           0       17.110245    6.694166    1.878644
     94          7           0       19.645796   -0.944157   -0.020211
     95          6           0       20.535332    0.003006    0.469452
     96          6           0       21.831282   -0.591177    0.414322
     97          6           0       21.672201   -1.904250   -0.185743
     98          6           0       20.248088   -2.088928   -0.421712
     99          6           0       23.143150    0.126742    0.799927
    100          6           0       22.749471   -2.947756   -0.599396
    101          8           0       22.511162   -3.997360   -1.107288
    102          6           0       24.183066   -2.592880   -0.256972
    103          7           0       17.110666   -2.607744   -0.784468
    104          6           0       18.113368   -3.425687   -1.175543
    105          6           0       17.629830   -4.785374   -1.750883
    106          6           0       16.075346   -4.674301   -1.440781
    107          6           0       15.906963   -3.234388   -0.970528
    108          6           0       18.040030   -4.922946   -3.328680
    109          6           0       15.541797   -5.794795   -0.493878
    110          6           0       15.388044   -5.465055    0.980089
    111          7           0       15.466053   -0.447886   -0.102483
    112          6           0       14.433133   -1.306859   -0.364776
    113          6           0       13.141967   -0.554673   -0.184693
    114          6           0       13.543515    0.748657    0.185849
    115          6           0       14.976684    0.803590    0.190080
    116          6           0       11.750132   -1.020100   -0.516309
    117          6           0       13.067750    2.082877    0.543014
    118          8           0       11.900845    2.478654    0.615577
    119          6           0       14.310610    2.866583    0.954306
    120          6           0       14.247797    4.158262    0.190572
    121          8           0       14.538336    4.293645   -0.983851
    122          8           0       13.645542    5.021459    0.991951
    123          6           0       13.074518    6.223111    0.404161
    124          1           0       21.099987    2.040727    0.684128
    125          1           0       20.120229   -4.067205   -1.139952
    126          1           0       13.776400   -3.184887   -1.090302
    127          1           0       17.001066    4.508614    0.307896
    128          1           0       19.575582    4.087843    1.224031
    129          1           0       18.740292    4.825861   -1.408128
    130          1           0       19.879637    3.489837   -1.528562
    131          1           0       20.292532    4.912551   -0.569146
    132          1           0       18.269432    3.846634    2.965663
    133          1           0       16.644969    3.297213    2.662636
    134          1           0       17.325610    5.647944    3.765018
    135          1           0       15.759802    5.400544    2.955947
    136          1           0       23.899165    0.093412    0.015372
    137          1           0       23.659282   -0.368136    1.622754
    138          1           0       23.016390    1.166014    1.106024
    139          1           0       24.309392   -2.303038    0.786370
    140          1           0       24.512248   -1.820188   -0.951841
    141          1           0       24.850640   -3.410564   -0.528638
    142          1           0       18.065751   -5.638282   -1.230960
    143          1           0       15.452693   -4.820386   -2.323314
    144          1           0       17.094659   -4.820353   -3.861624
    145          1           0       18.374499   -5.923113   -3.605065
    146          1           0       18.673273   -4.114642   -3.696136
    147          1           0       16.333607   -6.543864   -0.509015
    148          1           0       14.627445   -6.256318   -0.866223
    149          1           0       16.299538   -4.917413    1.222687
    150          1           0       15.342948   -6.463131    1.415247
    151          1           0       14.596320   -4.800288    1.324617
    152          1           0       11.624097   -1.985281   -1.006957
    153          1           0       11.278984   -0.293857   -1.178799
    154          1           0       11.201150   -0.957027    0.422705
    155          1           0       14.308356    3.218645    1.986070
    156          1           0       13.062048    6.349385   -0.677956
    157          1           0       13.744414    7.003445    0.766604
    158          1           0       12.231339    6.533921    1.021171
 ---------------------------------------------------------------------

 SCF Done:  E(RCAM-B3LYP) =  -4069.81089328     A.U. after   17 cycles

 Excitation energies and oscillator strengths:

 Excited State   1:      Singlet-A      1.6462 eV  753.17 nm  f=0.3909  <S**2>=0.000
     309 -> 315       -0.17001
     312 -> 313        0.68912
     309 <- 315       -0.10749
 This state for optimization and/or second-order correction.
 Total Energy, E(TD-HF/TD-DFT) =  -4069.75039776
 Copying the excited state density for this state as the 1-particle RhoCI density.

 Excited State   2:      Singlet-A      1.7293 eV  716.96 nm  f=0.3983  <S**2>=0.000
     310 -> 316        0.18716
     311 -> 314        0.68375
     310 <- 316        0.10975

 Excited State   3:      Singlet-A      2.2139 eV  560.03 nm  f=0.0974  <S**2>=0.000
     310 -> 314        0.64246
     311 -> 316       -0.28225

 Excited State   4:      Singlet-A      2.2270 eV  556.73 nm  f=0.1154  <S**2>=0.000
     309 -> 313        0.63816
     312 -> 315        0.29155

 Excited State   5:      Singlet-A      3.0274 eV  409.54 nm  f=0.0000  <S**2>=0.000
     311 -> 313        0.70710

 The electronic state is 1-A.
 Alpha  occ. eigenvalues --  -46.88780 -46.87133 -19.26248 -19.25149 -19.19632
 Alpha  occ. eigenvalues --  -19.19401 -19.19207 -19.18742 -19.18612 -19.18480
 Alpha  occ. eigenvalues --  -14.42838 -14.41770 -14.41670 -14.41586 -14.39509
 Alpha  occ. eigenvalues --  -14.39302 -14.38742 -14.38727 -10.39142 -10.38574
 Alpha  occ. eigenvalues --  -10.35452 -10.35209 -10.35130 -10.34485 -10.32045
 Alpha  occ. eigenvalues --  -10.32025 -10.31338 -10.31254 -10.31059 -10.30936
 Alpha  occ. eigenvalues --  -10.30777 -10.30713 -10.30628 -10.30466 -10.30097
 Alpha  occ. eigenvalues --  -10.29838 -10.29726 -10.29549 -10.29476 -10.29370
 Alpha  occ. eigenvalues --  -10.29329 -10.29245 -10.28965 -10.28931 -10.28838
 Alpha  occ. eigenvalues --  -10.28729 -10.28361 -10.28270 -10.28231 -10.28195
 Alpha  occ. eigenvalues --  -10.28129 -10.28040 -10.28016 -10.27850 -10.27841
 Alpha  occ. eigenvalues --  -10.27781 -10.27636 -10.27548 -10.27518 -10.27498
 Alpha  occ. eigenvalues --  -10.27459 -10.27185 -10.27139 -10.27113 -10.27002
 Alpha  occ. eigenvalues --  -10.26796 -10.26684 -10.26675 -10.26594 -10.26473
 Alpha  occ. eigenvalues --  -10.26327 -10.26294 -10.25982 -10.25932 -10.25893
 Alpha  occ. eigenvalues --  -10.25823 -10.25783 -10.25745 -10.25592 -10.25461
 Alpha  occ. eigenvalues --  -10.25376 -10.25368 -10.25223 -10.25199 -10.25107
 Alpha  occ. eigenvalues --  -10.25063  -3.17236  -3.15991  -1.92144  -1.91727
 Alpha  occ. eigenvalues --   -1.91497  -1.90882  -1.90425  -1.90336  -1.18324
 Alpha  occ. eigenvalues --   -1.17290  -1.11355  -1.10124  -1.09600  -1.08660
 Alpha  occ. eigenvalues --   -1.07394  -1.07239  -1.05006  -1.04509  -1.03764
 Alpha  occ. eigenvalues --   -1.03554  -1.02703  -1.02590  -1.01851  -1.01396
 Alpha  occ. eigenvalues --   -0.93358  -0.93342  -0.89703  -0.88796  -0.88707
 Alpha  occ. eigenvalues --   -0.88607  -0.88572  -0.88012  -0.87666  -0.87210
 Alpha  occ. eigenvalues --   -0.87086  -0.86400  -0.86224  -0.85523  -0.84432
 Alpha  occ. eigenvalues --   -0.84318  -0.83804  -0.83718  -0.82606  -0.82465
 Alpha  occ. eigenvalues --   -0.81647  -0.81402  -0.81042  -0.80774  -0.80493
 Alpha  occ. eigenvalues --   -0.80014  -0.78345  -0.77898  -0.77766  -0.77346
 Alpha  occ. eigenvalues --   -0.77331  -0.76997  -0.76515  -0.76297  -0.75204
 Alpha  occ. eigenvalues --   -0.75104  -0.72871  -0.72665  -0.71835  -0.71698
 Alpha  occ. eigenvalues --   -0.69515  -0.69079  -0.68883  -0.68677  -0.68179
 Alpha  occ. eigenvalues --   -0.68035  -0.66689  -0.66091  -0.65849  -0.65343
 Alpha  occ. eigenvalues --   -0.65257  -0.64955  -0.64764  -0.64638  -0.64329
 Alpha  occ. eigenvalues --   -0.64066  -0.62798  -0.62324  -0.60311  -0.59921
 Alpha  occ. eigenvalues --   -0.59840  -0.59647  -0.59195  -0.58955  -0.58451
 Alpha  occ. eigenvalues --   -0.58361  -0.58091  -0.57988  -0.57698  -0.57298
 Alpha  occ. eigenvalues --   -0.56855  -0.56076  -0.55993  -0.55486  -0.55173
 Alpha  occ. eigenvalues --   -0.54964  -0.54949  -0.54781  -0.54665  -0.53931
 Alpha  occ. eigenvalues --   -0.53582  -0.53332  -0.53247  -0.52987  -0.52930
 Alpha  occ. eigenvalues --   -0.52879  -0.52543  -0.52509  -0.52422  -0.52134
 Alpha  occ. eigenvalues --   -0.52015  -0.51964  -0.51687  -0.51331  -0.51298
 Alpha  occ. eigenvalues --   -0.51227  -0.51140  -0.51032  -0.50301  -0.50119
 Alpha  occ. eigenvalues --   -0.50085  -0.49968  -0.49669  -0.49598  -0.49392
 Alpha  occ. eigenvalues --   -0.49187  -0.48994  -0.48862  -0.48835  -0.48659
 Alpha  occ. eigenvalues --   -0.48374  -0.48359  -0.48213  -0.48105  -0.47985
 Alpha  occ. eigenvalues --   -0.47953  -0.47754  -0.47311  -0.47289  -0.47203
 Alpha  occ. eigenvalues --   -0.46883  -0.46696  -0.46589  -0.46394  -0.46344
 Alpha  occ. eigenvalues --   -0.46005  -0.45909  -0.45889  -0.45853  -0.45644
 Alpha  occ. eigenvalues --   -0.45579  -0.45342  -0.45183  -0.44992  -0.44898
 Alpha  occ. eigenvalues --   -0.44810  -0.44761  -0.44534  -0.44440  -0.44038
 Alpha  occ. eigenvalues --   -0.43879  -0.43741  -0.43499  -0.43318  -0.43274
 Alpha  occ. eigenvalues --   -0.43245  -0.43162  -0.43051  -0.42934  -0.42701
 Alpha  occ. eigenvalues --   -0.42397  -0.42335  -0.42155  -0.42030  -0.41938
 Alpha  occ. eigenvalues --   -0.41742  -0.41639  -0.41401  -0.41190  -0.40988
 Alpha  occ. eigenvalues --   -0.40968  -0.40880  -0.40711  -0.40483  -0.40421
 Alpha  occ. eigenvalues --   -0.40377  -0.40266  -0.40038  -0.39608  -0.39278
 Alpha  occ. eigenvalues --   -0.38378  -0.38237  -0.37957  -0.37605  -0.37183
 Alpha  occ. eigenvalues --   -0.37145  -0.37093  -0.37018  -0.36705  -0.36600
 Alpha  occ. eigenvalues --   -0.36382  -0.36203  -0.34583  -0.34385  -0.34119
 Alpha  occ. eigenvalues --   -0.34047  -0.33329  -0.33138  -0.31522  -0.31393
 Alpha  occ. eigenvalues --   -0.30765  -0.30720  -0.30700  -0.30367  -0.29935
 Alpha  occ. eigenvalues --   -0.29907  -0.29563  -0.28937  -0.24301  -0.23776
 Alpha  occ. eigenvalues --   -0.21057  -0.21023
 Alpha virt. eigenvalues --   -0.08951  -0.08470  -0.01606  -0.01502   0.00125
 Alpha virt. eigenvalues --    0.00210   0.02178   0.02833   0.02891   0.03176
 Alpha virt. eigenvalues --    0.04781   0.05077   0.05481   0.05622   0.05882

 Mulliken charges:
               1
     1  Mg  12.004672
     2  C    5.973734
     3  C    6.009386
     4  C    6.035926
     5  C    6.009605
     6  N    6.986793
     7  C    6.036155
     8  C    5.987012
     9  C    6.010821
    10  C    5.963701
    11  C    6.005254
    12  C    5.997012
    13  C    5.999797
    14  H    1.006819
    15  N    7.007057
    16  C    5.950849
    17  C    5.987653
    18  C    5.974961
    19  C    5.963634
    20  C    6.004827
    21  C    5.986909
    22  O    7.961327
    23  C    6.005834
    24  N    7.021028
    25  C    5.961827
    26  C    6.010890
    27  C    5.987020
    28  C    6.018914
    29  C    6.000294
    30  C    5.993141
    31  C    5.999658
    32  N    6.994708
    33  C    6.025647
    34  C    6.035939
    35  C    6.001938
    36  C    6.035671
    37  C    5.995002
    38  C    6.012820
    39  O    8.025315
    40  C    6.004332
    41  C    6.002918
    42  O    8.002447
    43  O    8.002095
    44  C    5.997827
    45  H    0.984355
    46  H    1.002280
    47  H    1.015978
    48  H    0.999758
    49  H    0.995936
    50  H    0.983461
    51  H    1.000675
    52  H    0.996407
    53  H    1.012910
    54  H    0.992181
    55  H    1.002750
    56  H    0.995446
    57  H    0.979573
    58  H    0.985461
    59  H    0.984124
    60  H    0.989131
    61  H    0.984193
    62  H    0.992665
    63  H    1.003324
    64  H    1.004552
    65  H    1.004922
    66  H    0.990998
    67  H    1.004920
    68  H    0.997699
    69  H    1.013765
    70  H    1.007727
    71  H    1.004240
    72  H    0.995328
    73  H    1.019245
    74  H    1.017709
    75  H    1.023848
    76  H    1.003952
    77  H    1.000615
    78  H    1.005442
    79  H    1.005257
    80  Mg  12.000012
    81  C    6.000010
    82  C    6.000054
    83  C    6.000032
    84  C    5.999961
    85  N    7.000041
    86  C    6.000057
    87  C    5.999989
    88  C    6.000027
    89  C    5.999881
    90  C    6.000021
    91  C    5.999981
    92  C    5.999999
    93  H    0.999940
    94  N    6.999996
    95  C    5.999855
    96  C    5.999962
    97  C    5.999931
    98  C    5.999869
    99  C    6.000028
   100  C    5.999933
   101  O    7.999894
   102  C    6.000040
   103  N    6.999941
   104  C    5.999923
   105  C    6.000053
   106  C    5.999971
   107  C    6.000099
   108  C    6.000038
   109  C    5.999976
   110  C    5.999975
   111  N    7.000020
   112  C    6.000129
   113  C    6.000143
   114  C    6.000014
   115  C    6.000092
   116  C    5.999976
   117  C    6.000068
   118  O    8.000147
   119  C    5.999986
   120  C    6.000007
   121  O    7.999955
   122  O    8.000035
   123  C    5.999985
   124  H    0.999948
   125  H    0.999962
   126  H    1.000031
   127  H    0.999972
   128  H    0.999998
   129  H    0.999903
   130  H    0.999979
   131  H    0.999975
   132  H    1.000072
   133  H    1.000026
   134  H    1.000061
   135  H    1.000027
   136  H    0.999895
   137  H    0.999949
   138  H    0.999931
   139  H    1.000001
   140  H    0.999930
   141  H    0.999924
   142  H    1.000012
   143  H    0.999960
   144  H    0.999901
   145  H    0.999959
   146  H    0.999968
   147  H    1.000031
   148  H    1.000008
   149  H    1.000023
   150  H    1.000084
   151  H    1.000036
   152  H    1.000055
   153  H    0.999993
   154  H    1.000207
   155  H    1.000109
   156  H    0.999922
   157  H    1.000025
   158  H    1.000079
 Sum of Mulliken charges = 624.00000

 Dipole moment (field-independent basis, Debye):
    X=             -2.2209    Y=              2.1964    Z=            -10.7468  Tot=             11.1916
 Quadrupole moment (field-independent basis, Debye-Ang):
   XX=             73.6507   YY=             -1.7862   ZZ=             -7.0389
   XY=            -34.2339   XZ=            183.6460   YZ=             10.8549

 Normal termination of Gaussian 16 at Wed Sep 22 23:14:25 2021.
