 Gaussian 16, Revision A.03,
 Gaussian 16:  ES64L-G16RevA.03 25-Dec-2016

 -----------------------------------
 #p cam-b3lyp/Def2SVP td=(nstates=5)
 -----------------------------------

 --------------------------------
 TDDFT excited states in gaussian
 --------------------------------
 Symbolic Z-matrix:
 Charge =  0 Multiplicity = 1

                         Standard orientation:
 ---------------------------------------------------------------------
 Center     Atomic      Atomic             Coordinates (Angstroms)
 Number     Number       Type             X           Y           Z
 ---------------------------------------------------------------------
      1         12           0       16.438545   -0.611181    0.355540
      2          6           0       15.261999    2.423224   -1.184045
      3          6           0       17.569156    1.327824    2.927664
      4          6           0       17.796574   -3.399602    1.633013
      5          6           0       15.665290   -2.253654   -2.517702
      6          7           0       16.355115    1.717177    0.834539
      7          6           0       15.780785    2.672604    0.047306
      8          6           0       15.775960    3.934067    0.824498
      9          6           0       16.633215    3.641335    2.086953
     10          6           0       16.958008    2.125621    1.988990
     11          6           0       17.945269    4.488379    2.108990
     12          6           0       14.417214    4.501595    1.150803
     13          6           0       14.318677    5.902295    1.733275
     14          1           0       13.363102    6.821020    1.095506
     15          7           0       17.419013   -0.994490    2.075449
     16          6           0       17.896084   -0.020507    2.995528
     17          6           0       18.477925   -0.764650    4.128367
     18          6           0       18.608287   -2.081002    3.693481
     19          6           0       17.973261   -2.194393    2.367948
     20          6           0       18.970001   -0.048079    5.368482
     21          6           0       19.201794   -3.305180    4.423591
     22          8           0       19.475900   -4.384814    3.866835
     23          6           0       19.421614   -3.172468    5.875284
     24          7           0       16.769242   -2.578721   -0.357720
     25          6           0       17.320328   -3.573713    0.306662
     26          6           0       17.389543   -4.895819   -0.505934
     27          6           0       16.489077   -4.545561   -1.692602
     28          6           0       16.256568   -3.065055   -1.495715
     29          6           0       18.857915   -5.233077   -0.933148
     30          6           0       15.195053   -5.317306   -1.820233
     31          6           0       14.808987   -5.788573   -3.233553
     32          7           0       15.554595   -0.055834   -1.418126
     33          6           0       15.297531   -0.867976   -2.500996
     34          6           0       14.591512   -0.120848   -3.585246
     35          6           0       14.619773    1.148538   -3.043824
     36          6           0       15.238346    1.172015   -1.787993
     37          6           0       13.920804   -0.661056   -4.807262
     38          6           0       14.219572    2.516891   -3.336952
     39          8           0       13.608406    2.923274   -4.318804
     40          6           0       14.612038    3.420029   -2.145247
     41          6           0       15.332709    4.537905   -2.698884
     42          8           0       16.517574    4.541893   -3.111441
     43          8           0       14.603818    5.680595   -2.566811
     44          6           0       15.253359    6.950505   -2.807905
     45          1           0       17.859869    1.921845    3.796321
     46          1           0       18.375551   -4.263776    1.964878
     47          1           0       15.675116   -2.808589   -3.457928
     48          1           0       16.312741    4.619516    0.169968
     49          1           0       16.098515    3.857442    3.012045
     50          1           0       18.260674    5.087124    2.964047
     51          1           0       17.822491    5.185389    1.280163
     52          1           0       18.842893    3.958420    1.789246
     53          1           0       13.919352    3.913826    1.922196
     54          1           0       13.694343    4.309223    0.358474
     55          1           0       15.281512    6.408509    1.682746
     56          1           0       13.833166    5.774080    2.700367
     57          1           0       19.955464   -0.366059    5.708214
     58          1           0       18.296444   -0.124650    6.221799
     59          1           0       19.131567    1.023151    5.245712
     60          1           0       18.500599   -2.808168    6.330607
     61          1           0       20.199830   -2.411442    5.921212
     62          1           0       19.581380   -4.181419    6.253753
     63          1           0       16.956220   -5.665518    0.133648
     64          1           0       16.945937   -4.618638   -2.679123
     65          1           0       18.991413   -5.149121   -2.011274
     66          1           0       19.113350   -6.264864   -0.691701
     67          1           0       19.480507   -4.496336   -0.425284
     68          1           0       14.351551   -4.764255   -1.408252
     69          1           0       15.260966   -6.068133   -1.033489
     70          1           0       14.205152   -6.686857   -3.108564
     71          1           0       15.665111   -5.881296   -3.902513
     72          1           0       14.230082   -4.934814   -3.585154
     73          1           0       12.838085   -0.753928   -4.720398
     74          1           0       14.475662   -1.563767   -5.061300
     75          1           0       14.208473   -0.056606   -5.668383
     76          1           0       13.668334    3.855108   -1.816386
     77          1           0       16.329325    6.887092   -2.972479
     78          1           0       14.998707    7.666683   -2.027139
     79          1           0       14.869309    7.442348   -3.701987
     80         12           0      -16.141586   -0.872377   -0.080858
     81          6           0      -18.168592    1.788842    1.034191
     82          6           0      -13.823248    1.438880   -1.127192
     83          6           0      -14.187490   -3.345737   -1.240391
     84          6           0      -18.759403   -3.128201    0.468214
     85          7           0      -16.037403    1.303313    0.110983
     86          6           0      -16.881017    2.224696    0.567226
     87          6           0      -16.404808    3.690623    0.497588
     88          6           0      -15.150615    3.439724   -0.472083
     89          6           0      -15.016089    1.938135   -0.541256
     90          6           0      -15.309783    4.053106   -1.842032
     91          6           0      -15.974644    4.324824    1.933665
     92          6           0      -16.122362    5.848269    1.986036
     93          1           0      -17.124168    6.351864    3.056852
     94          7           0      -14.157519   -0.984509   -0.920401
     95          6           0      -13.392711    0.139967   -1.318159
     96          6           0      -12.069239   -0.348607   -1.633514
     97          6           0      -12.133387   -1.738964   -1.653229
     98          6           0      -13.524512   -2.108419   -1.243268
     99          6           0      -10.928156    0.538195   -2.094981
    100          6           0      -11.081435   -2.787998   -1.931949
    101          8           0      -11.351670   -3.947085   -1.810230
    102          6           0       -9.673533   -2.427334   -2.287299
    103          7           0      -16.476251   -2.897816   -0.539855
    104          6           0      -15.484732   -3.742797   -0.945587
    105          6           0      -16.102268   -5.168753   -0.953144
    106          6           0      -17.230966   -5.145041    0.061944
    107          6           0      -17.569702   -3.636567    0.011569
    108          6           0      -16.674841   -5.464368   -2.338645
    109          6           0      -16.865991   -5.649675    1.408846
    110          6           0      -15.587030   -5.170872    2.050013
    111          7           0      -18.069948   -0.766572    0.635352
    112          6           0      -19.036441   -1.740398    0.802787
    113          6           0      -20.242787   -1.118053    1.369821
    114          6           0      -19.920354    0.244760    1.491709
    115          6           0      -18.635130    0.399242    1.048635
    116          6           0      -21.509777   -1.792387    1.676339
    117          6           0      -20.342332    1.512698    2.023842
    118          8           0      -21.402834    1.844991    2.630377
    119          6           0      -19.159592    2.558183    1.753407
    120          6           0      -19.736762    3.632644    0.868685
    121          8           0      -20.377884    3.392186   -0.111031
    122          8           0      -19.419264    4.967599    1.238840
    123          6           0      -19.709141    6.000852    0.198560
    124          1           0      -13.098562    2.158126   -1.512948
    125          1           0      -13.626222   -4.162722   -1.699407
    126          1           0      -19.548446   -3.793859    0.824998
    127          1           0      -17.206790    4.326018    0.119758
    128          1           0      -14.318250    3.908460    0.054303
    129          1           0      -14.774751    5.002140   -1.811748
    130          1           0      -16.351156    4.121933   -2.157237
    131          1           0      -14.690420    3.424008   -2.481267
    132          1           0      -14.930344    4.091061    2.143080
    133          1           0      -16.538198    3.859676    2.742709
    134          1           0      -16.412139    6.071622    0.959066
    135          1           0      -15.162508    6.350115    2.106732
    136          1           0      -11.216322    1.535855   -1.765891
    137          1           0      -11.023045    0.505107   -3.179965
    138          1           0       -9.974070    0.255419   -1.649702
    139          1           0       -9.335749   -2.059298   -1.318358
    140          1           0       -9.580657   -1.626672   -3.020569
    141          1           0       -9.126378   -3.312201   -2.614270
    142          1           0      -15.401236   -5.980162   -0.760608
    143          1           0      -18.098238   -5.754200   -0.190571
    144          1           0      -17.749667   -5.394787   -2.506316
    145          1           0      -16.361313   -6.472478   -2.609585
    146          1           0      -16.188618   -4.796859   -3.050978
    147          1           0      -16.870049   -6.739153    1.449857
    148          1           0      -17.689902   -5.319706    2.041337
    149          1           0      -15.895596   -4.553648    2.894257
    150          1           0      -14.829443   -4.586955    1.526484
    151          1           0      -15.080858   -6.035818    2.478392
    152          1           0      -21.986409   -2.061358    0.733754
    153          1           0      -22.053761   -1.059816    2.272489
    154          1           0      -21.344660   -2.731526    2.206117
    155          1           0      -18.842329    2.872259    2.747963
    156          1           0      -20.775401    6.225761    0.176044
    157          1           0      -19.390853    5.704483   -0.801959
    158          1           0      -19.282244    6.987834    0.374362
 ---------------------------------------------------------------------

 SCF Done:  E(RCAM-B3LYP) =  -4069.81484132     A.U. after   18 cycles

 Excitation energies and oscillator strengths:

 Excited State   1:      Singlet-A      1.6958 eV  731.11 nm  f=0.3728  <S**2>=0.000
     309 -> 316        0.17406
     311 -> 313        0.68754
     309 <- 316        0.10607
 This state for optimization and/or second-order correction.
 Total Energy, E(TD-HF/TD-DFT) =  -4069.75252019
 Copying the excited state density for this state as the 1-particle RhoCI density.

 Excited State   2:      Singlet-A      1.7540 eV  706.85 nm  f=0.3768  <S**2>=0.000
     310 -> 315        0.19888
     312 -> 314        0.68111
     310 <- 315        0.11269

 Excited State   3:      Singlet-A      2.1842 eV  567.63 nm  f=0.1177  <S**2>=0.000
     309 -> 313        0.64717
     311 -> 316       -0.27032

 Excited State   4:      Singlet-A      2.3188 eV  534.70 nm  f=0.0717  <S**2>=0.000
     310 -> 314        0.61703
     312 -> 315       -0.33881

 Excited State   5:      Singlet-A      2.9802 eV  416.02 nm  f=0.0000  <S**2>=0.000
     312 -> 313        0.70709

 The electronic state is 1-A.
 Alpha  occ. eigenvalues --  -46.88630 -46.88578 -19.25246 -19.24505 -19.20050
 Alpha  occ. eigenvalues --  -19.19101 -19.19088 -19.18918 -19.18690 -19.18247
 Alpha  occ. eigenvalues --  -14.43422 -14.41983 -14.41347 -14.41180 -14.39841
 Alpha  occ. eigenvalues --  -14.39713 -14.39677 -14.39063 -10.39404 -10.39221
 Alpha  occ. eigenvalues --  -10.35319 -10.35193 -10.34748 -10.34533 -10.31857
 Alpha  occ. eigenvalues --  -10.31688 -10.31300 -10.31279 -10.31127 -10.30955
 Alpha  occ. eigenvalues --  -10.30829 -10.30682 -10.30636 -10.30615 -10.30553
 Alpha  occ. eigenvalues --  -10.30526 -10.30482 -10.30470 -10.30160 -10.29443
 Alpha  occ. eigenvalues --  -10.29395 -10.29110 -10.28863 -10.28812 -10.28687
 Alpha  occ. eigenvalues --  -10.28479 -10.28393 -10.28373 -10.28317 -10.28246
 Alpha  occ. eigenvalues --  -10.28206 -10.28198 -10.28133 -10.28089 -10.28064
 Alpha  occ. eigenvalues --  -10.28034 -10.27682 -10.27609 -10.27535 -10.27402
 Alpha  occ. eigenvalues --  -10.27303 -10.27232 -10.27153 -10.27133 -10.27127
 Alpha  occ. eigenvalues --  -10.27042 -10.26995 -10.26701 -10.26658 -10.26593
 Alpha  occ. eigenvalues --  -10.26420 -10.26369 -10.26298 -10.26162 -10.26054
 Alpha  occ. eigenvalues --  -10.26010 -10.25995 -10.25841 -10.25771 -10.25627
 Alpha  occ. eigenvalues --  -10.25406 -10.25124 -10.25112 -10.24683 -10.24473
 Alpha  occ. eigenvalues --  -10.24433  -3.17183  -3.17125  -1.92092  -1.92047
 Alpha  occ. eigenvalues --   -1.91630  -1.91556  -1.91496  -1.91441  -1.16193
 Alpha  occ. eigenvalues --   -1.15620  -1.12123  -1.09556  -1.09133  -1.07387
 Alpha  occ. eigenvalues --   -1.06661  -1.06038  -1.05843  -1.05304  -1.04656
 Alpha  occ. eigenvalues --   -1.03545  -1.03153  -1.02942  -1.02258  -1.01776
 Alpha  occ. eigenvalues --   -0.93243  -0.92958  -0.90166  -0.90055  -0.89446
 Alpha  occ. eigenvalues --   -0.89397  -0.88840  -0.88553  -0.87855  -0.87665
 Alpha  occ. eigenvalues --   -0.87155  -0.86942  -0.86702  -0.86228  -0.84752
 Alpha  occ. eigenvalues --   -0.84714  -0.84142  -0.83581  -0.83011  -0.82678
 Alpha  occ. eigenvalues --   -0.82635  -0.82481  -0.81320  -0.81121  -0.80956
 Alpha  occ. eigenvalues --   -0.79929  -0.78918  -0.78743  -0.77795  -0.77521
 Alpha  occ. eigenvalues --   -0.77354  -0.77115  -0.76651  -0.76292  -0.75322
 Alpha  occ. eigenvalues --   -0.74997  -0.73067  -0.72465  -0.72030  -0.71340
 Alpha  occ. eigenvalues --   -0.69713  -0.69619  -0.69341  -0.68857  -0.68165
 Alpha  occ. eigenvalues --   -0.67850  -0.67131  -0.66607  -0.66496  -0.65837
 Alpha  occ. eigenvalues --   -0.65488  -0.65186  -0.64947  -0.64635  -0.64211
 Alpha  occ. eigenvalues --   -0.63418  -0.62622  -0.61776  -0.60483  -0.60391
 Alpha  occ. eigenvalues --   -0.59981  -0.59947  -0.59566  -0.59154  -0.58990
 Alpha  occ. eigenvalues --   -0.58851  -0.58617  -0.58475  -0.57689  -0.57602
 Alpha  occ. eigenvalues --   -0.56541  -0.56403  -0.55829  -0.55769  -0.55593
 Alpha  occ. eigenvalues --   -0.54793  -0.54551  -0.54518  -0.54107  -0.54097
 Alpha  occ. eigenvalues --   -0.53988  -0.53966  -0.53725  -0.53622  -0.53557
 Alpha  occ. eigenvalues --   -0.53243  -0.53052  -0.53045  -0.52445  -0.52049
 Alpha  occ. eigenvalues --   -0.51955  -0.51890  -0.51767  -0.51639  -0.51536
 Alpha  occ. eigenvalues --   -0.51287  -0.50865  -0.50849  -0.50741  -0.50558
 Alpha  occ. eigenvalues --   -0.50368  -0.50210  -0.50020  -0.50009  -0.49731
 Alpha  occ. eigenvalues --   -0.49699  -0.49593  -0.49217  -0.49151  -0.49083
 Alpha  occ. eigenvalues --   -0.48716  -0.48459  -0.48414  -0.48309  -0.48230
 Alpha  occ. eigenvalues --   -0.48032  -0.47875  -0.47742  -0.47657  -0.47436
 Alpha  occ. eigenvalues --   -0.47310  -0.47184  -0.47080  -0.46717  -0.46613
 Alpha  occ. eigenvalues --   -0.46363  -0.46308  -0.46120  -0.45886  -0.45646
 Alpha  occ. eigenvalues --   -0.45566  -0.45413  -0.45228  -0.45217  -0.45128
 Alpha  occ. eigenvalues --   -0.44964  -0.44603  -0.44328  -0.44178  -0.44037
 Alpha  occ. eigenvalues --   -0.43940  -0.43781  -0.43740  -0.43512  -0.43490
 Alpha  occ. eigenvalues --   -0.43224  -0.43165  -0.43114  -0.42859  -0.42576
 Alpha  occ. eigenvalues --   -0.42533  -0.42511  -0.42474  -0.42119  -0.41831
 Alpha  occ. eigenvalues --   -0.41830  -0.41760  -0.41638  -0.41567  -0.41308
 Alpha  occ. eigenvalues --   -0.41144  -0.41052  -0.40940  -0.40939  -0.40388
 Alpha  occ. eigenvalues --   -0.40282  -0.40198  -0.40008  -0.39756  -0.39532
 Alpha  occ. eigenvalues --   -0.38888  -0.38353  -0.37987  -0.37724  -0.37293
 Alpha  occ. eigenvalues --   -0.37138  -0.37117  -0.36439  -0.36202  -0.36149
 Alpha  occ. eigenvalues --   -0.36077  -0.35724  -0.34691  -0.34527  -0.33891
 Alpha  occ. eigenvalues --   -0.33611  -0.33214  -0.33084  -0.31720  -0.31640
 Alpha  occ. eigenvalues --   -0.31376  -0.31115  -0.30666  -0.30620  -0.30337
 Alpha  occ. eigenvalues --   -0.30323  -0.30018  -0.29338  -0.24151  -0.24149
 Alpha  occ. eigenvalues --   -0.21396  -0.20987
 Alpha virt. eigenvalues --   -0.08969  -0.08224  -0.01867  -0.01747   0.00429
 Alpha virt. eigenvalues --    0.00674   0.02165   0.02445   0.02942   0.03251
 Alpha virt. eigenvalues --    0.04478   0.04644   0.05291   0.05448   0.05610

 Mulliken charges:
               1
     1  Mg   0.834395
     2  C    0.024649
     3  C   -0.055731
     4  C   -0.051635
     5  C   -0.106253
     6  N   -0.264143
     7  C   -0.113567
     8  C    0.060371
     9  C   -0.062170
    10  C    0.034844
    11  C    0.055086
    12  C    0.051987
    13  C   -0.062099
    14  H    0.017621
    15  N   -0.433233
    16  C    0.175059
    17  C   -0.115141
    18  C   -0.045455
    19  C    0.143504
    20  C    0.083538
    21  C    0.007339
    22  O   -0.223139
    23  C    0.070557
    24  N   -0.254228
    25  C   -0.036978
    26  C   -0.004011
    27  C   -0.057322
    28  C    0.011903
    29  C    0.079521
    30  C    0.047623
    31  C    0.022753
    32  N   -0.327794
    33  C    0.125466
    34  C   -0.201420
    35  C    0.044203
    36  C    0.113375
    37  C    0.151072
    38  C   -0.008690
    39  O   -0.172962
    40  C    0.036432
    41  C    0.195469
    42  O   -0.253600
    43  O   -0.318375
    44  C    0.171983
    45  H   -0.038278
    46  H    0.004268
    47  H   -0.019179
    48  H    0.008474
    49  H    0.010533
    50  H    0.018423
    51  H   -0.002271
    52  H    0.013876
    53  H   -0.010941
    54  H    0.002063
    55  H    0.034975
    56  H    0.034160
    57  H    0.018667
    58  H    0.030385
    59  H    0.016812
    60  H    0.031137
    61  H    0.040968
    62  H    0.035999
    63  H    0.017101
    64  H    0.006296
    65  H    0.011897
    66  H    0.025688
    67  H    0.033388
    68  H   -0.002113
    69  H   -0.015521
    70  H    0.028558
    71  H    0.017536
    72  H    0.021482
    73  H    0.054730
    74  H   -0.004337
    75  H    0.025634
    76  H    0.050831
    77  H    0.050069
    78  H    0.029536
    79  H    0.028349
    80  Mg   0.813690
    81  C   -0.040303
    82  C   -0.100314
    83  C   -0.056121
    84  C   -0.065204
    85  N   -0.248678
    86  C   -0.044829
    87  C   -0.042244
    88  C   -0.088367
    89  C    0.097198
    90  C    0.104622
    91  C    0.047574
    92  C   -0.047319
    93  H    0.044985
    94  N   -0.365824
    95  C    0.130103
    96  C   -0.165522
    97  C   -0.010018
    98  C    0.115989
    99  C    0.118475
   100  C   -0.027547
   101  O   -0.177958
   102  C    0.053328
   103  N   -0.336412
   104  C    0.059186
   105  C   -0.036038
   106  C    0.001095
   107  C    0.092593
   108  C    0.078977
   109  C    0.053794
   110  C   -0.013951
   111  N   -0.352949
   112  C    0.068133
   113  C   -0.192129
   114  C    0.046579
   115  C    0.100676
   116  C    0.125871
   117  C    0.022993
   118  O   -0.217240
   119  C    0.037655
   120  C    0.193554
   121  O   -0.181802
   122  O   -0.372709
   123  C    0.178947
   124  H   -0.015732
   125  H   -0.006735
   126  H   -0.026825
   127  H    0.020231
   128  H    0.010233
   129  H    0.008639
   130  H    0.034984
   131  H    0.001667
   132  H    0.003155
   133  H    0.019022
   134  H    0.008216
   135  H    0.020931
   136  H    0.008455
   137  H    0.052563
   138  H    0.037131
   139  H    0.038070
   140  H    0.030967
   141  H    0.035333
   142  H   -0.003225
   143  H   -0.009960
   144  H    0.023931
   145  H    0.009690
   146  H    0.009366
   147  H    0.006453
   148  H   -0.008915
   149  H    0.008018
   150  H    0.038126
   151  H    0.006302
   152  H    0.030664
   153  H    0.042251
   154  H    0.013554
   155  H    0.046786
   156  H    0.037696
   157  H    0.033019
   158  H    0.033399
 Sum of Mulliken charges =  -0.00000

 Dipole moment (field-independent basis, Debye):
    X=              6.3185    Y=              0.6265    Z=              2.5186  Tot=              6.8308
 Quadrupole moment (field-independent basis, Debye-Ang):
   XX=           -762.5004   YY=           -475.0476   ZZ=           -515.2008
   XY=             15.3382   XZ=            107.3020   YZ=             19.2947

 Normal termination of Gaussian 16 at Wed Sep 15 23:10:49 2021.
