 Gaussian 16, Revision A.03,
 Gaussian 16:  ES64L-G16RevA.03 25-Dec-2016

 -----------------------------------
 #p cam-b3lyp/Def2SVP td=(nstates=5)
 -----------------------------------

 --------------------------------
 TDDFT excited states in gaussian
 --------------------------------
 Symbolic Z-matrix:
 Charge =  0 Multiplicity = 1

                         Standard orientation:
 ---------------------------------------------------------------------
 Center     Atomic      Atomic             Coordinates (Angstroms)
 Number     Number       Type             X           Y           Z
 ---------------------------------------------------------------------
      1         12           0       -9.796796   -0.884356    0.353454
      2          6           0       -9.636839    2.701675   -0.193150
      3          6           0       -7.830910   -0.324521    3.034269
      4          6           0       -9.901521   -4.048073    0.780901
      5          6           0      -11.572782   -1.191261   -2.694259
      6          7           0       -8.842108    1.094269    1.341967
      7          6           0       -9.004044    2.382120    0.992579
      8          6           0       -8.389051    3.305581    2.061493
      9          6           0       -7.459916    2.211855    2.767893
     10          6           0       -8.103556    0.936270    2.418363
     11          6           0       -5.952538    2.353646    2.638757
     12          6           0       -9.524013    3.901624    2.912087
     13          6           0       -9.141158    5.263137    3.563500
     14          1           0       -7.842188    6.096792    3.148035
     15          7           0       -9.006022   -2.080306    1.771573
     16          6           0       -8.134873   -1.699506    2.774185
     17          6           0       -7.722406   -2.902367    3.491003
     18          6           0       -8.385050   -3.999823    2.887925
     19          6           0       -9.133309   -3.378953    1.758356
     20          6           0       -6.786546   -2.912581    4.616619
     21          6           0       -8.394858   -5.563653    3.300715
     22          8           0       -9.150181   -6.343741    2.788510
     23          6           0       -7.667856   -6.067430    4.560447
     24          7           0      -10.399697   -2.416022   -0.957614
     25          6           0      -10.471764   -3.642824   -0.447463
     26          6           0      -11.181561   -4.639629   -1.323728
     27          6           0      -12.019710   -3.657922   -2.178620
     28          6           0      -11.153898   -2.359856   -2.028438
     29          6           0      -10.209282   -5.530447   -2.228846
     30          6           0      -13.540940   -3.490164   -1.761504
     31          6           0      -14.297135   -4.673882   -1.091055
     32          7           0      -10.382264    0.404589   -1.198558
     33          6           0      -11.125483    0.195610   -2.313326
     34          6           0      -11.472138    1.391025   -2.937762
     35          6           0      -10.871031    2.349717   -2.173139
     36          6           0      -10.228820    1.750660   -1.107515
     37          6           0      -12.380593    1.538592   -4.155258
     38          6           0      -10.726525    3.810788   -2.088739
     39          8           0      -10.978420    4.720031   -2.865184
     40          6           0       -9.965306    4.060897   -0.714292
     41          6           0       -8.829055    4.920643   -0.995984
     42          8           0       -7.751692    4.587327   -1.499674
     43          8           0       -9.256003    6.192796   -0.853975
     44          6           0       -8.353603    7.153834   -1.462386
     45          1           0       -7.053825   -0.159556    3.783624
     46          1           0       -9.882219   -5.128208    0.936716
     47          1           0      -12.203402   -1.328317   -3.574954
     48          1           0       -7.727977    4.049634    1.616943
     49          1           0       -7.616391    2.343705    3.837645
     50          1           0       -5.479924    2.592383    3.591032
     51          1           0       -5.708172    3.134439    1.918762
     52          1           0       -5.457182    1.475871    2.223685
     53          1           0       -9.678284    3.232142    3.758605
     54          1           0      -10.480382    3.967798    2.393684
     55          1           0       -9.177150    5.213893    4.652266
     56          1           0      -10.059892    5.834681    3.432463
     57          1           0       -6.754612   -1.949065    5.124820
     58          1           0       -5.819833   -3.160443    4.177955
     59          1           0       -7.029392   -3.641118    5.390467
     60          1           0       -8.085764   -5.686347    5.492205
     61          1           0       -6.614562   -5.865387    4.364661
     62          1           0       -7.688262   -7.157218    4.587518
     63          1           0      -11.710586   -5.260140   -0.600796
     64          1           0      -12.037503   -3.920074   -3.236196
     65          1           0      -10.626935   -6.525963   -2.080211
     66          1           0       -9.166509   -5.526199   -1.909564
     67          1           0      -10.230421   -5.318962   -3.297244
     68          1           0      -14.101888   -3.144990   -2.628843
     69          1           0      -13.445972   -2.755208   -0.961978
     70          1           0      -14.143171   -4.660423   -0.012339
     71          1           0      -13.921368   -5.545493   -1.628097
     72          1           0      -15.365382   -4.653864   -1.304015
     73          1           0      -13.063346    0.691154   -4.089235
     74          1           0      -11.852925    1.425366   -5.101828
     75          1           0      -12.898397    2.494621   -4.079984
     76          1           0      -10.678534    4.557946   -0.055555
     77          1           0       -8.696614    8.184426   -1.375728
     78          1           0       -7.986278    6.915171   -2.460627
     79          1           0       -7.417544    7.200191   -0.904772
     80         12           0        9.850044   -0.621825   -0.243890
     81          6           0        7.901717    2.315217   -0.239004
     82          6           0       12.416276    1.284769    1.069114
     83          6           0       11.892895   -3.356422   -0.301575
     84          6           0        7.393368   -2.269360   -1.831228
     85          7           0       10.115541    1.573733    0.386900
     86          6           0        9.150457    2.572603    0.432409
     87          6           0        9.659466    3.764806    1.217475
     88          6           0       11.211001    3.522830    1.290533
     89          6           0       11.238707    2.058464    0.914234
     90          6           0       12.096515    4.477323    0.397191
     91          6           0        9.078473    3.847888    2.636877
     92          6           0        8.793382    5.263750    3.149155
     93          1           0        9.997388    6.195271    3.461738
     94          7           0       11.830221   -1.017057    0.382473
     95          6           0       12.671975   -0.062953    0.842506
     96          6           0       13.960545   -0.646106    1.030708
     97          6           0       13.867219   -2.059999    0.787337
     98          6           0       12.532227   -2.176430    0.227589
     99          6           0       15.147741    0.162763    1.474424
    100          6           0       14.898959   -3.183442    0.890329
    101          8           0       14.572631   -4.387036    0.793263
    102          6           0       16.392504   -2.915467    1.037231
    103          7           0        9.635133   -2.537476   -0.874056
    104          6           0       10.630011   -3.510521   -0.876110
    105          6           0       10.106994   -4.739432   -1.546223
    106          6           0        8.626373   -4.491068   -2.009189
    107          6           0        8.485829   -3.039142   -1.524064
    108          6           0       11.052423   -5.344194   -2.627397
    109          6           0        7.566452   -5.421273   -1.380348
    110          6           0        7.201760   -6.626680   -2.268293
    111          7           0        8.065785   -0.142091   -0.949031
    112          6           0        7.074971   -0.920946   -1.545178
    113          6           0        5.801732   -0.149455   -1.797071
    114          6           0        6.158442    1.119002   -1.311362
    115          6           0        7.483012    1.069750   -0.769578
    116          6           0        4.522794   -0.679561   -2.419241
    117          6           0        5.619268    2.460260   -1.144962
    118          8           0        4.534446    2.941668   -1.474291
    119          6           0        6.724979    3.244034   -0.318217
    120          6           0        6.978381    4.541560   -1.110682
    121          8           0        7.042908    4.648732   -2.317964
    122          8           0        6.955730    5.615045   -0.222341
    123          6           0        7.181183    6.903501   -0.877701
    124          1           0       13.177953    1.896468    1.556705
    125          1           0       12.453522   -4.291372   -0.361299
    126          1           0        6.699324   -2.837985   -2.453104
    127          1           0        9.498658    4.728509    0.734864
    128          1           0       11.646783    3.659607    2.280260
    129          1           0       11.560484    5.284396   -0.103042
    130          1           0       12.632967    4.012604   -0.429722
    131          1           0       12.830952    5.003579    1.006935
    132          1           0        9.733684    3.366126    3.362257
    133          1           0        8.107871    3.353857    2.685505
    134          1           0        8.131729    5.257401    4.015228
    135          1           0        8.181676    5.823762    2.442138
    136          1           0       15.107288    1.008666    0.788030
    137          1           0       16.136712   -0.279224    1.354113
    138          1           0       15.084723    0.547747    2.491967
    139          1           0       16.733099   -2.196179    0.292253
    140          1           0       16.813986   -3.909968    0.891593
    141          1           0       16.621483   -2.492654    2.015435
    142          1           0       10.189155   -5.547221   -0.818382
    143          1           0        8.474998   -4.474057   -3.089263
    144          1           0       11.912499   -4.681063   -2.722788
    145          1           0       10.525868   -5.366078   -3.581151
    146          1           0       11.330228   -6.316198   -2.218432
    147          1           0        6.728898   -4.795282   -1.073347
    148          1           0        7.964129   -5.920359   -0.496412
    149          1           0        8.021835   -6.841097   -2.953850
    150          1           0        6.356731   -6.497298   -2.944779
    151          1           0        7.086609   -7.496549   -1.620953
    152          1           0        4.051513   -1.328373   -1.680765
    153          1           0        4.650389   -1.281885   -3.318482
    154          1           0        3.906644    0.197838   -2.615146
    155          1           0        6.454048    3.503194    0.705100
    156          1           0        8.226577    7.206321   -0.944489
    157          1           0        6.594036    7.601817   -0.281447
    158          1           0        6.868159    7.035434   -1.913405
 ---------------------------------------------------------------------

 SCF Done:  E(RCAM-B3LYP) =  -4069.81704981     A.U. after   17 cycles

 Excitation energies and oscillator strengths:

 Excited State   1:      Singlet-A      1.7013 eV  728.78 nm  f=0.3864  <S**2>=0.000
     309 -> 315       -0.18654
     312 -> 313        0.68385
     309 <- 315       -0.10957
 This state for optimization and/or second-order correction.
 Total Energy, E(TD-HF/TD-DFT) =  -4069.75452953
 Copying the excited state density for this state as the 1-particle RhoCI density.

 Excited State   2:      Singlet-A      1.8340 eV  676.04 nm  f=0.3651  <S**2>=0.000
     310 -> 316       -0.18795
     311 -> 314        0.68156
     310 <- 316       -0.10388

 Excited State   3:      Singlet-A      2.2324 eV  555.39 nm  f=0.0658  <S**2>=0.000
     309 -> 313        0.62928
     312 -> 315        0.29641

 Excited State   4:      Singlet-A      2.2401 eV  553.48 nm  f=0.1852  <S**2>=0.000
     310 -> 314        0.64851
     311 -> 316        0.25055

 Excited State   5:      Singlet-A      2.9773 eV  416.43 nm  f=0.0000  <S**2>=0.000
     311 -> 313        0.70693

 The electronic state is 1-A.
 Alpha  occ. eigenvalues --  -46.89242 -46.87655 -19.25750 -19.24729 -19.20432
 Alpha  occ. eigenvalues --  -19.20394 -19.19215 -19.19086 -19.18729 -19.18596
 Alpha  occ. eigenvalues --  -14.42682 -14.41357 -14.41284 -14.41013 -14.39899
 Alpha  occ. eigenvalues --  -14.39836 -14.39488 -14.38521 -10.39670 -10.38050
 Alpha  occ. eigenvalues --  -10.36885 -10.35855 -10.35070 -10.34685 -10.31459
 Alpha  occ. eigenvalues --  -10.31446 -10.31127 -10.30879 -10.30750 -10.30732
 Alpha  occ. eigenvalues --  -10.30665 -10.30619 -10.30507 -10.30354 -10.30334
 Alpha  occ. eigenvalues --  -10.30282 -10.29589 -10.29490 -10.29459 -10.29316
 Alpha  occ. eigenvalues --  -10.29225 -10.29130 -10.29075 -10.28748 -10.28740
 Alpha  occ. eigenvalues --  -10.28718 -10.28637 -10.28557 -10.28390 -10.28389
 Alpha  occ. eigenvalues --  -10.28291 -10.27865 -10.27825 -10.27716 -10.27583
 Alpha  occ. eigenvalues --  -10.27552 -10.27400 -10.27395 -10.27378 -10.27335
 Alpha  occ. eigenvalues --  -10.27268 -10.27212 -10.27191 -10.27162 -10.27074
 Alpha  occ. eigenvalues --  -10.27054 -10.27040 -10.26991 -10.26606 -10.26435
 Alpha  occ. eigenvalues --  -10.26385 -10.26385 -10.26355 -10.26121 -10.26015
 Alpha  occ. eigenvalues --  -10.25996 -10.25902 -10.25894 -10.25694 -10.25668
 Alpha  occ. eigenvalues --  -10.25578 -10.25457 -10.25349 -10.25253 -10.25108
 Alpha  occ. eigenvalues --  -10.23596  -3.17742  -3.16439  -1.92644  -1.92216
 Alpha  occ. eigenvalues --   -1.92027  -1.91337  -1.90870  -1.90783  -1.16320
 Alpha  occ. eigenvalues --   -1.16286  -1.12516  -1.09320  -1.09220  -1.08939
 Alpha  occ. eigenvalues --   -1.08159  -1.06467  -1.05667  -1.05076  -1.04722
 Alpha  occ. eigenvalues --   -1.04516  -1.03673  -1.03289  -1.03079  -1.01465
 Alpha  occ. eigenvalues --   -0.92576  -0.92212  -0.89449  -0.89055  -0.89031
 Alpha  occ. eigenvalues --   -0.88605  -0.88306  -0.88006  -0.87491  -0.87397
 Alpha  occ. eigenvalues --   -0.87020  -0.86787  -0.86146  -0.85467  -0.84426
 Alpha  occ. eigenvalues --   -0.84241  -0.83557  -0.82971  -0.82308  -0.82268
 Alpha  occ. eigenvalues --   -0.81850  -0.81740  -0.80989  -0.80609  -0.80089
 Alpha  occ. eigenvalues --   -0.79967  -0.78495  -0.78459  -0.77474  -0.77296
 Alpha  occ. eigenvalues --   -0.76698  -0.76514  -0.76154  -0.75580  -0.75141
 Alpha  occ. eigenvalues --   -0.75065  -0.72685  -0.72633  -0.71670  -0.71534
 Alpha  occ. eigenvalues --   -0.69548  -0.69397  -0.68830  -0.68639  -0.68197
 Alpha  occ. eigenvalues --   -0.67452  -0.67328  -0.66653  -0.65799  -0.65515
 Alpha  occ. eigenvalues --   -0.65306  -0.64947  -0.64555  -0.64501  -0.64165
 Alpha  occ. eigenvalues --   -0.63561  -0.62574  -0.61661  -0.60704  -0.60382
 Alpha  occ. eigenvalues --   -0.60161  -0.59371  -0.59117  -0.58940  -0.58508
 Alpha  occ. eigenvalues --   -0.58289  -0.57778  -0.57746  -0.57504  -0.57350
 Alpha  occ. eigenvalues --   -0.56428  -0.56029  -0.55457  -0.55334  -0.55115
 Alpha  occ. eigenvalues --   -0.55060  -0.54684  -0.54522  -0.53901  -0.53812
 Alpha  occ. eigenvalues --   -0.53683  -0.53504  -0.53457  -0.53147  -0.52890
 Alpha  occ. eigenvalues --   -0.52847  -0.52744  -0.52573  -0.52159  -0.52142
 Alpha  occ. eigenvalues --   -0.51870  -0.51761  -0.51568  -0.51224  -0.51164
 Alpha  occ. eigenvalues --   -0.51056  -0.50544  -0.50486  -0.50336  -0.50227
 Alpha  occ. eigenvalues --   -0.50049  -0.49920  -0.49805  -0.49579  -0.49374
 Alpha  occ. eigenvalues --   -0.49075  -0.48980  -0.48905  -0.48811  -0.48634
 Alpha  occ. eigenvalues --   -0.48502  -0.48476  -0.48247  -0.48175  -0.48093
 Alpha  occ. eigenvalues --   -0.47777  -0.47629  -0.47408  -0.47373  -0.47259
 Alpha  occ. eigenvalues --   -0.46933  -0.46864  -0.46665  -0.46589  -0.46524
 Alpha  occ. eigenvalues --   -0.46276  -0.46097  -0.45908  -0.45638  -0.45518
 Alpha  occ. eigenvalues --   -0.45312  -0.44931  -0.44810  -0.44635  -0.44542
 Alpha  occ. eigenvalues --   -0.44519  -0.44362  -0.44348  -0.44274  -0.44214
 Alpha  occ. eigenvalues --   -0.43927  -0.43782  -0.43675  -0.43594  -0.43509
 Alpha  occ. eigenvalues --   -0.43186  -0.43184  -0.43127  -0.43022  -0.42845
 Alpha  occ. eigenvalues --   -0.42688  -0.42546  -0.42358  -0.42347  -0.42124
 Alpha  occ. eigenvalues --   -0.41947  -0.41946  -0.41764  -0.41619  -0.41263
 Alpha  occ. eigenvalues --   -0.41246  -0.41236  -0.41067  -0.40463  -0.40298
 Alpha  occ. eigenvalues --   -0.40259  -0.39702  -0.39623  -0.39204  -0.38724
 Alpha  occ. eigenvalues --   -0.38468  -0.38319  -0.38130  -0.37949  -0.37948
 Alpha  occ. eigenvalues --   -0.37342  -0.37266  -0.36883  -0.36642  -0.36477
 Alpha  occ. eigenvalues --   -0.35755  -0.35532  -0.35168  -0.34947  -0.34049
 Alpha  occ. eigenvalues --   -0.33560  -0.32861  -0.32354  -0.31834  -0.31532
 Alpha  occ. eigenvalues --   -0.31412  -0.30981  -0.30934  -0.30558  -0.30488
 Alpha  occ. eigenvalues --   -0.30233  -0.30007  -0.29354  -0.23960  -0.23254
 Alpha  occ. eigenvalues --   -0.21244  -0.21085
 Alpha virt. eigenvalues --   -0.08581  -0.08136  -0.01791  -0.00959  -0.00008
 Alpha virt. eigenvalues --    0.00679   0.01742   0.02534   0.02867   0.03715
 Alpha virt. eigenvalues --    0.04339   0.04751   0.05030   0.05584   0.05868

 Mulliken charges:
               1
     1  Mg   0.824385
     2  C    0.010281
     3  C   -0.058261
     4  C   -0.077716
     5  C   -0.071271
     6  N   -0.187755
     7  C   -0.104642
     8  C   -0.021611
     9  C   -0.036014
    10  C   -0.028498
    11  C    0.087860
    12  C    0.049030
    13  C   -0.037969
    14  H    0.035797
    15  N   -0.382858
    16  C    0.143314
    17  C   -0.138018
    18  C   -0.053320
    19  C    0.096557
    20  C    0.105693
    21  C    0.029591
    22  O   -0.167468
    23  C    0.040870
    24  N   -0.248100
    25  C    0.043880
    26  C   -0.049661
    27  C   -0.064491
    28  C    0.033873
    29  C    0.074693
    30  C    0.034690
    31  C    0.005252
    32  N   -0.317572
    33  C    0.075799
    34  C   -0.206280
    35  C    0.001129
    36  C    0.122283
    37  C    0.136360
    38  C    0.060826
    39  O   -0.161490
    40  C   -0.025112
    41  C    0.186311
    42  O   -0.242778
    43  O   -0.299671
    44  C    0.194684
    45  H   -0.035205
    46  H   -0.014278
    47  H   -0.022214
    48  H    0.018461
    49  H   -0.009625
    50  H    0.017699
    51  H    0.021588
    52  H    0.015269
    53  H    0.007558
    54  H    0.024565
    55  H    0.015428
    56  H    0.014419
    57  H    0.021393
    58  H    0.041812
    59  H    0.018133
    60  H    0.065069
    61  H    0.023137
    62  H    0.023708
    63  H    0.019333
    64  H   -0.009433
    65  H    0.019834
    66  H    0.023953
    67  H    0.021272
    68  H    0.012342
    69  H    0.003402
    70  H    0.029230
    71  H    0.014259
    72  H    0.015517
    73  H    0.005576
    74  H    0.029942
    75  H    0.032342
    76  H    0.042843
    77  H    0.029822
    78  H    0.043094
    79  H    0.007150
    80  Mg   0.856758
    81  C   -0.058606
    82  C   -0.109481
    83  C   -0.071467
    84  C   -0.087153
    85  N   -0.241820
    86  C   -0.014119
    87  C    0.014423
    88  C   -0.051410
    89  C   -0.006760
    90  C    0.052916
    91  C    0.064982
    92  C   -0.070526
    93  H    0.002452
    94  N   -0.342948
    95  C    0.211630
    96  C   -0.159441
    97  C   -0.006457
    98  C    0.104273
    99  C    0.108365
   100  C    0.005802
   101  O   -0.228318
   102  C    0.038033
   103  N   -0.379026
   104  C    0.084223
   105  C   -0.051014
   106  C   -0.001718
   107  C    0.029869
   108  C    0.063127
   109  C    0.045064
   110  C   -0.000596
   111  N   -0.392737
   112  C    0.132996
   113  C   -0.159635
   114  C   -0.023208
   115  C    0.156111
   116  C    0.124957
   117  C    0.083792
   118  O   -0.172225
   119  C   -0.034260
   120  C    0.198003
   121  O   -0.192792
   122  O   -0.339845
   123  C    0.167060
   124  H   -0.033848
   125  H   -0.011029
   126  H   -0.037130
   127  H    0.007911
   128  H    0.014560
   129  H    0.013169
   130  H    0.020546
   131  H    0.012770
   132  H    0.016570
   133  H    0.011748
   134  H    0.024452
   135  H    0.028719
   136  H    0.025053
   137  H    0.003807
   138  H    0.034826
   139  H    0.040358
   140  H    0.037935
   141  H    0.041641
   142  H    0.016411
   143  H    0.017890
   144  H    0.022183
   145  H    0.012595
   146  H    0.021623
   147  H    0.012678
   148  H    0.003160
   149  H    0.004584
   150  H    0.019346
   151  H    0.018230
   152  H    0.027235
   153  H    0.026372
   154  H    0.042968
   155  H    0.042439
   156  H    0.025682
   157  H    0.037185
   158  H    0.048088
 Sum of Mulliken charges =  -0.00000

 Dipole moment (field-independent basis, Debye):
    X=              4.2324    Y=             -1.7795    Z=              7.5370  Tot=              8.8253
 Quadrupole moment (field-independent basis, Debye-Ang):
   XX=           -456.3517   YY=           -505.8183   ZZ=           -500.4233
   XY=             62.0718   XZ=            -23.7044   YZ=             38.8972

 Normal termination of Gaussian 16 at Wed Sep  1 22:20:33 2021.
