 Gaussian 16, Revision A.03,
 Gaussian 16:  ES64L-G16RevA.03 25-Dec-2016

 -----------------------------------
 #p cam-b3lyp/Def2SVP td=(nstates=5)
 -----------------------------------

 --------------------------------
 TDDFT excited states in gaussian
 --------------------------------
 Symbolic Z-matrix:
 Charge =  0 Multiplicity = 1

                         Standard orientation:
 ---------------------------------------------------------------------
 Center     Atomic      Atomic             Coordinates (Angstroms)
 Number     Number       Type             X           Y           Z
 ---------------------------------------------------------------------
      1         12           0       23.679893   -0.738099    0.036038
      2          6           0       21.617867    1.874039    1.112014
      3          6           0       26.185470    1.639066   -0.294364
      4          6           0       25.473340   -3.059661   -1.365807
      5          6           0       20.885247   -2.903438    0.248024
      6          7           0       23.765764    1.620222   -0.006460
      7          6           0       22.862970    2.386329    0.614396
      8          6           0       23.411797    3.772350    0.680624
      9          6           0       24.698319    3.737761   -0.180325
     10          6           0       24.946310    2.242568   -0.153770
     11          6           0       24.685880    4.323979   -1.593179
     12          6           0       23.707405    4.213368    2.149290
     13          6           0       23.177980    5.597344    2.646180
     14          1           0       23.018861    6.763599    1.621518
     15          7           0       25.663183   -0.748480   -0.604438
     16          6           0       26.551691    0.309398   -0.464401
     17          6           0       27.824715   -0.170753   -0.893871
     18          6           0       27.632774   -1.536369   -1.349717
     19          6           0       26.233820   -1.864058   -1.118557
     20          6           0       29.105544    0.688433   -0.973725
     21          6           0       28.637823   -2.510507   -2.029021
     22          8           0       28.370635   -3.614157   -2.385365
     23          6           0       30.059920   -2.004505   -2.170410
     24          7           0       23.212168   -2.684623   -0.454879
     25          6           0       24.129147   -3.439568   -1.100316
     26          6           0       23.643046   -4.878093   -1.428837
     27          6           0       22.256206   -4.880094   -0.653214
     28          6           0       22.084916   -3.427743   -0.224055
     29          6           0       23.561906   -5.104291   -3.047134
     30          6           0       22.163764   -5.964203    0.466146
     31          6           0       22.434689   -5.532873    1.896357
     32          7           0       21.631766   -0.630659    0.602666
     33          6           0       20.667842   -1.595486    0.718925
     34          6           0       19.420517   -0.948072    1.257773
     35          6           0       19.772389    0.410947    1.420456
     36          6           0       21.122910    0.592139    0.972937
     37          6           0       18.053224   -1.559298    1.401676
     38          6           0       19.287231    1.722250    1.843739
     39          8           0       18.163114    2.018163    2.258914
     40          6           0       20.503542    2.642722    1.806681
     41          6           0       20.069673    3.858842    1.039558
     42          8           0       19.969478    3.925269   -0.171870
     43          8           0       19.652290    4.726716    1.946540
     44          6           0       18.801602    5.822680    1.509819
     45          1           0       26.930266    2.399556   -0.536130
     46          1           0       26.107364   -3.896832   -1.664115
     47          1           0       20.028173   -3.575914    0.327258
     48          1           0       22.671082    4.458719    0.271562
     49          1           0       25.432190    4.340847    0.354456
     50          1           0       23.754881    4.790233   -1.916078
     51          1           0       24.940321    3.554491   -2.322583
     52          1           0       25.470586    5.079982   -1.610704
     53          1           0       24.757502    4.125042    2.427068
     54          1           0       23.188127    3.412193    2.675006
     55          1           0       23.914682    5.894117    3.393770
     56          1           0       22.212766    5.445986    3.128780
     57          1           0       29.583395    0.659439   -1.953018
     58          1           0       29.899696    0.308130   -0.331049
     59          1           0       28.966752    1.733566   -0.693933
     60          1           0       30.467930   -1.622428   -1.234422
     61          1           0       30.074176   -1.263658   -2.969909
     62          1           0       30.696604   -2.779213   -2.597642
     63          1           0       24.307309   -5.645100   -1.031024
     64          1           0       21.412595   -5.150360   -1.288177
     65          1           0       22.493371   -5.128220   -3.261470
     66          1           0       23.901973   -6.089922   -3.365691
     67          1           0       23.960240   -4.275190   -3.633051
     68          1           0       22.989161   -6.639387    0.239994
     69          1           0       21.235057   -6.532718    0.421681
     70          1           0       23.311548   -4.889443    1.814496
     71          1           0       22.633866   -6.493170    2.371448
     72          1           0       21.719558   -4.915135    2.438970
     73          1           0       17.888326   -2.567854    1.022443
     74          1           0       17.325673   -0.932526    0.885800
     75          1           0       17.815289   -1.470216    2.461185
     76          1           0       20.779664    3.074323    2.768953
     77          1           0       18.444188    5.860714    0.481283
     78          1           0       19.461509    6.685412    1.606050
     79          1           0       18.159817    6.106152    2.344091
     80         12           0      -23.406990   -0.653249    0.272145
     81          6           0      -22.719215    2.153531   -1.713735
     82          6           0      -23.149504    1.370351    3.045762
     83          6           0      -24.025277   -3.315854    2.121451
     84          6           0      -23.474692   -2.588746   -2.659061
     85          7           0      -23.066096    1.517355    0.554453
     86          6           0      -22.781196    2.512379   -0.380840
     87          6           0      -22.886747    3.973080    0.209813
     88          6           0      -22.867393    3.627144    1.686180
     89          6           0      -23.048345    2.056599    1.792906
     90          6           0      -21.448818    3.978671    2.330643
     91          6           0      -24.336117    4.464215   -0.233058
     92          6           0      -24.469918    5.969542   -0.733244
     93          1           0      -23.491758    6.840772    0.012563
     94          7           0      -23.414765   -0.940129    2.252949
     95          6           0      -23.289442   -0.037124    3.221444
     96          6           0      -23.437198   -0.608130    4.533998
     97          6           0      -23.871179   -1.929668    4.309547
     98          6           0      -23.727903   -2.144185    2.820317
     99          6           0      -23.254018    0.103433    5.824279
    100          6           0      -24.459698   -2.946938    5.265306
    101          8           0      -25.029947   -3.975324    4.883675
    102          6           0      -24.265438   -2.777850    6.774698
    103          7           0      -23.660005   -2.699212   -0.230020
    104          6           0      -23.981508   -3.565597    0.788050
    105          6           0      -24.352291   -4.914245    0.174831
    106          6           0      -24.295466   -4.664306   -1.410606
    107          6           0      -23.844387   -3.228980   -1.479204
    108          6           0      -23.434416   -6.040019    0.769614
    109          6           0      -25.559106   -4.965958   -2.200941
    110          6           0      -25.326965   -5.912030   -3.420461
    111          7           0      -23.128151   -0.302884   -1.759940
    112          6           0      -23.166848   -1.212931   -2.862642
    113          6           0      -22.878713   -0.532805   -4.074620
    114          6           0      -22.701762    0.794569   -3.649184
    115          6           0      -22.815610    0.848518   -2.244488
    116          6           0      -22.820419   -1.029826   -5.483169
    117          6           0      -22.433645    2.128816   -4.081461
    118          8           0      -22.199272    2.609518   -5.165315
    119          6           0      -22.548545    3.059909   -2.841446
    120          6           0      -21.370701    3.964627   -2.807898
    121          8           0      -20.206574    3.670684   -2.551305
    122          8           0      -21.823170    5.197165   -3.057931
    123          6           0      -20.858758    6.275273   -2.995089
    124          1           0      -23.231123    1.913343    3.989526
    125          1           0      -24.214673   -4.159261    2.790196
    126          1           0      -23.547397   -3.138823   -3.599654
    127          1           0      -22.109047    4.538402   -0.302767
    128          1           0      -23.690833    4.122402    2.199646
    129          1           0      -20.745766    4.375101    1.597805
    130          1           0      -21.035104    3.067790    2.762922
    131          1           0      -21.686728    4.701844    3.110798
    132          1           0      -25.078749    4.385420    0.560362
    133          1           0      -24.664818    3.771849   -1.008538
    134          1           0      -25.416070    6.399558   -0.404429
    135          1           0      -24.549017    6.024987   -1.819264
    136          1           0      -24.241752    0.173174    6.281964
    137          1           0      -22.888077    1.117781    5.671480
    138          1           0      -22.578122   -0.408436    6.508657
    139          1           0      -24.457775   -3.801002    7.096784
    140          1           0      -24.931219   -2.042342    7.227752
    141          1           0      -23.253488   -2.584536    7.130125
    142          1           0      -25.356131   -5.274854    0.399074
    143          1           0      -23.492369   -5.274771   -1.823689
    144          1           0      -24.104502   -6.862847    1.018941
    145          1           0      -22.833086   -5.718512    1.620046
    146          1           0      -22.854480   -6.531289   -0.012576
    147          1           0      -26.085089   -4.081889   -2.559940
    148          1           0      -26.147457   -5.587726   -1.524666
    149          1           0      -24.304890   -6.291115   -3.425306
    150          1           0      -25.349168   -5.366010   -4.363360
    151          1           0      -26.018361   -6.754812   -3.405708
    152          1           0      -23.880392   -1.153318   -5.706938
    153          1           0      -22.203891   -1.928338   -5.469478
    154          1           0      -22.434313   -0.281802   -6.174187
    155          1           0      -23.399820    3.695301   -3.089416
    156          1           0      -20.011409    6.054944   -3.644964
    157          1           0      -20.384202    6.454582   -2.029747
    158          1           0      -21.379158    7.165967   -3.347613
 ---------------------------------------------------------------------

 SCF Done:  E(RCAM-B3LYP) =  -4069.83377114     A.U. after   19 cycles

 Excitation energies and oscillator strengths:

 Excited State   1:      Singlet-A      1.7258 eV  718.40 nm  f=0.3778  <S**2>=0.000
     309 -> 315        0.16126
     312 -> 313        0.68769
 This state for optimization and/or second-order correction.
 Total Energy, E(TD-HF/TD-DFT) =  -4069.77034816
 Copying the excited state density for this state as the 1-particle RhoCI density.

 Excited State   2:      Singlet-A      1.7293 eV  716.97 nm  f=0.4030  <S**2>=0.000
     310 -> 316       -0.18715
     311 -> 314        0.68365
     310 <- 316       -0.10974

 Excited State   3:      Singlet-A      2.2139 eV  560.03 nm  f=0.1001  <S**2>=0.000
     310 -> 314        0.64250
     311 -> 316        0.28231

 Excited State   4:      Singlet-A      2.2841 eV  542.81 nm  f=0.1220  <S**2>=0.000
     309 -> 313        0.63702
     312 -> 315       -0.28302

 Excited State   5:      Singlet-A      3.2015 eV  387.27 nm  f=0.0000  <S**2>=0.000
     311 -> 313        0.70711

 The electronic state is 1-A.
 Alpha  occ. eigenvalues --  -46.88783 -46.87754 -19.26250 -19.25244 -19.19906
 Alpha  occ. eigenvalues --  -19.19635 -19.19405 -19.18777 -19.18616 -19.17390
 Alpha  occ. eigenvalues --  -14.42226 -14.41774 -14.41605 -14.41589 -14.40207
 Alpha  occ. eigenvalues --  -14.39306 -14.38730 -14.38454 -10.39144 -10.38297
 Alpha  occ. eigenvalues --  -10.36222 -10.35456 -10.34488 -10.33139 -10.32046
 Alpha  occ. eigenvalues --  -10.31890 -10.31350 -10.31256 -10.31063 -10.30999
 Alpha  occ. eigenvalues --  -10.30781 -10.30666 -10.30632 -10.30613 -10.30434
 Alpha  occ. eigenvalues --  -10.30101 -10.29729 -10.29552 -10.29476 -10.29374
 Alpha  occ. eigenvalues --  -10.29249 -10.29051 -10.28993 -10.28968 -10.28898
 Alpha  occ. eigenvalues --  -10.28424 -10.28367 -10.28324 -10.28272 -10.28198
 Alpha  occ. eigenvalues --  -10.28043 -10.27964 -10.27814 -10.27554 -10.27536
 Alpha  occ. eigenvalues --  -10.27513 -10.27510 -10.27139 -10.27130 -10.27114
 Alpha  occ. eigenvalues --  -10.27081 -10.27060 -10.27004 -10.26686 -10.26681
 Alpha  occ. eigenvalues --  -10.26680 -10.26617 -10.26597 -10.26519 -10.26480
 Alpha  occ. eigenvalues --  -10.26333 -10.26297 -10.26210 -10.26147 -10.26016
 Alpha  occ. eigenvalues --  -10.25937 -10.25896 -10.25873 -10.25787 -10.25784
 Alpha  occ. eigenvalues --  -10.25695 -10.25410 -10.25378 -10.25202 -10.25069
 Alpha  occ. eigenvalues --  -10.23568  -3.17240  -3.16463  -1.92148  -1.91730
 Alpha  occ. eigenvalues --   -1.91500  -1.91373  -1.90898  -1.90794  -1.18326
 Alpha  occ. eigenvalues --   -1.17085  -1.11358  -1.10342  -1.09603  -1.09354
 Alpha  occ. eigenvalues --   -1.08662  -1.07068  -1.05009  -1.04970  -1.03899
 Alpha  occ. eigenvalues --   -1.03768  -1.02907  -1.02593  -1.02329  -1.01854
 Alpha  occ. eigenvalues --   -0.93345  -0.92636  -0.89629  -0.88712  -0.88609
 Alpha  occ. eigenvalues --   -0.88468  -0.88407  -0.88015  -0.87962  -0.87090
 Alpha  occ. eigenvalues --   -0.87018  -0.86621  -0.86228  -0.85526  -0.84435
 Alpha  occ. eigenvalues --   -0.83940  -0.83721  -0.83512  -0.82611  -0.82339
 Alpha  occ. eigenvalues --   -0.81829  -0.81404  -0.81257  -0.80778  -0.80364
 Alpha  occ. eigenvalues --   -0.80017  -0.78892  -0.77902  -0.77410  -0.77334
 Alpha  occ. eigenvalues --   -0.77000  -0.76750  -0.76301  -0.75586  -0.75108
 Alpha  occ. eigenvalues --   -0.74964  -0.73088  -0.72669  -0.71701  -0.71390
 Alpha  occ. eigenvalues --   -0.69520  -0.69172  -0.68886  -0.68857  -0.68036
 Alpha  occ. eigenvalues --   -0.67593  -0.67375  -0.66093  -0.65399  -0.65260
 Alpha  occ. eigenvalues --   -0.65229  -0.65000  -0.64960  -0.64641  -0.64490
 Alpha  occ. eigenvalues --   -0.64332  -0.62800  -0.62459  -0.60774  -0.59844
 Alpha  occ. eigenvalues --   -0.59650  -0.59579  -0.59198  -0.59125  -0.58614
 Alpha  occ. eigenvalues --   -0.58454  -0.58093  -0.57750  -0.57302  -0.57286
 Alpha  occ. eigenvalues --   -0.56858  -0.56627  -0.55997  -0.55648  -0.55314
 Alpha  occ. eigenvalues --   -0.54952  -0.54785  -0.54669  -0.54445  -0.53810
 Alpha  occ. eigenvalues --   -0.53585  -0.53523  -0.53250  -0.53150  -0.52931
 Alpha  occ. eigenvalues --   -0.52580  -0.52527  -0.52513  -0.52141  -0.52018
 Alpha  occ. eigenvalues --   -0.51757  -0.51692  -0.51334  -0.51300  -0.51230
 Alpha  occ. eigenvalues --   -0.51036  -0.51020  -0.50720  -0.50398  -0.50285
 Alpha  occ. eigenvalues --   -0.50123  -0.49967  -0.49673  -0.49623  -0.49395
 Alpha  occ. eigenvalues --   -0.49246  -0.49191  -0.48837  -0.48661  -0.48619
 Alpha  occ. eigenvalues --   -0.48507  -0.48402  -0.48362  -0.48107  -0.47956
 Alpha  occ. eigenvalues --   -0.47883  -0.47661  -0.47525  -0.47294  -0.47163
 Alpha  occ. eigenvalues --   -0.46887  -0.46726  -0.46547  -0.46398  -0.46380
 Alpha  occ. eigenvalues --   -0.46063  -0.46008  -0.45893  -0.45857  -0.45647
 Alpha  occ. eigenvalues --   -0.45582  -0.45346  -0.45259  -0.45048  -0.44995
 Alpha  occ. eigenvalues --   -0.44815  -0.44692  -0.44539  -0.44443  -0.44434
 Alpha  occ. eigenvalues --   -0.44275  -0.43744  -0.43679  -0.43646  -0.43322
 Alpha  occ. eigenvalues --   -0.43248  -0.43066  -0.43054  -0.42937  -0.42835
 Alpha  occ. eigenvalues --   -0.42704  -0.42598  -0.42331  -0.42157  -0.41923
 Alpha  occ. eigenvalues --   -0.41745  -0.41641  -0.41558  -0.41194  -0.41101
 Alpha  occ. eigenvalues --   -0.40993  -0.40800  -0.40715  -0.40363  -0.40269
 Alpha  occ. eigenvalues --   -0.40049  -0.39719  -0.39610  -0.39283  -0.38796
 Alpha  occ. eigenvalues --   -0.38383  -0.38261  -0.37613  -0.37401  -0.37147
 Alpha  occ. eigenvalues --   -0.37096  -0.36895  -0.36708  -0.36452  -0.36384
 Alpha  occ. eigenvalues --   -0.36294  -0.36206  -0.34388  -0.34224  -0.34050
 Alpha  occ. eigenvalues --   -0.33829  -0.33142  -0.32793  -0.32251  -0.31396
 Alpha  occ. eigenvalues --   -0.31376  -0.30884  -0.30768  -0.30370  -0.29911
 Alpha  occ. eigenvalues --   -0.29669  -0.29250  -0.28941  -0.24107  -0.23780
 Alpha  occ. eigenvalues --   -0.21061  -0.21042
 Alpha virt. eigenvalues --   -0.08568  -0.08473  -0.01683  -0.01506   0.00207
 Alpha virt. eigenvalues --    0.00536   0.02829   0.02832   0.02889   0.03426
 Alpha virt. eigenvalues --    0.05078   0.05583   0.05618   0.05898   0.05910

 Mulliken charges:
               1
     1  Mg   0.807210
     2  C    0.010141
     3  C   -0.042606
     4  C   -0.040213
     5  C   -0.078411
     6  N   -0.216981
     7  C   -0.014063
     8  C   -0.051637
     9  C   -0.035711
    10  C   -0.041064
    11  C    0.091911
    12  C    0.029480
    13  C   -0.055141
    14  H    0.020738
    15  N   -0.403180
    16  C    0.176092
    17  C   -0.142587
    18  C   -0.065078
    19  C    0.100901
    20  C    0.112271
    21  C    0.006134
    22  O   -0.163602
    23  C    0.038894
    24  N   -0.314223
    25  C    0.051149
    26  C   -0.056857
    27  C   -0.004291
    28  C    0.059394
    29  C    0.060125
    30  C    0.013070
    31  C    0.020699
    32  N   -0.344780
    33  C    0.108668
    34  C   -0.166501
    35  C    0.012389
    36  C    0.108719
    37  C    0.113981
    38  C    0.067807
    39  O   -0.178325
    40  C   -0.028049
    41  C    0.157586
    42  O   -0.218695
    43  O   -0.295417
    44  C    0.187441
    45  H   -0.031094
    46  H   -0.001836
    47  H   -0.034040
    48  H    0.016165
    49  H   -0.005352
    50  H    0.024668
    51  H    0.019637
    52  H    0.007992
    53  H    0.014559
    54  H    0.002803
    55  H    0.029664
    56  H    0.038922
    57  H    0.016322
    58  H    0.018550
    59  H    0.011104
    60  H    0.037275
    61  H    0.030752
    62  H    0.013023
    63  H    0.024802
    64  H    0.004440
    65  H   -0.001459
    66  H    0.023655
    67  H    0.037603
    68  H   -0.001796
    69  H    0.004095
    70  H    0.009611
    71  H    0.020949
    72  H    0.019955
    73  H    0.016259
    74  H    0.039059
    75  H    0.036315
    76  H    0.044848
    77  H    0.067441
    78  H    0.009499
    79  H    0.038225
    80  Mg   0.840681
    81  C    0.028157
    82  C   -0.106837
    83  C   -0.066786
    84  C   -0.071330
    85  N   -0.281524
    86  C   -0.102079
    87  C   -0.000409
    88  C   -0.045970
    89  C    0.075560
    90  C    0.067040
    91  C    0.037844
    92  C   -0.060928
    93  H    0.017411
    94  N   -0.375433
    95  C    0.135958
    96  C   -0.158173
    97  C   -0.029510
    98  C    0.112184
    99  C    0.127604
   100  C    0.018918
   101  O   -0.213674
   102  C    0.015287
   103  N   -0.316307
   104  C    0.098089
   105  C   -0.060694
   106  C   -0.001772
   107  C    0.049099
   108  C    0.056778
   109  C    0.053021
   110  C   -0.019152
   111  N   -0.321799
   112  C    0.076449
   113  C   -0.187199
   114  C    0.016459
   115  C    0.096288
   116  C    0.134233
   117  C    0.001227
   118  O   -0.166771
   119  C   -0.002502
   120  C    0.159854
   121  O   -0.226885
   122  O   -0.302941
   123  C    0.183677
   124  H   -0.025731
   125  H    0.002367
   126  H   -0.035536
   127  H    0.026788
   128  H    0.014453
   129  H    0.029600
   130  H    0.022761
   131  H    0.018144
   132  H    0.007139
   133  H    0.019935
   134  H    0.019458
   135  H    0.040687
   136  H    0.029952
   137  H    0.017942
   138  H    0.035628
   139  H    0.033389
   140  H    0.043088
   141  H    0.031311
   142  H    0.017402
   143  H    0.009764
   144  H    0.005319
   145  H    0.040360
   146  H    0.003595
   147  H    0.024237
   148  H    0.003360
   149  H    0.001204
   150  H    0.016278
   151  H    0.023392
   152  H    0.031473
   153  H    0.031573
   154  H    0.036710
   155  H    0.038099
   156  H    0.036756
   157  H    0.027816
   158  H    0.038143
 Sum of Mulliken charges =  -0.00000

 Dipole moment (field-independent basis, Debye):
    X=             -0.9281    Y=              1.6890    Z=              6.7144  Tot=              6.9855
 Quadrupole moment (field-independent basis, Debye-Ang):
   XX=           -346.9802   YY=           -463.9097   ZZ=           -516.6813
   XY=             38.8389   XZ=            -52.8893   YZ=             27.3716

 Normal termination of Gaussian 16 at Thu Sep 16 15:12:59 2021.
