 Gaussian 16, Revision A.03,
 Gaussian 16:  ES64L-G16RevA.03 25-Dec-2016

 -----------------------------------
 #p cam-b3lyp/Def2SVP td=(nstates=5)
 -----------------------------------

 --------------------------------
 TDDFT excited states in gaussian
 --------------------------------
 Symbolic Z-matrix:
 Charge =  0 Multiplicity = 1

                         Standard orientation:
 ---------------------------------------------------------------------
 Center     Atomic      Atomic             Coordinates (Angstroms)
 Number     Number       Type             X           Y           Z
 ---------------------------------------------------------------------
      1         12           0      -22.108860    0.097332   -0.594938
      2          6           0      -18.729409   -0.148601    0.573494
      3          6           0      -22.355659   -3.397031   -0.097357
      4          6           0      -25.436087    0.374163   -0.931416
      5          6           0      -21.843419    3.530939   -0.364150
      6          7           0      -20.702383   -1.614767    0.146870
      7          6           0      -19.424051   -1.385943    0.573114
      8          6           0      -18.890216   -2.625794    1.272854
      9          6           0      -19.972554   -3.667836    0.764838
     10          6           0      -21.120849   -2.901608    0.227874
     11          6           0      -19.509238   -4.724724   -0.293259
     12          6           0      -18.741127   -2.355988    2.804558
     13          6           0      -17.430096   -2.819094    3.563181
     14          1           0      -17.531218   -3.852126    4.699839
     15          7           0      -23.620171   -1.253188   -0.714782
     16          6           0      -23.547382   -2.654939   -0.500839
     17          6           0      -24.846086   -3.268565   -0.708172
     18          6           0      -25.740040   -2.146171   -0.944054
     19          6           0      -24.918555   -0.952227   -0.874795
     20          6           0      -25.062567   -4.711092   -0.512169
     21          6           0      -27.241686   -2.322894   -1.228980
     22          8           0      -27.692077   -3.502771   -1.145877
     23          6           0      -28.222296   -1.191202   -1.603098
     24          7           0      -23.576951    1.712590   -0.387586
     25          6           0      -24.842151    1.598518   -0.743371
     26          6           0      -25.484360    2.944965   -0.651256
     27          6           0      -24.289087    3.927536   -0.528782
     28          6           0      -23.132711    2.997686   -0.324935
     29          6           0      -26.520372    3.407755   -1.762916
     30          6           0      -24.415595    5.024755    0.649793
     31          6           0      -24.507138    6.520476    0.260063
     32          7           0      -20.611640    1.431508   -0.225296
     33          6           0      -20.637573    2.773625   -0.164995
     34          6           0      -19.361230    3.305940    0.143987
     35          6           0      -18.574556    2.179488    0.395602
     36          6           0      -19.391954    1.037531    0.200523
     37          6           0      -18.882642    4.700499    0.210381
     38          6           0      -17.252620    1.827406    0.813440
     39          8           0      -16.343468    2.559762    1.133822
     40          6           0      -17.321400    0.181833    0.998532
     41          6           0      -16.334219   -0.460200    0.122449
     42          8           0      -16.111388   -0.154355   -1.055822
     43          8           0      -15.747650   -1.466620    0.859724
     44          6           0      -14.715342   -2.250188    0.183216
     45          1           0      -22.494080   -4.471497    0.032266
     46          1           0      -26.516669    0.529235   -0.937883
     47          1           0      -21.649010    4.596952   -0.500692
     48          1           0      -17.965649   -2.890681    0.759266
     49          1           0      -20.277084   -4.049918    1.739905
     50          1           0      -20.162481   -4.622454   -1.160995
     51          1           0      -19.599647   -5.758711    0.038871
     52          1           0      -18.505591   -4.581219   -0.694674
     53          1           0      -19.596999   -2.925727    3.165787
     54          1           0      -18.912436   -1.329066    3.126549
     55          1           0      -16.986087   -1.894968    3.932792
     56          1           0      -16.693868   -3.111473    2.815076
     57          1           0      -24.673980   -4.945990    0.479030
     58          1           0      -24.450191   -5.277508   -1.213481
     59          1           0      -26.062291   -5.106697   -0.693368
     60          1           0      -28.394552   -0.588369   -0.711306
     61          1           0      -29.003462   -1.695647   -2.170846
     62          1           0      -27.650780   -0.611979   -2.329120
     63          1           0      -26.081792    2.940950    0.259583
     64          1           0      -24.188471    4.281199   -1.554968
     65          1           0      -27.185540    4.095390   -1.240003
     66          1           0      -27.026019    2.524353   -2.152506
     67          1           0      -25.943222    3.941055   -2.518491
     68          1           0      -23.538601    4.835215    1.268489
     69          1           0      -25.241528    4.718495    1.291641
     70          1           0      -23.810764    7.145404    0.817604
     71          1           0      -25.528750    6.860950    0.430907
     72          1           0      -24.366015    6.705082   -0.805045
     73          1           0      -17.796159    4.757851    0.152392
     74          1           0      -19.268967    4.936734    1.202037
     75          1           0      -19.534610    5.309174   -0.416034
     76          1           0      -17.271827   -0.100678    2.049508
     77          1           0      -13.956912   -1.612180   -0.271038
     78          1           0      -15.174678   -2.893984   -0.568323
     79          1           0      -14.211839   -2.873605    0.922129
     80         12           0       21.465279    0.745983   -0.211324
     81          6           0       21.340971   -2.722348    0.112383
     82          6           0       18.510586    0.975097    1.549889
     83          6           0       21.835539    3.989510   -0.544092
     84          6           0       24.993630    0.424122   -1.065541
     85          7           0       20.033261   -0.815528    0.687361
     86          6           0       20.194972   -2.171868    0.729998
     87          6           0       19.027847   -2.826590    1.379533
     88          6           0       18.137102   -1.620688    1.880649
     89          6           0       18.916128   -0.355006    1.348684
     90          6           0       16.633899   -1.732311    1.521807
     91          6           0       19.429413   -3.766220    2.542406
     92          6           0       18.798308   -5.146257    2.366170
     93          1           0       17.981844   -5.721799    3.562473
     94          7           0       20.302294    2.278354    0.395092
     95          6           0       19.087491    2.200711    1.074615
     96          6           0       18.610531    3.574036    1.174231
     97          6           0       19.561707    4.492529    0.527887
     98          6           0       20.632803    3.585089    0.007713
     99          6           0       17.458537    3.945873    1.965741
    100          6           0       19.429302    5.956245    0.618709
    101          8           0       18.506520    6.525937    1.162633
    102          6           0       20.463389    6.914591    0.140062
    103          7           0       23.134958    1.956104   -0.671476
    104          6           0       22.925895    3.266526   -1.019538
    105          6           0       24.230001    3.906906   -1.445966
    106          6           0       25.258415    2.887923   -1.124625
    107          6           0       24.465217    1.703134   -0.874249
    108          6           0       24.246308    4.480220   -2.922064
    109          6           0       26.037931    3.193789    0.200218
    110          6           0       27.412648    2.712131    0.277401
    111          7           0       22.921049   -0.811616   -0.474350
    112          6           0       24.262824   -0.807237   -0.877492
    113          6           0       24.659080   -2.144063   -1.191735
    114          6           0       23.588904   -2.934858   -0.790367
    115          6           0       22.541457   -2.069643   -0.311397
    116          6           0       25.981924   -2.504513   -1.760027
    117          6           0       23.149001   -4.264448   -0.637816
    118          8           0       23.709287   -5.305778   -0.898085
    119          6           0       21.696598   -4.190020   -0.116287
    120          6           0       20.814041   -4.908646   -1.049093
    121          8           0       20.290799   -4.426452   -2.067773
    122          8           0       20.779815   -6.242926   -0.714430
    123          6           0       19.897458   -7.154822   -1.424121
    124          1           0       17.544387    0.967820    2.057590
    125          1           0       22.115193    5.039352   -0.662364
    126          1           0       26.046805    0.375374   -1.350050
    127          1           0       18.437807   -3.206519    0.545027
    128          1           0       18.098062   -1.529667    2.965705
    129          1           0       16.527103   -2.795402    1.302723
    130          1           0       16.265729   -1.062725    0.744428
    131          1           0       16.026879   -1.508115    2.398602
    132          1           0       19.048599   -3.456625    3.515491
    133          1           0       20.518669   -3.802117    2.540551
    134          1           0       19.706128   -5.748145    2.327760
    135          1           0       18.273177   -5.141401    1.412157
    136          1           0       17.021338    3.033649    2.372266
    137          1           0       16.631134    4.401742    1.421143
    138          1           0       17.781362    4.565640    2.803004
    139          1           0       20.649662    6.487348   -0.845280
    140          1           0       21.341155    6.828337    0.781065
    141          1           0       20.063974    7.926697    0.071642
    142          1           0       24.295992    4.779246   -0.796802
    143          1           0       25.935982    2.578327   -1.920401
    144          1           0       23.239914    4.484686   -3.341112
    145          1           0       24.998950    4.041188   -3.577886
    146          1           0       24.434098    5.552786   -2.962917
    147          1           0       25.468307    2.809742    1.046555
    148          1           0       26.099962    4.268642    0.369616
    149          1           0       28.069834    3.464915   -0.159297
    150          1           0       27.537621    1.738350   -0.197283
    151          1           0       27.755905    2.748933    1.311791
    152          1           0       26.310195   -1.767221   -2.492526
    153          1           0       26.021918   -3.506285   -2.188061
    154          1           0       26.662891   -2.378167   -0.918296
    155          1           0       21.542439   -4.770810    0.793216
    156          1           0       20.141233   -7.439625   -2.447677
    157          1           0       18.876132   -6.776691   -1.384116
    158          1           0       19.993169   -8.090844   -0.875097
 ---------------------------------------------------------------------

 SCF Done:  E(RCAM-B3LYP) =  -4069.76344796     A.U. after   18 cycles

 Excitation energies and oscillator strengths:

 Excited State   1:      Singlet-A      1.6751 eV  740.15 nm  f=0.3670  <S**2>=0.000
     309 -> 315        0.18820
     311 -> 313        0.68317
     309 <- 315        0.11087
 This state for optimization and/or second-order correction.
 Total Energy, E(TD-HF/TD-DFT) =  -4069.70188866
 Copying the excited state density for this state as the 1-particle RhoCI density.

 Excited State   2:      Singlet-A      1.6989 eV  729.78 nm  f=0.3922  <S**2>=0.000
     310 -> 316       -0.18532
     312 -> 314        0.68512
     310 <- 316       -0.11147

 Excited State   3:      Singlet-A      2.1859 eV  567.19 nm  f=0.1024  <S**2>=0.000
     309 -> 313        0.63557
     311 -> 315       -0.29758

 Excited State   4:      Singlet-A      2.2522 eV  550.50 nm  f=0.1330  <S**2>=0.000
     310 -> 314        0.64099
     312 -> 316        0.28912

 Excited State   5:      Singlet-A      3.0909 eV  401.13 nm  f=0.0000  <S**2>=0.000
     312 -> 313        0.70710

 The electronic state is 1-A.
 Alpha  occ. eigenvalues --  -46.88947 -46.88911 -19.26281 -19.24876 -19.20564
 Alpha  occ. eigenvalues --  -19.19745 -19.19370 -19.18361 -19.18136 -19.17383
 Alpha  occ. eigenvalues --  -14.42330 -14.41938 -14.41934 -14.41404 -14.40271
 Alpha  occ. eigenvalues --  -14.39937 -14.39830 -14.39173 -10.40102 -10.39096
 Alpha  occ. eigenvalues --  -10.35452 -10.35249 -10.34214 -10.33706 -10.32459
 Alpha  occ. eigenvalues --  -10.31685 -10.31624 -10.31576 -10.31573 -10.31195
 Alpha  occ. eigenvalues --  -10.31067 -10.31055 -10.30778 -10.30640 -10.30477
 Alpha  occ. eigenvalues --  -10.30403 -10.30332 -10.30314 -10.29869 -10.29760
 Alpha  occ. eigenvalues --  -10.29096 -10.29086 -10.28991 -10.28954 -10.28736
 Alpha  occ. eigenvalues --  -10.28566 -10.28559 -10.28550 -10.28376 -10.28321
 Alpha  occ. eigenvalues --  -10.28222 -10.28128 -10.28105 -10.27973 -10.27816
 Alpha  occ. eigenvalues --  -10.27783 -10.27631 -10.27595 -10.27523 -10.27491
 Alpha  occ. eigenvalues --  -10.27475 -10.27460 -10.27364 -10.27299 -10.27235
 Alpha  occ. eigenvalues --  -10.27212 -10.27202 -10.27181 -10.27144 -10.27001
 Alpha  occ. eigenvalues --  -10.26798 -10.26789 -10.26680 -10.26470 -10.26445
 Alpha  occ. eigenvalues --  -10.26440 -10.26410 -10.26238 -10.26228 -10.26078
 Alpha  occ. eigenvalues --  -10.25556 -10.25188 -10.25052 -10.24866 -10.24726
 Alpha  occ. eigenvalues --  -10.24566  -3.17465  -3.17436  -1.92355  -1.92339
 Alpha  occ. eigenvalues --   -1.91909  -1.91900  -1.91782  -1.91726  -1.16550
 Alpha  occ. eigenvalues --   -1.15455  -1.10825  -1.10062  -1.09845  -1.08175
 Alpha  occ. eigenvalues --   -1.07246  -1.06715  -1.05456  -1.04989  -1.04730
 Alpha  occ. eigenvalues --   -1.03806  -1.03747  -1.02992  -1.02344  -1.01576
 Alpha  occ. eigenvalues --   -0.93186  -0.92657  -0.90768  -0.89597  -0.89331
 Alpha  occ. eigenvalues --   -0.89054  -0.88289  -0.88137  -0.87976  -0.87712
 Alpha  occ. eigenvalues --   -0.87479  -0.87245  -0.86299  -0.86011  -0.85267
 Alpha  occ. eigenvalues --   -0.84641  -0.84547  -0.83863  -0.83461  -0.82732
 Alpha  occ. eigenvalues --   -0.82575  -0.82022  -0.81414  -0.81371  -0.80828
 Alpha  occ. eigenvalues --   -0.80490  -0.78674  -0.78227  -0.77980  -0.77652
 Alpha  occ. eigenvalues --   -0.77123  -0.76884  -0.76311  -0.76304  -0.75386
 Alpha  occ. eigenvalues --   -0.75350  -0.73413  -0.73201  -0.72219  -0.72037
 Alpha  occ. eigenvalues --   -0.69816  -0.69392  -0.69341  -0.69112  -0.68489
 Alpha  occ. eigenvalues --   -0.67997  -0.67519  -0.66755  -0.66470  -0.66159
 Alpha  occ. eigenvalues --   -0.65934  -0.65640  -0.65278  -0.65123  -0.64770
 Alpha  occ. eigenvalues --   -0.64687  -0.62965  -0.62038  -0.60743  -0.60149
 Alpha  occ. eigenvalues --   -0.59908  -0.59551  -0.59500  -0.59468  -0.58965
 Alpha  occ. eigenvalues --   -0.58922  -0.58437  -0.57920  -0.57598  -0.57416
 Alpha  occ. eigenvalues --   -0.56408  -0.56244  -0.55989  -0.55902  -0.55654
 Alpha  occ. eigenvalues --   -0.55485  -0.55147  -0.54865  -0.54509  -0.54437
 Alpha  occ. eigenvalues --   -0.54247  -0.53699  -0.53297  -0.53197  -0.52942
 Alpha  occ. eigenvalues --   -0.52835  -0.52638  -0.52552  -0.52293  -0.52101
 Alpha  occ. eigenvalues --   -0.52098  -0.51769  -0.51745  -0.51685  -0.51420
 Alpha  occ. eigenvalues --   -0.51288  -0.51234  -0.51233  -0.50586  -0.50417
 Alpha  occ. eigenvalues --   -0.50342  -0.50034  -0.50011  -0.49977  -0.49659
 Alpha  occ. eigenvalues --   -0.49571  -0.49414  -0.49390  -0.49122  -0.48853
 Alpha  occ. eigenvalues --   -0.48791  -0.48565  -0.48512  -0.48468  -0.47943
 Alpha  occ. eigenvalues --   -0.47747  -0.47658  -0.47624  -0.47597  -0.47454
 Alpha  occ. eigenvalues --   -0.47136  -0.47036  -0.47003  -0.46793  -0.46650
 Alpha  occ. eigenvalues --   -0.46603  -0.46459  -0.46318  -0.46211  -0.46130
 Alpha  occ. eigenvalues --   -0.45939  -0.45742  -0.45626  -0.45380  -0.45309
 Alpha  occ. eigenvalues --   -0.44986  -0.44937  -0.44590  -0.44544  -0.44482
 Alpha  occ. eigenvalues --   -0.44051  -0.43780  -0.43687  -0.43661  -0.43562
 Alpha  occ. eigenvalues --   -0.43432  -0.43279  -0.43234  -0.43089  -0.43065
 Alpha  occ. eigenvalues --   -0.42969  -0.42951  -0.42812  -0.42568  -0.42327
 Alpha  occ. eigenvalues --   -0.42088  -0.41666  -0.41588  -0.41529  -0.41335
 Alpha  occ. eigenvalues --   -0.41232  -0.41172  -0.41109  -0.40858  -0.40676
 Alpha  occ. eigenvalues --   -0.40339  -0.40266  -0.40232  -0.39215  -0.38930
 Alpha  occ. eigenvalues --   -0.38748  -0.38489  -0.38252  -0.37740  -0.37727
 Alpha  occ. eigenvalues --   -0.37642  -0.37335  -0.36976  -0.36451  -0.36388
 Alpha  occ. eigenvalues --   -0.36325  -0.35856  -0.35193  -0.34350  -0.34116
 Alpha  occ. eigenvalues --   -0.33717  -0.33031  -0.33021  -0.31386  -0.31334
 Alpha  occ. eigenvalues --   -0.31129  -0.30682  -0.30336  -0.30113  -0.29884
 Alpha  occ. eigenvalues --   -0.29658  -0.29443  -0.29373  -0.24312  -0.24173
 Alpha  occ. eigenvalues --   -0.21578  -0.21315
 Alpha virt. eigenvalues --   -0.09166  -0.08931  -0.02515  -0.01735   0.00246
 Alpha virt. eigenvalues --    0.00279   0.02296   0.02346   0.02422   0.02672
 Alpha virt. eigenvalues --    0.04081   0.04245   0.04990   0.05004   0.05455

 Mulliken charges:
               1
     1  Mg   0.845471
     2  C   -0.112923
     3  C   -0.073133
     4  C   -0.091004
     5  C   -0.092581
     6  N   -0.247117
     7  C   -0.075151
     8  C   -0.009337
     9  C   -0.029553
    10  C    0.035772
    11  C    0.076715
    12  C    0.033489
    13  C   -0.045952
    14  H    0.033747
    15  N   -0.393827
    16  C    0.113893
    17  C   -0.127932
    18  C   -0.056956
    19  C    0.207473
    20  C    0.128632
    21  C   -0.019437
    22  O   -0.248934
    23  C    0.082585
    24  N   -0.275368
    25  C   -0.016075
    26  C   -0.039376
    27  C   -0.051994
    28  C    0.065277
    29  C    0.078740
    30  C    0.053589
    31  C    0.008848
    32  N   -0.340870
    33  C    0.091979
    34  C   -0.194202
    35  C   -0.020891
    36  C    0.159319
    37  C    0.167684
    38  C    0.065257
    39  O   -0.152060
    40  C    0.021583
    41  C    0.224374
    42  O   -0.224382
    43  O   -0.341399
    44  C    0.178502
    45  H   -0.025608
    46  H   -0.057480
    47  H   -0.022556
    48  H   -0.004139
    49  H    0.003343
    50  H    0.016662
    51  H    0.023079
    52  H    0.015150
    53  H    0.006905
    54  H    0.030312
    55  H    0.025814
    56  H    0.020588
    57  H    0.025869
    58  H    0.010144
    59  H    0.043810
    60  H    0.062290
    61  H    0.038772
    62  H    0.023407
    63  H    0.011763
    64  H    0.009065
    65  H    0.018288
    66  H    0.020278
    67  H    0.011087
    68  H    0.009908
    69  H    0.000812
    70  H    0.024641
    71  H    0.014034
    72  H    0.012626
    73  H    0.056993
    74  H    0.022580
    75  H    0.007154
    76  H    0.030634
    77  H    0.047784
    78  H    0.034988
    79  H    0.038525
    80  Mg   0.815977
    81  C    0.061268
    82  C   -0.041709
    83  C   -0.115228
    84  C   -0.090477
    85  N   -0.274137
    86  C   -0.072860
    87  C    0.029124
    88  C   -0.105833
    89  C    0.020214
    90  C    0.061871
    91  C    0.063531
    92  C   -0.082814
    93  H    0.022973
    94  N   -0.454288
    95  C    0.183549
    96  C   -0.155232
    97  C   -0.020243
    98  C    0.249197
    99  C    0.147977
   100  C   -0.059480
   101  O   -0.208368
   102  C    0.069711
   103  N   -0.300520
   104  C    0.044383
   105  C   -0.028500
   106  C   -0.022868
   107  C    0.032447
   108  C    0.076705
   109  C    0.046886
   110  C    0.037678
   111  N   -0.321488
   112  C    0.100617
   113  C   -0.177564
   114  C    0.038578
   115  C    0.077950
   116  C    0.134572
   117  C    0.030840
   118  O   -0.149652
   119  C   -0.065418
   120  C    0.186026
   121  O   -0.240177
   122  O   -0.329528
   123  C    0.188552
   124  H   -0.024494
   125  H   -0.026444
   126  H   -0.025939
   127  H    0.025420
   128  H    0.016564
   129  H    0.017414
   130  H    0.029725
   131  H    0.010091
   132  H    0.027896
   133  H    0.028714
   134  H    0.041897
   135  H    0.032857
   136  H   -0.022414
   137  H    0.032792
   138  H    0.041405
   139  H    0.021177
   140  H    0.040042
   141  H    0.031097
   142  H    0.007560
   143  H    0.001021
   144  H    0.012656
   145  H    0.023862
   146  H    0.005944
   147  H    0.014795
   148  H   -0.004814
   149  H    0.004483
   150  H    0.009386
   151  H    0.010862
   152  H    0.014704
   153  H    0.043122
   154  H    0.027818
   155  H    0.023717
   156  H    0.040280
   157  H    0.029978
   158  H    0.032579
 Sum of Mulliken charges =  -0.00000

 Dipole moment (field-independent basis, Debye):
    X=              0.3996    Y=              1.9871    Z=              1.0385  Tot=              2.2775
 Quadrupole moment (field-independent basis, Debye-Ang):
   XX=           -411.1617   YY=           -518.1953   ZZ=           -515.2484
   XY=              0.4200   XZ=              0.7080   YZ=            -23.0006

 Normal termination of Gaussian 16 at Wed Sep 15 05:15:04 2021.
