 Gaussian 16, Revision A.03,
 Gaussian 16:  ES64L-G16RevA.03 25-Dec-2016

 ----------------------------------------------------------
 #p cam-b3lyp/Def2SVP td=(nstates=5) density=(transition=1)
 ----------------------------------------------------------

 --------------------------------
 TDDFT excited states in gaussian
 --------------------------------
 Symbolic Z-matrix:
 Charge =  0 Multiplicity = 1

                         Standard orientation:
 ---------------------------------------------------------------------
 Center     Atomic      Atomic             Coordinates (Angstroms)
 Number     Number       Type             X           Y           Z
 ---------------------------------------------------------------------
      1         12           0       11.020206    0.429833    0.364000
      2          6           0        9.286028   -2.306634   -0.671460
      3          6           0       11.594019    1.249691   -3.028206
      4          6           0       11.730270    3.545447    1.335055
      5          6           0        9.927067   -0.187165    3.750293
      6          7           0       10.509827   -0.461302   -1.553541
      7          6           0        9.819334   -1.525214   -1.798554
      8          6           0        9.894245   -1.982842   -3.298587
      9          6           0       10.893028   -0.968206   -3.974692
     10          6           0       11.077879    0.034720   -2.784217
     11          6           0       12.123043   -1.573953   -4.652165
     12          6           0        8.408367   -2.087318   -3.990079
     13          6           0        7.266506   -1.282277   -3.391061
     14          1           0        6.011025   -0.984926   -4.210950
     15          7           0       11.575401    2.155228   -0.714463
     16          6           0       11.824098    2.283757   -2.059833
     17          6           0       12.169978    3.607173   -2.350222
     18          6           0       12.185902    4.341446   -1.102008
     19          6           0       11.778285    3.352351   -0.069638
     20          6           0       12.622138    4.006250   -3.742953
     21          6           0       12.542693    5.834078   -0.981302
     22          8           0       12.834787    6.450016   -2.030920
     23          6           0       12.568955    6.592688    0.235771
     24          7           0       10.699373    1.611262    2.304284
     25          6           0       11.276681    2.775654    2.394592
     26          6           0       11.312891    3.325642    3.848887
     27          6           0       10.783212    2.110652    4.641488
     28          6           0       10.435113    1.036282    3.533426
     29          6           0       12.660597    3.738718    4.319806
     30          6           0        9.548487    2.478843    5.591935
     31          6           0        9.827924    2.427585    7.150265
     32          7           0        9.957319   -0.982047    1.425419
     33          6           0        9.609649   -1.155626    2.770927
     34          6           0        8.870273   -2.448897    2.909312
     35          6           0        8.706028   -2.872123    1.582735
     36          6           0        9.346332   -1.945262    0.707619
     37          6           0        8.366848   -3.094439    4.106791
     38          6           0        8.084507   -3.876263    0.848110
     39          8           0        7.431478   -4.884692    1.154154
     40          6           0        8.501672   -3.619938   -0.627952
     41          6           0        9.209150   -4.890821   -1.155411
     42          8           0        8.936945   -5.530581   -2.156989
     43          8           0       10.257669   -5.275725   -0.348097
     44          6           0       10.989380   -6.493124   -0.717945
     45          1           0       11.677456    1.440551   -4.100004
     46          1           0       12.099667    4.491735    1.735217
     47          1           0        9.753053   -0.445881    4.796725
     48          1           0       10.443234   -2.924872   -3.299931
     49          1           0       10.405114   -0.354655   -4.732689
     50          1           0       13.023064   -1.265056   -4.120878
     51          1           0       12.234144   -1.236374   -5.683251
     52          1           0       12.118860   -2.658844   -4.757875
     53          1           0        8.246647   -3.165433   -3.976907
     54          1           0        8.348611   -1.733307   -5.019481
     55          1           0        7.749134   -0.344714   -3.116349
     56          1           0        7.019836   -1.790758   -2.458846
     57          1           0       13.597427    4.472755   -3.884243
     58          1           0       11.841313    4.614736   -4.199797
     59          1           0       12.651668    3.116735   -4.371936
     60          1           0       13.269590    6.285776    1.012109
     61          1           0       11.630535    6.473563    0.776387
     62          1           0       12.636485    7.668857    0.079471
     63          1           0       10.723359    4.210725    4.087660
     64          1           0       11.556282    1.602637    5.218142
     65          1           0       12.824678    4.815348    4.362259
     66          1           0       13.422440    3.470889    3.586835
     67          1           0       12.864771    3.307900    5.299879
     68          1           0        8.774722    1.724451    5.443194
     69          1           0        9.171787    3.493300    5.468461
     70          1           0        9.420764    3.320101    7.623724
     71          1           0       10.904503    2.512412    7.298753
     72          1           0        9.269213    1.561152    7.504636
     73          1           0        9.070025   -2.800161    4.886272
     74          1           0        8.381969   -4.179119    3.994425
     75          1           0        7.328339   -2.780429    4.207404
     76          1           0        7.664141   -3.659705   -1.324035
     77          1           0       11.456812   -6.897252    0.180192
     78          1           0       11.819902   -6.402060   -1.417786
     79          1           0       10.374938   -7.240604   -1.220637
     80         12           0      -11.054278    0.408403    0.041564
     81          6           0       -8.002768   -1.180133   -0.873264
     82          6           0      -11.060946   -1.457940    2.929349
     83          6           0      -13.910031    1.937802    0.693099
     84          6           0      -11.180748    1.907837   -3.222640
     85          7           0       -9.684641   -1.246315    0.936469
     86          6           0       -8.467491   -1.600905    0.384087
     87          6           0       -7.807762   -2.602400    1.392964
     88          6           0       -8.836276   -2.734232    2.638664
     89          6           0       -9.921493   -1.776942    2.135484
     90          6           0       -9.289899   -4.164751    2.996887
     91          6           0       -6.298328   -2.333260    1.792917
     92          6           0       -5.337706   -3.447373    1.494243
     93          1           0       -5.732775   -4.899668    1.443634
     94          7           0      -12.302914    0.347610    1.729669
     95          6           0      -12.126420   -0.489463    2.786056
     96          6           0      -13.103296   -0.094979    3.768222
     97          6           0      -13.988208    0.794109    3.120862
     98          6           0      -13.458846    1.080621    1.747899
     99          6           0      -13.127136   -0.776465    5.146797
    100          6           0      -15.311830    1.281450    3.627517
    101          8           0      -16.071477    1.978330    2.913693
    102          6           0      -15.762515    0.884192    4.984171
    103          7           0      -12.373312    1.701936   -1.193378
    104          6           0      -13.413195    2.236053   -0.653937
    105          6           0      -14.234120    3.311198   -1.546862
    106          6           0      -13.351375    3.268725   -2.803488
    107          6           0      -12.271657    2.283879   -2.427101
    108          6           0      -15.712450    2.812617   -1.744592
    109          6           0      -12.751133    4.632884   -3.294467
    110          6           0      -11.610891    5.234915   -2.439404
    111          7           0       -9.951431    0.278078   -1.675335
    112          6           0      -10.160823    0.933042   -2.911779
    113          6           0       -9.015486    0.628897   -3.780355
    114          6           0       -8.145241   -0.186949   -3.018167
    115          6           0       -8.739778   -0.340076   -1.720171
    116          6           0       -8.815677    1.158995   -5.231795
    117          6           0       -6.940731   -0.827758   -3.089246
    118          8           0       -6.141427   -0.966914   -3.992540
    119          6           0       -6.712717   -1.475089   -1.694739
    120          6           0       -6.441998   -2.881730   -1.882348
    121          8           0       -7.305023   -3.764873   -1.940835
    122          8           0       -5.095820   -3.061618   -2.221899
    123          6           0       -4.747081   -4.446963   -2.623501
    124          1           0      -11.311160   -2.150074    3.736544
    125          1           0      -14.926204    2.302252    0.857984
    126          1           0      -11.167983    2.340675   -4.225061
    127          1           0       -7.744238   -3.464328    0.730035
    128          1           0       -8.332662   -2.400782    3.544925
    129          1           0       -9.076770   -4.385740    4.043538
    130          1           0       -8.892143   -4.974018    2.384766
    131          1           0      -10.367672   -4.142734    2.835554
    132          1           0       -6.231997   -2.083826    2.852100
    133          1           0       -5.985713   -1.490418    1.176435
    134          1           0       -4.702273   -3.546480    2.375020
    135          1           0       -4.797183   -3.185261    0.585407
    136          1           0      -12.193523   -1.295693    5.364505
    137          1           0      -13.953478   -1.484720    5.191377
    138          1           0      -13.277938    0.042102    5.849845
    139          1           0      -14.999681    1.227559    5.682971
    140          1           0      -15.819727   -0.200504    5.082835
    141          1           0      -16.762617    1.266628    5.184216
    142          1           0      -14.215401    4.301836   -1.091894
    143          1           0      -13.872919    2.731399   -3.595889
    144          1           0      -15.700820    1.723002   -1.719559
    145          1           0      -16.040575    3.113459   -2.740169
    146          1           0      -16.466621    3.151782   -1.033988
    147          1           0      -13.556844    5.333136   -3.512590
    148          1           0      -12.363431    4.472992   -4.300074
    149          1           0      -11.645882    5.041417   -1.367809
    150          1           0      -11.544132    6.299373   -2.667119
    151          1           0      -10.697358    4.806608   -2.851559
    152          1           0       -7.830205    1.594506   -5.397266
    153          1           0       -9.581708    1.869374   -5.540643
    154          1           0       -8.689262    0.309416   -5.903337
    155          1           0       -5.821583   -0.948459   -1.354796
    156          1           0       -5.199926   -4.693027   -3.583623
    157          1           0       -5.101569   -5.217807   -1.940184
    158          1           0       -3.664247   -4.529069   -2.527969
 ---------------------------------------------------------------------

 SCF Done:  E(RCAM-B3LYP) =  -4069.77767672     A.U. after   19 cycles

 Excitation energies and oscillator strengths:

 Excited State   1:      Singlet-A      1.7056 eV  726.93 nm  f=0.4390  <S**2>=0.000
     309 -> 315        0.16072
     311 -> 313        0.68861
     309 <- 315        0.10266
 This state for optimization and/or second-order correction.
 Total Energy, E(TD-HF/TD-DFT) =  -4069.71499757
 Copying the excited state density for this state as the 1-particle RhoCI density.

 Excited State   2:      Singlet-A      1.7526 eV  707.44 nm  f=0.3630  <S**2>=0.000
     310 -> 316       -0.18840
     312 -> 314        0.68176
     310 <- 316       -0.10762

 Excited State   3:      Singlet-A      2.2089 eV  561.28 nm  f=0.1095  <S**2>=0.000
     310 -> 314        0.64207
     312 -> 316        0.28090

 Excited State   4:      Singlet-A      2.2506 eV  550.90 nm  f=0.1187  <S**2>=0.000
     309 -> 313        0.64225
     311 -> 315       -0.27218

 Excited State   5:      Singlet-A      2.7288 eV  454.36 nm  f=0.0000  <S**2>=0.000
     312 -> 313        0.70704

 The electronic state is 1-A.
 Alpha  occ. eigenvalues --  -46.90295 -46.89729 -19.24873 -19.24113 -19.20084
 Alpha  occ. eigenvalues --  -19.19156 -19.18952 -19.18699 -19.17419 -19.17405
 Alpha  occ. eigenvalues --  -14.43175 -14.42590 -14.41909 -14.41792 -14.40522
 Alpha  occ. eigenvalues --  -14.39802 -14.39679 -14.39586 -10.39694 -10.38474
 Alpha  occ. eigenvalues --  -10.34995 -10.34697 -10.34243 -10.33192 -10.32975
 Alpha  occ. eigenvalues --  -10.31817 -10.31756 -10.31624 -10.31487 -10.31331
 Alpha  occ. eigenvalues --  -10.31256 -10.31004 -10.30808 -10.30739 -10.30714
 Alpha  occ. eigenvalues --  -10.30629 -10.30604 -10.30357 -10.30119 -10.29768
 Alpha  occ. eigenvalues --  -10.29619 -10.29281 -10.29277 -10.29222 -10.29006
 Alpha  occ. eigenvalues --  -10.28779 -10.28749 -10.28683 -10.28468 -10.28339
 Alpha  occ. eigenvalues --  -10.28277 -10.28257 -10.28029 -10.27970 -10.27905
 Alpha  occ. eigenvalues --  -10.27885 -10.27877 -10.27830 -10.27719 -10.27573
 Alpha  occ. eigenvalues --  -10.27548 -10.27296 -10.27249 -10.27183 -10.27155
 Alpha  occ. eigenvalues --  -10.27076 -10.27051 -10.27043 -10.27020 -10.26939
 Alpha  occ. eigenvalues --  -10.26906 -10.26771 -10.26688 -10.26476 -10.26368
 Alpha  occ. eigenvalues --  -10.26292 -10.26258 -10.26173 -10.26007 -10.25903
 Alpha  occ. eigenvalues --  -10.25882 -10.25800 -10.25639 -10.25596 -10.24886
 Alpha  occ. eigenvalues --  -10.23804  -3.18702  -3.18065  -1.93580  -1.93190
 Alpha  occ. eigenvalues --   -1.92980  -1.92969  -1.92556  -1.92322  -1.16115
 Alpha  occ. eigenvalues --   -1.14207  -1.09138  -1.09037  -1.08391  -1.07600
 Alpha  occ. eigenvalues --   -1.07326  -1.06166  -1.06026  -1.05016  -1.04490
 Alpha  occ. eigenvalues --   -1.03623  -1.03609  -1.02941  -1.02230  -1.01611
 Alpha  occ. eigenvalues --   -0.92979  -0.92179  -0.89671  -0.89651  -0.89428
 Alpha  occ. eigenvalues --   -0.88966  -0.88311  -0.88201  -0.87765  -0.87714
 Alpha  occ. eigenvalues --   -0.87165  -0.86705  -0.85388  -0.85270  -0.84628
 Alpha  occ. eigenvalues --   -0.84222  -0.84191  -0.83283  -0.82916  -0.82499
 Alpha  occ. eigenvalues --   -0.82429  -0.82148  -0.81444  -0.80575  -0.80250
 Alpha  occ. eigenvalues --   -0.79950  -0.78470  -0.78241  -0.77494  -0.77379
 Alpha  occ. eigenvalues --   -0.76927  -0.76344  -0.76337  -0.75592  -0.75264
 Alpha  occ. eigenvalues --   -0.74886  -0.73383  -0.72433  -0.71935  -0.71467
 Alpha  occ. eigenvalues --   -0.70389  -0.69548  -0.68942  -0.68926  -0.68368
 Alpha  occ. eigenvalues --   -0.67734  -0.66819  -0.66817  -0.66032  -0.65624
 Alpha  occ. eigenvalues --   -0.65235  -0.64841  -0.64808  -0.64533  -0.64523
 Alpha  occ. eigenvalues --   -0.64139  -0.63315  -0.61287  -0.60888  -0.60145
 Alpha  occ. eigenvalues --   -0.59940  -0.59405  -0.58932  -0.58511  -0.58507
 Alpha  occ. eigenvalues --   -0.58030  -0.57997  -0.57827  -0.57430  -0.57234
 Alpha  occ. eigenvalues --   -0.56314  -0.56197  -0.55925  -0.55595  -0.55580
 Alpha  occ. eigenvalues --   -0.55169  -0.54851  -0.54777  -0.54528  -0.53851
 Alpha  occ. eigenvalues --   -0.53510  -0.53471  -0.53239  -0.53164  -0.52908
 Alpha  occ. eigenvalues --   -0.52853  -0.52723  -0.52580  -0.52513  -0.52193
 Alpha  occ. eigenvalues --   -0.51928  -0.51471  -0.51458  -0.51236  -0.51187
 Alpha  occ. eigenvalues --   -0.50923  -0.50712  -0.50679  -0.50377  -0.50246
 Alpha  occ. eigenvalues --   -0.49882  -0.49758  -0.49535  -0.49425  -0.49218
 Alpha  occ. eigenvalues --   -0.49167  -0.49123  -0.48977  -0.48876  -0.48796
 Alpha  occ. eigenvalues --   -0.48757  -0.48535  -0.48464  -0.48271  -0.47893
 Alpha  occ. eigenvalues --   -0.47832  -0.47633  -0.47401  -0.47400  -0.47199
 Alpha  occ. eigenvalues --   -0.47163  -0.46819  -0.46742  -0.46649  -0.46506
 Alpha  occ. eigenvalues --   -0.46423  -0.46165  -0.46079  -0.45867  -0.45736
 Alpha  occ. eigenvalues --   -0.45704  -0.45394  -0.45222  -0.44982  -0.44852
 Alpha  occ. eigenvalues --   -0.44822  -0.44574  -0.44485  -0.44436  -0.44121
 Alpha  occ. eigenvalues --   -0.43784  -0.43687  -0.43659  -0.43562  -0.43351
 Alpha  occ. eigenvalues --   -0.43104  -0.42667  -0.42642  -0.42615  -0.42388
 Alpha  occ. eigenvalues --   -0.42267  -0.42225  -0.42049  -0.41979  -0.41753
 Alpha  occ. eigenvalues --   -0.41680  -0.41501  -0.41462  -0.41293  -0.41147
 Alpha  occ. eigenvalues --   -0.41049  -0.40927  -0.40829  -0.40692  -0.40492
 Alpha  occ. eigenvalues --   -0.40038  -0.39969  -0.39828  -0.39662  -0.39062
 Alpha  occ. eigenvalues --   -0.39025  -0.38672  -0.38005  -0.37822  -0.36852
 Alpha  occ. eigenvalues --   -0.36803  -0.36539  -0.36494  -0.36365  -0.36270
 Alpha  occ. eigenvalues --   -0.35950  -0.35357  -0.34782  -0.34275  -0.34015
 Alpha  occ. eigenvalues --   -0.33833  -0.33541  -0.32957  -0.31584  -0.31228
 Alpha  occ. eigenvalues --   -0.31131  -0.31055  -0.30898  -0.30235  -0.30153
 Alpha  occ. eigenvalues --   -0.29858  -0.29462  -0.28995  -0.24914  -0.23700
 Alpha  occ. eigenvalues --   -0.21641  -0.21153
 Alpha virt. eigenvalues --   -0.09501  -0.08454  -0.01871  -0.01695  -0.00002
 Alpha virt. eigenvalues --    0.00231   0.00650   0.02237   0.02416   0.02669
 Alpha virt. eigenvalues --    0.05056   0.05141   0.05293   0.05510   0.05630

 Mulliken charges:
               1
     1  Mg  12.001775
     2  C    5.987677
     3  C    5.957898
     4  C    6.004833
     5  C    6.037557
     6  N    6.977290
     7  C    5.977220
     8  C    6.006033
     9  C    5.987179
    10  C    6.049576
    11  C    6.000759
    12  C    6.001502
    13  C    6.008946
    14  H    0.988307
    15  N    6.998244
    16  C    6.057321
    17  C    6.008008
    18  C    6.022831
    19  C    6.032232
    20  C    5.991933
    21  C    6.012867
    22  O    8.026731
    23  C    5.991077
    24  N    7.024338
    25  C    6.012847
    26  C    5.990079
    27  C    6.006705
    28  C    5.958743
    29  C    5.998136
    30  C    6.000244
    31  C    6.000333
    32  N    7.001561
    33  C    5.942952
    34  C    5.979479
    35  C    5.986793
    36  C    5.980266
    37  C    6.002783
    38  C    5.983291
    39  O    7.963528
    40  C    6.006810
    41  C    5.994648
    42  O    7.987372
    43  O    8.004613
    44  C    6.005125
    45  H    1.005330
    46  H    1.015898
    47  H    0.996157
    48  H    0.999238
    49  H    0.999769
    50  H    0.997643
    51  H    1.000000
    52  H    1.011420
    53  H    1.002923
    54  H    0.989852
    55  H    0.988281
    56  H    1.012027
    57  H    1.017772
    58  H    1.019734
    59  H    1.022167
    60  H    1.012163
    61  H    1.010400
    62  H    1.015717
    63  H    1.003804
    64  H    1.001369
    65  H    0.999120
    66  H    0.995982
    67  H    1.013137
    68  H    1.006664
    69  H    0.991722
    70  H    0.996723
    71  H    0.995729
    72  H    1.004348
    73  H    0.982493
    74  H    0.986404
    75  H    0.980397
    76  H    0.986260
    77  H    0.995886
    78  H    0.990082
    79  H    0.994947
    80  Mg  11.999845
    81  C    5.999902
    82  C    6.001016
    83  C    5.999479
    84  C    5.999115
    85  N    7.000151
    86  C    6.000522
    87  C    5.999934
    88  C    6.000325
    89  C    5.999003
    90  C    6.000007
    91  C    5.999990
    92  C    5.999547
    93  H    1.000428
    94  N    7.000384
    95  C    5.998733
    96  C    5.999745
    97  C    5.999404
    98  C    5.999427
    99  C    6.000037
   100  C    5.999662
   101  O    7.999170
   102  C    6.000171
   103  N    6.999602
   104  C    5.999488
   105  C    6.000143
   106  C    5.999878
   107  C    6.000924
   108  C    6.000228
   109  C    6.000023
   110  C    6.000004
   111  N    6.999905
   112  C    6.001201
   113  C    6.000296
   114  C    6.000222
   115  C    6.000535
   116  C    5.999977
   117  C    6.000256
   118  O    8.000917
   119  C    6.000227
   120  C    6.000230
   121  O    8.000036
   122  O    8.000174
   123  C    5.999570
   124  H    1.000122
   125  H    0.999476
   126  H    0.999810
   127  H    1.000068
   128  H    1.000136
   129  H    1.000172
   130  H    1.000094
   131  H    0.999761
   132  H    1.000357
   133  H    0.999765
   134  H    1.001039
   135  H    1.000288
   136  H    0.999761
   137  H    0.999553
   138  H    0.999568
   139  H    0.999785
   140  H    0.999841
   141  H    0.999437
   142  H    0.999691
   143  H    0.999882
   144  H    1.000052
   145  H    0.999440
   146  H    0.999897
   147  H    0.999897
   148  H    0.999752
   149  H    1.000351
   150  H    0.999689
   151  H    0.999823
   152  H    1.000190
   153  H    1.000126
   154  H    1.000380
   155  H    1.000583
   156  H    0.999646
   157  H    1.000365
   158  H    1.001367
 Sum of Mulliken charges = 624.00000

 Dipole moment (field-independent basis, Debye):
    X=              5.2385    Y=              9.6696    Z=             -3.8472  Tot=             11.6509
 Quadrupole moment (field-independent basis, Debye-Ang):
   XX=             97.1102   YY=             11.2542   ZZ=             -2.1458
   XY=            106.7284   XZ=            -37.7275   YZ=             -1.6039

 Normal termination of Gaussian 16 at Wed Sep 22 01:10:51 2021.
