 Gaussian 16, Revision A.03,
 Gaussian 16:  ES64L-G16RevA.03 25-Dec-2016

 -----------------------------------
 #p cam-b3lyp/Def2SVP td=(nstates=5)
 -----------------------------------

 --------------------------------
 TDDFT excited states in gaussian
 --------------------------------
 Symbolic Z-matrix:
 Charge =  0 Multiplicity = 1

                         Standard orientation:
 ---------------------------------------------------------------------
 Center     Atomic      Atomic             Coordinates (Angstroms)
 Number     Number       Type             X           Y           Z
 ---------------------------------------------------------------------
      1         12           0       -9.554759   -0.936382    0.527155
      2          6           0       -9.779243    2.469542   -0.213307
      3          6           0       -7.397109   -0.042600    3.142519
      4          6           0       -8.793449   -4.157490    1.020968
      5          6           0      -10.790620   -1.636457   -2.607465
      6          7           0       -8.736430    1.043609    1.475520
      7          6           0       -8.969315    2.251982    0.897568
      8          6           0       -8.218898    3.397305    1.686187
      9          6           0       -7.244559    2.517037    2.620483
     10          6           0       -7.764192    1.087874    2.390934
     11          6           0       -5.801815    2.609999    2.008232
     12          6           0       -9.294665    4.155150    2.547838
     13          6           0       -8.786310    5.251418    3.523330
     14          1           0       -9.188443    5.508520    4.945140
     15          7           0       -8.447301   -1.924312    2.001246
     16          6           0       -7.645007   -1.414875    3.035891
     17          6           0       -7.089196   -2.503407    3.723709
     18          6           0       -7.625026   -3.693620    3.250293
     19          6           0       -8.334824   -3.288843    2.048081
     20          6           0       -6.221823   -2.273133    4.917707
     21          6           0       -7.406110   -5.171664    3.713594
     22          8           0       -7.954543   -6.150170    3.217927
     23          6           0       -6.635067   -5.517347    4.990440
     24          7           0       -9.665905   -2.611158   -0.691740
     25          6           0       -9.422200   -3.843086   -0.191539
     26          6           0       -9.900239   -4.987422   -1.106604
     27          6           0      -10.412476   -4.180582   -2.331916
     28          6           0      -10.412611   -2.741873   -1.847237
     29          6           0       -8.845558   -6.120355   -1.336230
     30          6           0      -11.760095   -4.625803   -2.963177
     31          6           0      -12.979865   -4.272488   -2.223100
     32          7           0      -10.259774    0.138020   -1.072718
     33          6           0      -10.717525   -0.250056   -2.240388
     34          6           0      -11.225186    0.875014   -3.032304
     35          6           0      -10.852216    1.983464   -2.206764
     36          6           0      -10.244837    1.499551   -1.064591
     37          6           0      -12.213723    0.874090   -4.102757
     38          6           0      -10.921930    3.432344   -2.132558
     39          8           0      -11.469588    4.234303   -2.854634
     40          6           0      -10.150400    3.776670   -0.852792
     41          6           0       -8.984615    4.731217   -1.131540
     42          8           0       -7.927782    4.394020   -1.598391
     43          8           0       -9.369840    6.017279   -0.837112
     44          6           0       -8.288493    7.001344   -1.073519
     45          1           0       -6.834396    0.254102    4.029122
     46          1           0       -8.753716   -5.224658    1.250201
     47          1           0      -11.262834   -2.126679   -3.460583
     48          1           0       -7.616360    4.029167    1.033158
     49          1           0       -7.229625    2.814872    3.669638
     50          1           0       -5.439754    1.729482    1.478445
     51          1           0       -5.037143    2.597305    2.785291
     52          1           0       -5.657021    3.461988    1.344274
     53          1           0       -9.859146    3.400073    3.094270
     54          1           0      -10.020883    4.572894    1.850034
     55          1           0       -8.878416    6.172172    2.946537
     56          1           0       -7.741486    4.958146    3.617706
     57          1           0       -6.011583   -1.229967    5.155237
     58          1           0       -5.349264   -2.921263    4.825263
     59          1           0       -6.825052   -2.645776    5.746023
     60          1           0       -5.570247   -5.290632    4.935852
     61          1           0       -6.797817   -6.529845    5.360192
     62          1           0       -7.087223   -4.926273    5.787081
     63          1           0      -10.704455   -5.347634   -0.465662
     64          1           0       -9.603679   -4.264531   -3.057799
     65          1           0       -8.183849   -6.217699   -0.476189
     66          1           0       -8.237964   -5.873048   -2.207125
     67          1           0       -9.301896   -7.101547   -1.468700
     68          1           0      -11.634611   -5.707768   -2.990016
     69          1           0      -11.801652   -4.304674   -4.004149
     70          1           0      -13.268490   -3.250174   -2.466860
     71          1           0      -12.848497   -4.428184   -1.152483
     72          1           0      -13.836897   -4.864901   -2.544857
     73          1           0      -12.800232   -0.029700   -3.935930
     74          1           0      -11.892650    0.757727   -5.137997
     75          1           0      -12.781176    1.798351   -3.999215
     76          1           0      -10.852565    4.239422   -0.158521
     77          1           0       -8.740025    7.928379   -1.426324
     78          1           0       -7.622601    6.791335   -1.910796
     79          1           0       -7.763250    7.234126   -0.147787
     80         12           0        9.440732   -0.475513   -0.498538
     81          6           0        7.444378    2.324409   -0.745456
     82          6           0       11.975630    1.701084    0.791662
     83          6           0       11.549275   -2.966792   -0.525706
     84          6           0        7.026010   -2.393958   -2.065026
     85          7           0        9.710647    1.852894   -0.233690
     86          6           0        8.683803    2.685385   -0.195625
     87          6           0        9.039214    3.972297    0.601329
     88          6           0       10.604974    3.902665    0.534297
     89          6           0       10.841777    2.394476    0.355666
     90          6           0       11.191430    4.744931   -0.653933
     91          6           0        8.455784    3.773331    2.017956
     92          6           0        8.543446    4.973954    2.969926
     93          1           0        9.390332    6.176451    2.604427
     94          7           0       11.408977   -0.725375    0.122352
     95          6           0       12.258024    0.302817    0.658896
     96          6           0       13.455461   -0.376182    1.134878
     97          6           0       13.285479   -1.766989    0.849376
     98          6           0       12.048609   -1.887138    0.078826
     99          6           0       14.654115    0.328406    1.873096
    100          6           0       14.217862   -2.941842    1.294271
    101          8           0       13.987658   -4.038586    0.863713
    102          6           0       15.381403   -2.689114    2.197075
    103          7           0        9.268953   -2.454821   -1.122770
    104          6           0       10.292401   -3.334025   -1.034410
    105          6           0        9.967840   -4.700455   -1.636923
    106          6           0        8.472762   -4.541773   -1.998312
    107          6           0        8.232764   -3.004779   -1.706628
    108          6           0       10.854751   -5.132678   -2.861883
    109          6           0        7.502294   -5.513997   -1.377562
    110          6           0        7.546775   -5.840080    0.134808
    111          7           0        7.606347   -0.188272   -1.288844
    112          6           0        6.722069   -1.041256   -1.884799
    113          6           0        5.499988   -0.298770   -2.110815
    114          6           0        5.684126    1.052436   -1.656658
    115          6           0        7.020991    1.047471   -1.172641
    116          6           0        4.269170   -0.881127   -2.732571
    117          6           0        5.124949    2.358224   -1.552052
    118          8           0        4.022893    2.842103   -1.890670
    119          6           0        6.411800    3.281041   -1.188034
    120          6           0        5.914151    4.355000   -0.219245
    121          8           0        5.330248    4.157332    0.776873
    122          8           0        6.231749    5.574804   -0.745392
    123          6           0        6.195147    6.725192    0.133984
    124          1           0       12.763642    2.380881    1.120992
    125          1           0       12.227531   -3.818917   -0.605329
    126          1           0        6.231069   -2.938424   -2.577451
    127          1           0        8.714386    4.877935    0.089282
    128          1           0       10.914646    4.250920    1.519946
    129          1           0       11.625953    5.664714   -0.264352
    130          1           0       10.378036    4.947667   -1.350897
    131          1           0       12.012698    4.251189   -1.173469
    132          1           0        9.042027    2.992357    2.501514
    133          1           0        7.454678    3.344034    1.992379
    134          1           0        8.634962    4.685168    4.017222
    135          1           0        7.518007    5.338987    3.030591
    136          1           0       15.618746    0.078137    1.430565
    137          1           0       14.567641    0.030822    2.917992
    138          1           0       14.491826    1.406901    1.881433
    139          1           0       15.479211   -3.648290    2.706006
    140          1           0       15.153423   -1.974558    2.987156
    141          1           0       16.277864   -2.195527    1.821900
    142          1           0       10.112530   -5.407589   -0.820450
    143          1           0        8.289289   -4.570853   -3.072343
    144          1           0       10.189367   -5.691701   -3.519264
    145          1           0       11.594253   -5.781691   -2.392358
    146          1           0       11.368971   -4.269237   -3.283843
    147          1           0        7.884063   -6.446965   -1.790839
    148          1           0        6.443806   -5.388467   -1.607933
    149          1           0        7.753782   -6.866349    0.435250
    150          1           0        6.566843   -5.718026    0.596201
    151          1           0        8.309158   -5.223325    0.610937
    152          1           0        3.564623   -0.053879   -2.813584
    153          1           0        3.821341   -1.612680   -2.058641
    154          1           0        4.431664   -1.441260   -3.652941
    155          1           0        6.760443    3.660896   -2.148600
    156          1           0        5.538901    7.260110   -0.552681
    157          1           0        7.179886    7.124775    0.377243
    158          1           0        5.655946    6.562259    1.067523
 ---------------------------------------------------------------------

 SCF Done:  E(RCAM-B3LYP) =  -4069.81915343     A.U. after   19 cycles

 Excitation energies and oscillator strengths:

 Excited State   1:      Singlet-A      1.7337 eV  715.13 nm  f=0.4352  <S**2>=0.000
     309 -> 315       -0.19517
     311 -> 313        0.67788
     309 <- 315       -0.11017
 This state for optimization and/or second-order correction.
 Total Energy, E(TD-HF/TD-DFT) =  -4069.75544009
 Copying the excited state density for this state as the 1-particle RhoCI density.

 Excited State   2:      Singlet-A      1.7448 eV  710.61 nm  f=0.3336  <S**2>=0.000
     310 -> 316        0.18517
     312 -> 314        0.68080
     310 <- 316        0.10644

 Excited State   3:      Singlet-A      2.2195 eV  558.61 nm  f=0.0838  <S**2>=0.000
     309 -> 313        0.63469
     311 -> 315        0.29926

 Excited State   4:      Singlet-A      2.2618 eV  548.16 nm  f=0.1181  <S**2>=0.000
     310 -> 314        0.64486
     312 -> 316       -0.27630

 Excited State   5:      Singlet-A      2.8716 eV  431.76 nm  f=0.0000  <S**2>=0.000
     312 -> 313        0.70690

 The electronic state is 1-A.
 Alpha  occ. eigenvalues --  -46.88531 -46.88299 -19.25568 -19.24431 -19.20311
 Alpha  occ. eigenvalues --  -19.20189 -19.19290 -19.19125 -19.19042 -19.18656
 Alpha  occ. eigenvalues --  -14.42060 -14.41764 -14.41760 -14.40890 -14.39336
 Alpha  occ. eigenvalues --  -14.39304 -14.38973 -14.38962 -10.39562 -10.38962
 Alpha  occ. eigenvalues --  -10.36026 -10.35305 -10.35084 -10.34330 -10.31586
 Alpha  occ. eigenvalues --  -10.31514 -10.30885 -10.30745 -10.30648 -10.30619
 Alpha  occ. eigenvalues --  -10.30467 -10.30459 -10.30387 -10.30313 -10.30192
 Alpha  occ. eigenvalues --  -10.29796 -10.29652 -10.29472 -10.29445 -10.29344
 Alpha  occ. eigenvalues --  -10.29036 -10.28831 -10.28626 -10.28505 -10.28486
 Alpha  occ. eigenvalues --  -10.28443 -10.28343 -10.28227 -10.28116 -10.27837
 Alpha  occ. eigenvalues --  -10.27808 -10.27771 -10.27729 -10.27686 -10.27652
 Alpha  occ. eigenvalues --  -10.27613 -10.27608 -10.27559 -10.27502 -10.27415
 Alpha  occ. eigenvalues --  -10.27362 -10.27259 -10.27092 -10.26926 -10.26865
 Alpha  occ. eigenvalues --  -10.26793 -10.26766 -10.26587 -10.26496 -10.26491
 Alpha  occ. eigenvalues --  -10.26298 -10.26297 -10.26238 -10.26222 -10.26064
 Alpha  occ. eigenvalues --  -10.25861 -10.25824 -10.25799 -10.25772 -10.25534
 Alpha  occ. eigenvalues --  -10.25308 -10.25133 -10.25103 -10.25007 -10.24975
 Alpha  occ. eigenvalues --  -10.24120  -3.17094  -3.16936  -1.91982  -1.91836
 Alpha  occ. eigenvalues --   -1.91563  -1.91408  -1.91382  -1.91226  -1.17659
 Alpha  occ. eigenvalues --   -1.16612  -1.11553  -1.10258  -1.10121  -1.09847
 Alpha  occ. eigenvalues --   -1.08547  -1.08035  -1.05265  -1.04793  -1.04113
 Alpha  occ. eigenvalues --   -1.03596  -1.03181  -1.03082  -1.02269  -1.02106
 Alpha  occ. eigenvalues --   -0.93638  -0.93052  -0.89408  -0.89290  -0.88699
 Alpha  occ. eigenvalues --   -0.88580  -0.88399  -0.88036  -0.87338  -0.87304
 Alpha  occ. eigenvalues --   -0.87055  -0.86459  -0.86029  -0.85710  -0.84104
 Alpha  occ. eigenvalues --   -0.83879  -0.83767  -0.83460  -0.82466  -0.82215
 Alpha  occ. eigenvalues --   -0.81797  -0.81461  -0.81374  -0.80755  -0.80314
 Alpha  occ. eigenvalues --   -0.80236  -0.78343  -0.78024  -0.77427  -0.77391
 Alpha  occ. eigenvalues --   -0.76860  -0.76403  -0.75964  -0.75908  -0.75541
 Alpha  occ. eigenvalues --   -0.74661  -0.72712  -0.72307  -0.72037  -0.71621
 Alpha  occ. eigenvalues --   -0.70303  -0.69892  -0.68977  -0.68920  -0.68168
 Alpha  occ. eigenvalues --   -0.68146  -0.66837  -0.66238  -0.65225  -0.65180
 Alpha  occ. eigenvalues --   -0.64953  -0.64639  -0.64335  -0.64274  -0.64191
 Alpha  occ. eigenvalues --   -0.63841  -0.62414  -0.62293  -0.60538  -0.59906
 Alpha  occ. eigenvalues --   -0.59683  -0.59271  -0.59199  -0.59192  -0.58857
 Alpha  occ. eigenvalues --   -0.58434  -0.58175  -0.58052  -0.57954  -0.57189
 Alpha  occ. eigenvalues --   -0.56386  -0.56270  -0.56170  -0.55682  -0.55536
 Alpha  occ. eigenvalues --   -0.55383  -0.55332  -0.55076  -0.54382  -0.54267
 Alpha  occ. eigenvalues --   -0.53808  -0.53675  -0.53561  -0.53089  -0.52999
 Alpha  occ. eigenvalues --   -0.52951  -0.52540  -0.52429  -0.52394  -0.52344
 Alpha  occ. eigenvalues --   -0.52117  -0.51919  -0.51852  -0.50944  -0.50802
 Alpha  occ. eigenvalues --   -0.50796  -0.50756  -0.50436  -0.50179  -0.50129
 Alpha  occ. eigenvalues --   -0.50021  -0.49750  -0.49724  -0.49594  -0.49482
 Alpha  occ. eigenvalues --   -0.49360  -0.49346  -0.49298  -0.49029  -0.48809
 Alpha  occ. eigenvalues --   -0.48792  -0.48633  -0.48341  -0.48266  -0.48173
 Alpha  occ. eigenvalues --   -0.48014  -0.47722  -0.47673  -0.47300  -0.46926
 Alpha  occ. eigenvalues --   -0.46878  -0.46657  -0.46585  -0.46481  -0.45985
 Alpha  occ. eigenvalues --   -0.45930  -0.45868  -0.45832  -0.45609  -0.45561
 Alpha  occ. eigenvalues --   -0.45247  -0.45197  -0.45048  -0.44912  -0.44774
 Alpha  occ. eigenvalues --   -0.44772  -0.44561  -0.44248  -0.44021  -0.43900
 Alpha  occ. eigenvalues --   -0.43899  -0.43694  -0.43497  -0.43396  -0.43298
 Alpha  occ. eigenvalues --   -0.43158  -0.43070  -0.43013  -0.42890  -0.42732
 Alpha  occ. eigenvalues --   -0.42682  -0.42374  -0.42342  -0.42247  -0.42218
 Alpha  occ. eigenvalues --   -0.42126  -0.42024  -0.41912  -0.41686  -0.41609
 Alpha  occ. eigenvalues --   -0.41502  -0.41473  -0.41023  -0.40600  -0.40263
 Alpha  occ. eigenvalues --   -0.40034  -0.39608  -0.39474  -0.39466  -0.38703
 Alpha  occ. eigenvalues --   -0.38434  -0.38262  -0.38002  -0.37660  -0.37563
 Alpha  occ. eigenvalues --   -0.37545  -0.37164  -0.37110  -0.36528  -0.36437
 Alpha  occ. eigenvalues --   -0.36176  -0.35886  -0.35180  -0.34712  -0.34093
 Alpha  occ. eigenvalues --   -0.33994  -0.33379  -0.32984  -0.31614  -0.31279
 Alpha  occ. eigenvalues --   -0.31043  -0.30938  -0.30630  -0.30449  -0.29880
 Alpha  occ. eigenvalues --   -0.29850  -0.29395  -0.29008  -0.23842  -0.23617
 Alpha  occ. eigenvalues --   -0.21128  -0.20898
 Alpha virt. eigenvalues --   -0.08467  -0.08210  -0.01920  -0.01154   0.00158
 Alpha virt. eigenvalues --    0.00604   0.02062   0.02578   0.02719   0.02979
 Alpha virt. eigenvalues --    0.05283   0.05352   0.05741   0.05819   0.06021

 Mulliken charges:
               1
     1  Mg   0.838655
     2  C    0.003062
     3  C   -0.060548
     4  C   -0.105017
     5  C   -0.054745
     6  N   -0.218795
     7  C   -0.092478
     8  C   -0.042224
     9  C   -0.061596
    10  C    0.011187
    11  C    0.049825
    12  C    0.024693
    13  C   -0.040695
    14  H    0.040951
    15  N   -0.391145
    16  C    0.154976
    17  C   -0.142301
    18  C   -0.042710
    19  C    0.127315
    20  C    0.119283
    21  C    0.039963
    22  O   -0.203978
    23  C    0.039628
    24  N   -0.333243
    25  C    0.048296
    26  C   -0.057729
    27  C    0.015499
    28  C   -0.039508
    29  C    0.082240
    30  C    0.031399
    31  C    0.039797
    32  N   -0.320475
    33  C    0.146605
    34  C   -0.155238
    35  C   -0.024153
    36  C    0.123415
    37  C    0.118466
    38  C    0.036080
    39  O   -0.149254
    40  C   -0.004651
    41  C    0.202029
    42  O   -0.197580
    43  O   -0.330236
    44  C    0.164210
    45  H   -0.038105
    46  H   -0.000889
    47  H   -0.044012
    48  H    0.025617
    49  H    0.023506
    50  H    0.022290
    51  H    0.004502
    52  H    0.030436
    53  H    0.010903
    54  H    0.008261
    55  H    0.027367
    56  H    0.016838
    57  H    0.021039
    58  H    0.026177
    59  H    0.027864
    60  H    0.036695
    61  H    0.027729
    62  H    0.021021
    63  H    0.014376
    64  H    0.014969
    65  H    0.028141
    66  H    0.009991
    67  H    0.016979
    68  H   -0.004101
    69  H    0.009789
    70  H    0.011605
    71  H    0.012288
    72  H    0.010924
    73  H    0.008953
    74  H    0.017911
    75  H    0.040495
    76  H    0.048577
    77  H    0.031410
    78  H    0.052728
    79  H    0.038451
    80  Mg   0.825899
    81  C   -0.012501
    82  C   -0.069521
    83  C   -0.074852
    84  C   -0.110766
    85  N   -0.226769
    86  C   -0.083318
    87  C   -0.038297
    88  C   -0.040664
    89  C    0.001537
    90  C    0.086679
    91  C    0.038334
    92  C   -0.033723
    93  H    0.030204
    94  N   -0.395504
    95  C    0.163764
    96  C   -0.171027
    97  C   -0.041654
    98  C    0.168835
    99  C    0.109782
   100  C    0.017375
   101  O   -0.181317
   102  C    0.052886
   103  N   -0.265999
   104  C   -0.012174
   105  C   -0.046978
   106  C   -0.006105
   107  C    0.066888
   108  C    0.084017
   109  C    0.038650
   110  C   -0.018383
   111  N   -0.393964
   112  C    0.127029
   113  C   -0.170465
   114  C    0.015062
   115  C    0.149495
   116  C    0.114108
   117  C    0.075982
   118  O   -0.199435
   119  C   -0.076660
   120  C    0.177580
   121  O   -0.154905
   122  O   -0.337981
   123  C    0.149864
   124  H   -0.021760
   125  H   -0.018157
   126  H   -0.032582
   127  H   -0.002247
   128  H   -0.002113
   129  H    0.017246
   130  H    0.023550
   131  H    0.018143
   132  H    0.001223
   133  H    0.041870
   134  H    0.018487
   135  H    0.015424
   136  H    0.037240
   137  H    0.036275
   138  H    0.006393
   139  H    0.032687
   140  H   -0.000124
   141  H    0.047191
   142  H    0.021754
   143  H    0.003940
   144  H    0.024874
   145  H    0.025994
   146  H    0.031946
   147  H    0.004514
   148  H    0.015962
   149  H    0.010610
   150  H    0.009984
   151  H    0.020126
   152  H    0.037690
   153  H    0.019261
   154  H    0.025207
   155  H    0.055142
   156  H    0.051048
   157  H    0.046166
   158  H    0.046029
 Sum of Mulliken charges =  -0.00000

 Dipole moment (field-independent basis, Debye):
    X=              5.8092    Y=             -0.9096    Z=              4.9964  Tot=              7.7161
 Quadrupole moment (field-independent basis, Debye-Ang):
   XX=           -479.4488   YY=           -494.2448   ZZ=           -497.1394
   XY=             53.5846   XZ=             -6.0506   YZ=             34.6923

 Normal termination of Gaussian 16 at Tue Aug 31 20:21:28 2021.
