 Gaussian 16, Revision A.03,
 Gaussian 16:  ES64L-G16RevA.03 25-Dec-2016

 -----------------------------------
 #p cam-b3lyp/Def2SVP td=(nstates=5)
 -----------------------------------

 --------------------------------
 TDDFT excited states in gaussian
 --------------------------------
 Symbolic Z-matrix:
 Charge =  0 Multiplicity = 1

                         Standard orientation:
 ---------------------------------------------------------------------
 Center     Atomic      Atomic             Coordinates (Angstroms)
 Number     Number       Type             X           Y           Z
 ---------------------------------------------------------------------
      1         12           0       27.761631    0.123061    0.225618
      2          6           0       24.314844   -0.480690    0.145490
      3          6           0       28.117879   -3.065071   -1.066505
      4          6           0       31.031668    0.726117   -0.066242
      5          6           0       27.132020    3.527710    0.707635
      6          7           0       26.225668   -1.565860   -0.596750
      7          6           0       24.895144   -1.596081   -0.390188
      8          6           0       24.235946   -2.861962   -0.882764
      9          6           0       25.550188   -3.728008   -0.967989
     10          6           0       26.735300   -2.768591   -0.931036
     11          6           0       25.643774   -4.670828    0.261290
     12          6           0       23.398046   -2.602325   -2.141132
     13          6           0       23.923301   -1.641884   -3.228396
     14          1           0       23.869361   -2.162130   -4.659939
     15          7           0       29.338496   -0.992567   -0.447899
     16          6           0       29.274543   -2.310067   -0.816980
     17          6           0       30.621905   -2.890018   -0.743513
     18          6           0       31.543625   -1.776221   -0.606591
     19          6           0       30.628637   -0.622832   -0.347897
     20          6           0       30.933388   -4.380483   -1.152408
     21          6           0       33.070153   -1.828322   -0.706931
     22          8           0       33.641643   -2.880181   -0.782752
     23          6           0       33.869622   -0.558111   -0.663509
     24          7           0       28.880233    1.983054    0.104368
     25          6           0       30.287400    1.989091    0.090624
     26          6           0       30.901860    3.446190    0.226981
     27          6           0       29.588783    4.310132    0.540073
     28          6           0       28.442966    3.198553    0.490841
     29          6           0       32.117321    3.724799    1.245235
     30          6           0       29.295266    5.569553   -0.396245
     31          6           0       28.590626    6.746267    0.443298
     32          7           0       26.084491    1.348445    0.456032
     33          6           0       25.996037    2.697181    0.734746
     34          6           0       24.599562    3.047186    0.964150
     35          6           0       23.854462    1.848346    0.820748
     36          6           0       24.809066    0.841957    0.428253
     37          6           0       24.074621    4.372927    1.449668
     38          6           0       22.514123    1.177822    0.779396
     39          8           0       21.401511    1.647490    0.866614
     40          6           0       22.818569   -0.333328    0.399078
     41          6           0       22.339280   -1.170728    1.552813
     42          8           0       21.131774   -1.441673    1.770342
     43          8           0       23.429454   -1.702574    2.226182
     44          6           0       23.123623   -2.697977    3.198628
     45          1           0       28.238478   -4.102019   -1.387160
     46          1           0       32.080295    1.001787    0.065279
     47          1           0       26.969987    4.550739    1.053853
     48          1           0       23.632753   -3.331594   -0.106008
     49          1           0       25.688353   -4.360634   -1.843753
     50          1           0       26.707073   -4.763379    0.483820
     51          1           0       25.117337   -5.604541    0.068541
     52          1           0       25.288701   -4.318101    1.230101
     53          1           0       22.487947   -2.116777   -1.790253
     54          1           0       23.157845   -3.565611   -2.591275
     55          1           0       24.975671   -1.434396   -3.036159
     56          1           0       23.303965   -0.745503   -3.214327
     57          1           0       30.963293   -4.568615   -2.225978
     58          1           0       30.199161   -5.044029   -0.695429
     59          1           0       31.851227   -4.805905   -0.748225
     60          1           0       34.920667   -0.729183   -0.898465
     61          1           0       33.817136   -0.050517    0.299868
     62          1           0       33.467906   -0.015456   -1.519637
     63          1           0       31.234921    3.592975   -0.799768
     64          1           0       29.599421    4.678767    1.565385
     65          1           0       33.041179    3.567133    0.689922
     66          1           0       32.070634    3.067532    2.113081
     67          1           0       32.033378    4.749306    1.608360
     68          1           0       28.541708    5.332046   -1.147055
     69          1           0       30.200913    5.900690   -0.905032
     70          1           0       27.600906    6.971112    0.045599
     71          1           0       29.199751    7.647722    0.383382
     72          1           0       28.335607    6.571295    1.487934
     73          1           0       24.368496    5.140632    0.734669
     74          1           0       24.519086    4.609890    2.416550
     75          1           0       22.986370    4.393322    1.505578
     76          1           0       22.131539   -0.537830   -0.421759
     77          1           0       24.051879   -3.111811    3.591894
     78          1           0       22.419322   -3.431358    2.805545
     79          1           0       22.683503   -2.269010    4.098800
     80         12           0      -27.302082    0.698278    0.514842
     81          6           0      -25.600187   -2.472236   -0.047598
     82          6           0      -24.685881    2.219716   -1.106975
     83          6           0      -29.366293    3.196977   -0.308533
     84          6           0      -29.733665   -0.959425    2.213596
     85          7           0      -25.442880   -0.110197   -0.641335
     86          6           0      -24.917064   -1.452217   -0.662052
     87          6           0      -23.505540   -1.435529   -1.255431
     88          6           0      -23.094188    0.066206   -1.234798
     89          6           0      -24.462351    0.834952   -0.968239
     90          6           0      -22.022541    0.422928   -0.099011
     91          6           0      -23.290755   -2.183295   -2.538817
     92          6           0      -24.543224   -2.554508   -3.367437
     93          1           0      -24.567610   -3.253202   -4.739183
     94          7           0      -27.020215    2.557998   -0.456433
     95          6           0      -25.862861    2.979519   -1.072900
     96          6           0      -26.072140    4.384966   -1.541553
     97          6           0      -27.443257    4.584375   -1.402103
     98          6           0      -28.052683    3.426245   -0.752556
     99          6           0      -24.952670    5.170660   -2.126904
    100          6           0      -28.201747    5.854158   -1.886888
    101          8           0      -27.569807    6.692835   -2.504428
    102          6           0      -29.677598    6.052485   -1.782201
    103          7           0      -29.321816    0.935042    0.797042
    104          6           0      -29.892835    2.164168    0.469037
    105          6           0      -31.322787    2.263237    1.000363
    106          6           0      -31.377029    1.100817    2.056822
    107          6           0      -30.087693    0.349106    1.718478
    108          6           0      -31.797476    3.611760    1.600235
    109          6           0      -32.657429    0.205872    2.030088
    110          6           0      -33.684239    0.419222    3.234440
    111          7           0      -27.612525   -1.292903    1.085464
    112          6           0      -28.642463   -1.798314    1.865436
    113          6           0      -28.346798   -3.168492    2.205082
    114          6           0      -27.227768   -3.444175    1.407624
    115          6           0      -26.821919   -2.245381    0.770868
    116          6           0      -29.252620   -4.044265    3.087991
    117          6           0      -26.263660   -4.438458    1.048312
    118          8           0      -26.231845   -5.602849    1.495071
    119          6           0      -25.057495   -3.846605    0.192725
    120          6           0      -24.958648   -4.748068   -0.972488
    121          8           0      -25.885701   -5.119161   -1.700066
    122          8           0      -23.638018   -4.986459   -1.163751
    123          6           0      -23.292737   -6.031767   -2.177554
    124          1           0      -23.861655    2.699446   -1.638031
    125          1           0      -30.024804    4.027234   -0.573135
    126          1           0      -30.468832   -1.433544    2.866632
    127          1           0      -23.006364   -1.950760   -0.434748
    128          1           0      -22.804251    0.441656   -2.216321
    129          1           0      -21.132856    0.681656   -0.671768
    130          1           0      -21.902312   -0.431739    0.567148
    131          1           0      -22.413586    1.308970    0.402366
    132          1           0      -22.671078   -3.043139   -2.284967
    133          1           0      -22.656231   -1.479514   -3.078534
    134          1           0      -25.081026   -1.613557   -3.487756
    135          1           0      -25.171833   -3.234574   -2.792230
    136          1           0      -25.188659    5.281735   -3.184836
    137          1           0      -24.028411    4.617026   -1.964345
    138          1           0      -24.856509    6.115928   -1.591597
    139          1           0      -30.328085    5.388146   -2.349804
    140          1           0      -30.003020    7.008629   -2.191014
    141          1           0      -29.800880    6.040335   -0.699353
    142          1           0      -31.828773    2.044689    0.059270
    143          1           0      -31.237168    1.599771    3.016029
    144          1           0      -32.400828    4.205526    0.912821
    145          1           0      -30.932294    4.235351    1.822905
    146          1           0      -32.313918    3.388624    2.534469
    147          1           0      -32.455180   -0.864274    1.977515
    148          1           0      -33.116117    0.436725    1.068543
    149          1           0      -34.641176    0.424154    2.713172
    150          1           0      -33.547709    1.342207    3.798166
    151          1           0      -33.499599   -0.382802    3.948230
    152          1           0      -28.740749   -4.826384    3.649121
    153          1           0      -29.882512   -4.509691    2.330666
    154          1           0      -29.694112   -3.445695    3.884495
    155          1           0      -24.155176   -3.833779    0.805849
    156          1           0      -22.208055   -6.123900   -2.242947
    157          1           0      -23.659840   -5.758296   -3.166953
    158          1           0      -23.773236   -6.915683   -1.760494
 ---------------------------------------------------------------------

 SCF Done:  E(RCAM-B3LYP) =  -4069.76893756     A.U. after   19 cycles

 Excitation energies and oscillator strengths:

 Excited State   1:      Singlet-A      1.6562 eV  748.62 nm  f=0.3579  <S**2>=0.000
     309 -> 316       -0.15660
     312 -> 314        0.69071
     309 <- 316       -0.10158
 This state for optimization and/or second-order correction.
 Total Energy, E(TD-HF/TD-DFT) =  -4069.70807421
 Copying the excited state density for this state as the 1-particle RhoCI density.

 Excited State   2:      Singlet-A      1.7469 eV  709.75 nm  f=0.3590  <S**2>=0.000
     310 -> 315       -0.19411
     311 -> 313        0.68069
     310 <- 315       -0.10946

 Excited State   3:      Singlet-A      2.2374 eV  554.14 nm  f=0.1045  <S**2>=0.000
     310 -> 313        0.63526
     311 -> 315        0.29902

 Excited State   4:      Singlet-A      2.2759 eV  544.76 nm  f=0.0762  <S**2>=0.000
     309 -> 314        0.61915
     312 -> 316        0.32531

 Excited State   5:      Singlet-A      3.1210 eV  397.26 nm  f=0.0000  <S**2>=0.000
     312 -> 313        0.70710

 The electronic state is 1-A.
 Alpha  occ. eigenvalues --  -46.90405 -46.89289 -19.26050 -19.25344 -19.20023
 Alpha  occ. eigenvalues --  -19.19556 -19.19406 -19.19062 -19.19048 -19.17058
 Alpha  occ. eigenvalues --  -14.42454 -14.42269 -14.41822 -14.41530 -14.40533
 Alpha  occ. eigenvalues --  -14.39711 -14.39484 -14.38726 -10.39985 -10.39118
 Alpha  occ. eigenvalues --  -10.35798 -10.35488 -10.35314 -10.33518 -10.32841
 Alpha  occ. eigenvalues --  -10.32110 -10.31990 -10.31918 -10.31841 -10.31638
 Alpha  occ. eigenvalues --  -10.31138 -10.30990 -10.30860 -10.30859 -10.30796
 Alpha  occ. eigenvalues --  -10.30596 -10.30485 -10.30220 -10.29895 -10.29591
 Alpha  occ. eigenvalues --  -10.29559 -10.29275 -10.28992 -10.28966 -10.28820
 Alpha  occ. eigenvalues --  -10.28698 -10.28547 -10.28535 -10.28503 -10.28462
 Alpha  occ. eigenvalues --  -10.28451 -10.28402 -10.28378 -10.28076 -10.28003
 Alpha  occ. eigenvalues --  -10.27918 -10.27861 -10.27842 -10.27803 -10.27797
 Alpha  occ. eigenvalues --  -10.27755 -10.27731 -10.27658 -10.27619 -10.27594
 Alpha  occ. eigenvalues --  -10.27539 -10.27284 -10.27221 -10.27153 -10.27105
 Alpha  occ. eigenvalues --  -10.26908 -10.26885 -10.26873 -10.26773 -10.26439
 Alpha  occ. eigenvalues --  -10.26379 -10.26303 -10.26270 -10.26242 -10.26228
 Alpha  occ. eigenvalues --  -10.26186 -10.26018 -10.25956 -10.25924 -10.25896
 Alpha  occ. eigenvalues --  -10.23961  -3.18768  -3.17777  -1.93631  -1.93243
 Alpha  occ. eigenvalues --   -1.93058  -1.92650  -1.92254  -1.92059  -1.16467
 Alpha  occ. eigenvalues --   -1.16065  -1.11514  -1.10671  -1.10667  -1.07464
 Alpha  occ. eigenvalues --   -1.07060  -1.06661  -1.04822  -1.04796  -1.04006
 Alpha  occ. eigenvalues --   -1.03897  -1.02973  -1.02806  -1.01907  -1.00335
 Alpha  occ. eigenvalues --   -0.92523  -0.91920  -0.89331  -0.89029  -0.88957
 Alpha  occ. eigenvalues --   -0.88590  -0.88347  -0.87750  -0.87355  -0.86806
 Alpha  occ. eigenvalues --   -0.86632  -0.86069  -0.86059  -0.85675  -0.84861
 Alpha  occ. eigenvalues --   -0.84359  -0.83684  -0.83360  -0.82722  -0.82715
 Alpha  occ. eigenvalues --   -0.82336  -0.81891  -0.80949  -0.80817  -0.80378
 Alpha  occ. eigenvalues --   -0.80151  -0.78006  -0.77741  -0.77547  -0.77300
 Alpha  occ. eigenvalues --   -0.76716  -0.76473  -0.76430  -0.75983  -0.75333
 Alpha  occ. eigenvalues --   -0.75231  -0.73015  -0.72824  -0.72070  -0.71665
 Alpha  occ. eigenvalues --   -0.69943  -0.69622  -0.69414  -0.68995  -0.68230
 Alpha  occ. eigenvalues --   -0.67591  -0.67169  -0.66894  -0.66171  -0.65908
 Alpha  occ. eigenvalues --   -0.65350  -0.64905  -0.64849  -0.64648  -0.64640
 Alpha  occ. eigenvalues --   -0.63729  -0.63524  -0.62102  -0.60041  -0.59609
 Alpha  occ. eigenvalues --   -0.59284  -0.59101  -0.59029  -0.58968  -0.58189
 Alpha  occ. eigenvalues --   -0.58007  -0.57807  -0.57482  -0.57358  -0.57181
 Alpha  occ. eigenvalues --   -0.56755  -0.56305  -0.56264  -0.56103  -0.55501
 Alpha  occ. eigenvalues --   -0.55158  -0.55074  -0.54552  -0.54312  -0.54224
 Alpha  occ. eigenvalues --   -0.53676  -0.53650  -0.53441  -0.53226  -0.53072
 Alpha  occ. eigenvalues --   -0.52842  -0.52798  -0.52533  -0.52276  -0.51940
 Alpha  occ. eigenvalues --   -0.51818  -0.51647  -0.51452  -0.51363  -0.51190
 Alpha  occ. eigenvalues --   -0.51098  -0.51027  -0.50709  -0.50634  -0.50564
 Alpha  occ. eigenvalues --   -0.50057  -0.49958  -0.49951  -0.49729  -0.49646
 Alpha  occ. eigenvalues --   -0.49562  -0.49516  -0.48946  -0.48928  -0.48760
 Alpha  occ. eigenvalues --   -0.48702  -0.48388  -0.48330  -0.48097  -0.47738
 Alpha  occ. eigenvalues --   -0.47587  -0.47581  -0.47324  -0.47249  -0.47135
 Alpha  occ. eigenvalues --   -0.46960  -0.46891  -0.46776  -0.46682  -0.46529
 Alpha  occ. eigenvalues --   -0.46327  -0.46219  -0.46093  -0.45701  -0.45696
 Alpha  occ. eigenvalues --   -0.45569  -0.45443  -0.45337  -0.45216  -0.45169
 Alpha  occ. eigenvalues --   -0.44936  -0.44894  -0.44427  -0.44261  -0.43971
 Alpha  occ. eigenvalues --   -0.43966  -0.43926  -0.43869  -0.43649  -0.43461
 Alpha  occ. eigenvalues --   -0.43399  -0.43396  -0.43278  -0.42996  -0.42806
 Alpha  occ. eigenvalues --   -0.42795  -0.42715  -0.42540  -0.42262  -0.42236
 Alpha  occ. eigenvalues --   -0.42224  -0.42105  -0.42013  -0.41907  -0.41746
 Alpha  occ. eigenvalues --   -0.41729  -0.41246  -0.41057  -0.40747  -0.40387
 Alpha  occ. eigenvalues --   -0.39931  -0.39902  -0.39332  -0.39109  -0.39068
 Alpha  occ. eigenvalues --   -0.38957  -0.38486  -0.38133  -0.37389  -0.37287
 Alpha  occ. eigenvalues --   -0.37203  -0.37079  -0.36795  -0.36564  -0.36330
 Alpha  occ. eigenvalues --   -0.36326  -0.35819  -0.34700  -0.34405  -0.34361
 Alpha  occ. eigenvalues --   -0.33807  -0.33168  -0.32675  -0.31509  -0.31384
 Alpha  occ. eigenvalues --   -0.31217  -0.31156  -0.30915  -0.30620  -0.30088
 Alpha  occ. eigenvalues --   -0.29742  -0.29415  -0.29216  -0.24437  -0.24045
 Alpha  occ. eigenvalues --   -0.21406  -0.20738
 Alpha virt. eigenvalues --   -0.08646  -0.08568  -0.02090  -0.01776   0.00083
 Alpha virt. eigenvalues --    0.00755   0.00943   0.01488   0.01996   0.02514
 Alpha virt. eigenvalues --    0.04423   0.04903   0.05425   0.05478   0.05902

 Mulliken charges:
               1
     1  Mg   0.821366
     2  C    0.141417
     3  C   -0.072441
     4  C   -0.088177
     5  C   -0.079400
     6  N   -0.220277
     7  C   -0.143091
     8  C    0.066437
     9  C   -0.054799
    10  C   -0.010647
    11  C    0.063592
    12  C    0.064061
    13  C   -0.078563
    14  H    0.015489
    15  N   -0.372572
    16  C    0.163242
    17  C   -0.137155
    18  C   -0.058530
    19  C    0.190594
    20  C    0.093536
    21  C   -0.010324
    22  O   -0.168281
    23  C    0.051843
    24  N   -0.300589
    25  C   -0.021035
    26  C   -0.011926
    27  C   -0.040264
    28  C    0.044996
    29  C    0.055015
    30  C    0.036445
    31  C   -0.036874
    32  N   -0.352627
    33  C    0.125103
    34  C   -0.196532
    35  C    0.022497
    36  C    0.045466
    37  C    0.117944
    38  C    0.063997
    39  O   -0.137438
    40  C   -0.139029
    41  C    0.228299
    42  O   -0.237497
    43  O   -0.322911
    44  C    0.183478
    45  H   -0.018129
    46  H   -0.048426
    47  H   -0.045700
    48  H    0.002310
    49  H   -0.000443
    50  H    0.003834
    51  H    0.026704
    52  H    0.004875
    53  H    0.013093
    54  H    0.020346
    55  H    0.050685
    56  H    0.037464
    57  H    0.040193
    58  H    0.005491
    59  H    0.031867
    60  H    0.019354
    61  H    0.059877
    62  H    0.032466
    63  H    0.026039
    64  H    0.015643
    65  H    0.028258
    66  H    0.025963
    67  H    0.028346
    68  H    0.025549
    69  H    0.019003
    70  H    0.017221
    71  H    0.020685
    72  H    0.021741
    73  H    0.015704
    74  H    0.029792
    75  H    0.034182
    76  H    0.055817
    77  H    0.031241
    78  H    0.037704
    79  H    0.027412
    80  Mg   0.820351
    81  C   -0.030299
    82  C   -0.063563
    83  C   -0.071152
    84  C   -0.075652
    85  N   -0.309274
    86  C   -0.098398
    87  C    0.032401
    88  C   -0.088970
    89  C    0.018003
    90  C    0.083165
    91  C    0.077533
    92  C   -0.046975
    93  H    0.019769
    94  N   -0.391667
    95  C    0.125434
    96  C   -0.145337
    97  C   -0.034499
    98  C    0.142978
    99  C    0.154401
   100  C   -0.013506
   101  O   -0.198111
   102  C    0.066666
   103  N   -0.314486
   104  C    0.069855
   105  C   -0.078993
   106  C    0.038582
   107  C   -0.001215
   108  C    0.080948
   109  C    0.022892
   110  C   -0.006872
   111  N   -0.284782
   112  C    0.084257
   113  C   -0.172572
   114  C    0.043284
   115  C    0.082288
   116  C    0.114716
   117  C    0.003083
   118  O   -0.216415
   119  C    0.045240
   120  C    0.197743
   121  O   -0.231878
   122  O   -0.339250
   123  C    0.180676
   124  H   -0.019375
   125  H   -0.063796
   126  H   -0.033501
   127  H    0.001497
   128  H    0.014775
   129  H    0.026269
   130  H    0.029013
   131  H    0.019945
   132  H    0.006734
   133  H   -0.007984
   134  H    0.024293
   135  H    0.048654
   136  H    0.049567
   137  H   -0.000618
   138  H    0.036253
   139  H    0.054893
   140  H    0.021100
   141  H    0.037896
   142  H    0.025838
   143  H    0.005555
   144  H    0.018942
   145  H    0.015440
   146  H    0.020803
   147  H    0.021148
   148  H   -0.000068
   149  H    0.029338
   150  H    0.015080
   151  H    0.025941
   152  H    0.027717
   153  H    0.049095
   154  H    0.018923
   155  H    0.043792
   156  H    0.041322
   157  H    0.050532
   158  H    0.054585
 Sum of Mulliken charges =  -0.00000

 Dipole moment (field-independent basis, Debye):
    X=              4.6720    Y=              4.8296    Z=              3.5320  Tot=              7.5913
 Quadrupole moment (field-independent basis, Debye-Ang):
   XX=           -245.5915   YY=           -527.3621   ZZ=           -509.0337
   XY=            -61.2541   XZ=            -22.8753   YZ=             15.9946

 Normal termination of Gaussian 16 at Wed Sep  1 23:33:23 2021.
