 Gaussian 16, Revision A.03,
 Gaussian 16:  ES64L-G16RevA.03 25-Dec-2016

 ----------------------------------------------------------
 #p cam-b3lyp/Def2SVP td=(nstates=5) density=(transition=1)
 ----------------------------------------------------------

 --------------------------------
 TDDFT excited states in gaussian
 --------------------------------
 Symbolic Z-matrix:
 Charge =  0 Multiplicity = 1

                         Standard orientation:
 ---------------------------------------------------------------------
 Center     Atomic      Atomic             Coordinates (Angstroms)
 Number     Number       Type             X           Y           Z
 ---------------------------------------------------------------------
      1         12           0      -33.275865   -0.300421   -0.572137
      2          6           0      -30.817642    1.696328    0.779314
      3          6           0      -31.462876   -3.041443    0.357467
      4          6           0      -36.090391   -2.025110   -0.701003
      5          6           0      -35.025238    2.624153   -1.417150
      6          7           0      -31.570735   -0.561227    0.873398
      7          6           0      -30.607624    0.373112    1.081820
      8          6           0      -29.370294   -0.198561    1.708416
      9          6           0      -29.446666   -1.661586    1.163646
     10          6           0      -30.891639   -1.754476    0.696188
     11          6           0      -28.374733   -1.964533    0.077739
     12          6           0      -29.430572   -0.164391    3.317496
     13          6           0      -28.034024    0.096614    4.050998
     14          1           0      -27.741573   -1.094193    4.929913
     15          7           0      -33.658376   -2.305431   -0.408225
     16          6           0      -32.855597   -3.287878    0.056426
     17          6           0      -33.566791   -4.559473    0.094354
     18          6           0      -34.907072   -4.281349   -0.244054
     19          6           0      -34.925721   -2.807890   -0.464160
     20          6           0      -32.853501   -5.864162    0.524793
     21          6           0      -36.007471   -5.298309   -0.122382
     22          8           0      -35.739214   -6.426615    0.198874
     23          6           0      -37.503990   -4.999083   -0.333306
     24          7           0      -35.303578    0.170757   -1.129936
     25          6           0      -36.226154   -0.683867   -1.082130
     26          6           0      -37.575424   -0.111207   -1.314155
     27          6           0      -37.257528    1.414717   -1.568021
     28          6           0      -35.804547    1.432234   -1.367312
     29          6           0      -38.342857   -0.874645   -2.445980
     30          6           0      -38.031314    2.368170   -0.544373
     31          6           0      -38.180017    3.881526   -0.935474
     32          7           0      -33.002426    1.742361   -0.464192
     33          6           0      -33.756708    2.796805   -0.945976
     34          6           0      -33.041329    4.034967   -0.807590
     35          6           0      -31.818931    3.639379   -0.159836
     36          6           0      -31.902961    2.287141    0.110344
     37          6           0      -33.475159    5.398550   -1.239773
     38          6           0      -30.569803    4.128714    0.312280
     39          8           0      -30.026156    5.239636    0.360773
     40          6           0      -29.952960    2.933662    1.111890
     41          6           0      -28.512414    2.862793    0.728500
     42          8           0      -27.586797    3.399957    1.352917
     43          8           0      -28.378796    2.167207   -0.441379
     44          6           0      -26.941171    2.149128   -0.832238
     45          1           0      -30.912511   -3.976480    0.484014
     46          1           0      -37.011995   -2.609444   -0.677763
     47          1           0      -35.621461    3.529369   -1.555257
     48          1           0      -28.558875    0.351434    1.233431
     49          1           0      -29.222545   -2.354279    1.975015
     50          1           0      -27.693709   -2.730035    0.448523
     51          1           0      -27.775724   -1.061004   -0.040564
     52          1           0      -28.902754   -2.214231   -0.842025
     53          1           0      -29.925973   -1.006999    3.799640
     54          1           0      -30.082536    0.641353    3.653331
     55          1           0      -28.233618    0.947048    4.703110
     56          1           0      -27.162443    0.392579    3.467061
     57          1           0      -33.291035   -6.363231    1.389348
     58          1           0      -31.782962   -5.749230    0.698207
     59          1           0      -32.882334   -6.533965   -0.334000
     60          1           0      -37.743725   -4.700660   -1.353357
     61          1           0      -37.906670   -4.263954    0.363951
     62          1           0      -38.011725   -5.903091    0.004339
     63          1           0      -38.065181   -0.231373   -0.347913
     64          1           0      -37.382431    1.810172   -2.575761
     65          1           0      -39.261704   -1.255784   -2.000925
     66          1           0      -37.746193   -1.683121   -2.868807
     67          1           0      -38.776840   -0.225777   -3.206564
     68          1           0      -37.542951    2.343972    0.430031
     69          1           0      -39.017863    1.921316   -0.430345
     70          1           0      -39.162026    4.338826   -1.053315
     71          1           0      -37.729552    4.069977   -1.909024
     72          1           0      -37.658974    4.509515   -0.212790
     73          1           0      -34.372729    5.454056   -1.855406
     74          1           0      -32.575059    5.705663   -1.770791
     75          1           0      -33.504680    5.898434   -0.271521
     76          1           0      -30.054361    3.018091    2.194402
     77          1           0      -26.637285    3.150659   -1.135015
     78          1           0      -26.762467    1.599092   -1.756183
     79          1           0      -26.378259    1.735299    0.004669
     80         12           0       33.033369    0.569667   -0.504684
     81          6           0       31.503639   -2.587369    0.229793
     82          6           0       30.412034    2.075391    1.333921
     83          6           0       34.797420    3.424202   -0.497936
     84          6           0       35.800689   -1.141373   -1.656926
     85          7           0       31.140848   -0.156396    0.657612
     86          6           0       30.823264   -1.478530    0.796457
     87          6           0       29.736080   -1.634113    1.847967
     88          6           0       29.263757   -0.122015    1.924488
     89          6           0       30.307232    0.710701    1.282802
     90          6           0       27.866738    0.224962    1.308702
     91          6           0       30.317180   -2.324400    3.123493
     92          6           0       29.506458   -3.487521    3.829650
     93          1           0       29.024154   -3.309195    5.280496
     94          7           0       32.626179    2.464601    0.100086
     95          6           0       31.494494    2.916237    0.828984
     96          6           0       31.566325    4.350035    1.041630
     97          6           0       32.863799    4.728129    0.504816
     98          6           0       33.465625    3.507507    0.001802
     99          6           0       30.537706    5.073223    1.806552
    100          6           0       33.373615    6.179831    0.503132
    101          8           0       32.644470    7.029789    1.092867
    102          6           0       34.682273    6.669498   -0.152558
    103          7           0       35.143654    1.109544   -0.754843
    104          6           0       35.569314    2.352362   -0.875432
    105          6           0       37.020663    2.324570   -1.231314
    106          6           0       37.279949    0.852979   -1.651211
    107          6           0       36.003677    0.178678   -1.251425
    108          6           0       37.596873    3.354483   -2.294585
    109          6           0       38.579131    0.163470   -0.983652
    110          6           0       39.747988   -0.258984   -1.907099
    111          7           0       33.504370   -1.379865   -0.873209
    112          6           0       34.641177   -1.928023   -1.334491
    113          6           0       34.541874   -3.338949   -1.419990
    114          6           0       33.298059   -3.627476   -0.853655
    115          6           0       32.701660   -2.394779   -0.486195
    116          6           0       35.476417   -4.345624   -1.959884
    117          6           0       32.477551   -4.745483   -0.503095
    118          8           0       32.726415   -5.925469   -0.609148
    119          6           0       31.205985   -4.062839    0.311779
    120          6           0       29.945747   -4.392083   -0.364722
    121          8           0       29.756829   -4.363626   -1.587431
    122          8           0       29.035854   -4.700333    0.624013
    123          6           0       27.692986   -5.068910    0.178864
    124          1           0       29.630071    2.599188    1.885833
    125          1           0       35.453055    4.294185   -0.427080
    126          1           0       36.546295   -1.707941   -2.218973
    127          1           0       28.919775   -2.171327    1.364428
    128          1           0       29.372565    0.011166    3.001476
    129          1           0       28.026714    1.001489    0.559327
    130          1           0       27.151699    0.631107    2.023808
    131          1           0       27.380169   -0.581659    0.759477
    132          1           0       30.368410   -1.457851    3.782337
    133          1           0       31.338964   -2.694337    3.041648
    134          1           0       30.155328   -4.359810    3.753194
    135          1           0       28.693690   -3.781990    3.166421
    136          1           0       30.432810    4.543257    2.753539
    137          1           0       29.572763    4.984675    1.307839
    138          1           0       30.650229    6.151682    1.920802
    139          1           0       35.515249    6.307432    0.450297
    140          1           0       34.488990    7.717997   -0.376862
    141          1           0       34.675424    6.151597   -1.112229
    142          1           0       37.566776    2.573542   -0.322280
    143          1           0       37.233222    0.922408   -2.738067
    144          1           0       38.637411    3.491114   -1.999047
    145          1           0       37.006173    4.269036   -2.244340
    146          1           0       37.541055    2.859331   -3.264179
    147          1           0       38.167345   -0.696829   -0.456255
    148          1           0       38.912105    0.813128   -0.174329
    149          1           0       40.079334   -1.280976   -1.728030
    150          1           0       40.577625    0.431618   -1.753559
    151          1           0       39.530989   -0.143411   -2.969174
    152          1           0       34.974956   -5.289227   -2.172598
    153          1           0       36.140031   -4.401450   -1.096786
    154          1           0       36.121497   -3.849760   -2.685096
    155          1           0       31.244791   -4.298398    1.374711
    156          1           0       27.719610   -5.852174   -0.579031
    157          1           0       27.175253   -4.186513   -0.200081
    158          1           0       27.140199   -5.463751    1.031323
 ---------------------------------------------------------------------

 SCF Done:  E(RCAM-B3LYP) =  -4069.78009317     A.U. after   19 cycles

 Excitation energies and oscillator strengths:

 Excited State   1:      Singlet-A      1.6890 eV  734.07 nm  f=0.3508  <S**2>=0.000
     309 -> 315        0.16436
     312 -> 314        0.68788
     309 <- 315        0.10172
 This state for optimization and/or second-order correction.
 Total Energy, E(TD-HF/TD-DFT) =  -4069.71802329
 Copying the excited state density for this state as the 1-particle RhoCI density.

 Excited State   2:      Singlet-A      1.6989 eV  729.78 nm  f=0.3986  <S**2>=0.000
     310 -> 316       -0.18529
     311 -> 313        0.68532
     310 <- 316       -0.11147

 Excited State   3:      Singlet-A      2.2121 eV  560.48 nm  f=0.1070  <S**2>=0.000
     309 -> 314        0.64121
     312 -> 315       -0.27963

 Excited State   4:      Singlet-A      2.2522 eV  550.50 nm  f=0.1327  <S**2>=0.000
     310 -> 313        0.64093
     311 -> 316        0.28919

 Excited State   5:      Singlet-A      3.1886 eV  388.83 nm  f=0.0000  <S**2>=0.000
     312 -> 313        0.70711

 The electronic state is 1-A.
 Alpha  occ. eigenvalues --  -46.89224 -46.88906 -19.26276 -19.25562 -19.20561
 Alpha  occ. eigenvalues --  -19.19741 -19.19524 -19.19043 -19.18131 -19.17901
 Alpha  occ. eigenvalues --  -14.42114 -14.41933 -14.41909 -14.41400 -14.40312
 Alpha  occ. eigenvalues --  -14.39932 -14.39826 -14.38591 -10.40098 -10.38663
 Alpha  occ. eigenvalues --  -10.35758 -10.35449 -10.35244 -10.34073 -10.32454
 Alpha  occ. eigenvalues --  -10.32317 -10.31714 -10.31711 -10.31190 -10.30984
 Alpha  occ. eigenvalues --  -10.30774 -10.30683 -10.30636 -10.30399 -10.30328
 Alpha  occ. eigenvalues --  -10.30310 -10.30254 -10.29970 -10.29756 -10.29374
 Alpha  occ. eigenvalues --  -10.29081 -10.28948 -10.28786 -10.28732 -10.28562
 Alpha  occ. eigenvalues --  -10.28392 -10.28391 -10.28213 -10.28162 -10.28101
 Alpha  occ. eigenvalues --  -10.28040 -10.27851 -10.27780 -10.27778 -10.27690
 Alpha  occ. eigenvalues --  -10.27625 -10.27591 -10.27585 -10.27573 -10.27519
 Alpha  occ. eigenvalues --  -10.27487 -10.27470 -10.27454 -10.27436 -10.27262
 Alpha  occ. eigenvalues --  -10.27232 -10.27198 -10.27169 -10.26996 -10.26996
 Alpha  occ. eigenvalues --  -10.26785 -10.26675 -10.26671 -10.26657 -10.26615
 Alpha  occ. eigenvalues --  -10.26585 -10.26435 -10.26405 -10.26279 -10.26235
 Alpha  occ. eigenvalues --  -10.26221 -10.26219 -10.26075 -10.25047 -10.24562
 Alpha  occ. eigenvalues --  -10.24434  -3.17797  -3.17461  -1.92685  -1.92350
 Alpha  occ. eigenvalues --   -1.92266  -1.92088  -1.91904  -1.91777  -1.16546
 Alpha  occ. eigenvalues --   -1.15950  -1.11958  -1.10822  -1.08171  -1.08107
 Alpha  occ. eigenvalues --   -1.07241  -1.07053  -1.06428  -1.05452  -1.04726
 Alpha  occ. eigenvalues --   -1.04593  -1.03938  -1.03742  -1.02830  -1.02339
 Alpha  occ. eigenvalues --   -0.93182  -0.92499  -0.89732  -0.89327  -0.88690
 Alpha  occ. eigenvalues --   -0.88284  -0.88261  -0.88133  -0.87972  -0.87475
 Alpha  occ. eigenvalues --   -0.87301  -0.86879  -0.86630  -0.86006  -0.84636
 Alpha  occ. eigenvalues --   -0.84301  -0.83859  -0.83806  -0.82728  -0.82278
 Alpha  occ. eigenvalues --   -0.82017  -0.81830  -0.81366  -0.80916  -0.80486
 Alpha  occ. eigenvalues --   -0.80347  -0.78426  -0.78223  -0.77843  -0.77647
 Alpha  occ. eigenvalues --   -0.76879  -0.76809  -0.76300  -0.75974  -0.75494
 Alpha  occ. eigenvalues --   -0.75345  -0.73196  -0.72692  -0.72224  -0.72214
 Alpha  occ. eigenvalues --   -0.70489  -0.69813  -0.69388  -0.69315  -0.68484
 Alpha  occ. eigenvalues --   -0.68153  -0.67750  -0.66825  -0.66751  -0.66155
 Alpha  occ. eigenvalues --   -0.65635  -0.65361  -0.65118  -0.64853  -0.64765
 Alpha  occ. eigenvalues --   -0.64462  -0.62961  -0.62421  -0.60518  -0.60145
 Alpha  occ. eigenvalues --   -0.59904  -0.59624  -0.59547  -0.59185  -0.58918
 Alpha  occ. eigenvalues --   -0.58804  -0.58432  -0.57978  -0.57594  -0.56998
 Alpha  occ. eigenvalues --   -0.56693  -0.56240  -0.56211  -0.55985  -0.55672
 Alpha  occ. eigenvalues --   -0.55650  -0.55043  -0.54861  -0.54505  -0.54143
 Alpha  occ. eigenvalues --   -0.53695  -0.53591  -0.53293  -0.52948  -0.52937
 Alpha  occ. eigenvalues --   -0.52663  -0.52634  -0.52392  -0.52097  -0.51977
 Alpha  occ. eigenvalues --   -0.51766  -0.51703  -0.51415  -0.51234  -0.51229
 Alpha  occ. eigenvalues --   -0.51186  -0.50651  -0.50581  -0.50411  -0.50338
 Alpha  occ. eigenvalues --   -0.50214  -0.50030  -0.49972  -0.49919  -0.49691
 Alpha  occ. eigenvalues --   -0.49567  -0.49409  -0.49142  -0.48941  -0.48787
 Alpha  occ. eigenvalues --   -0.48626  -0.48464  -0.48341  -0.47938  -0.47772
 Alpha  occ. eigenvalues --   -0.47743  -0.47681  -0.47654  -0.47592  -0.47450
 Alpha  occ. eigenvalues --   -0.47408  -0.47031  -0.46925  -0.46815  -0.46646
 Alpha  occ. eigenvalues --   -0.46454  -0.46286  -0.46224  -0.46126  -0.45934
 Alpha  occ. eigenvalues --   -0.45830  -0.45812  -0.45622  -0.45379  -0.45375
 Alpha  occ. eigenvalues --   -0.45105  -0.44981  -0.44667  -0.44539  -0.44417
 Alpha  occ. eigenvalues --   -0.44299  -0.44210  -0.43984  -0.43776  -0.43657
 Alpha  occ. eigenvalues --   -0.43557  -0.43378  -0.43275  -0.43164  -0.43085
 Alpha  occ. eigenvalues --   -0.42946  -0.42918  -0.42807  -0.42607  -0.42323
 Alpha  occ. eigenvalues --   -0.42187  -0.41962  -0.41898  -0.41525  -0.41454
 Alpha  occ. eigenvalues --   -0.41228  -0.41162  -0.41104  -0.40853  -0.40766
 Alpha  occ. eigenvalues --   -0.40334  -0.40228  -0.40072  -0.39619  -0.38925
 Alpha  occ. eigenvalues --   -0.38744  -0.38623  -0.38285  -0.38247  -0.37723
 Alpha  occ. eigenvalues --   -0.37709  -0.37637  -0.36814  -0.36706  -0.36488
 Alpha  occ. eigenvalues --   -0.36446  -0.35851  -0.35189  -0.34966  -0.34111
 Alpha  occ. eigenvalues --   -0.33597  -0.33385  -0.33016  -0.31909  -0.31380
 Alpha  occ. eigenvalues --   -0.31329  -0.31125  -0.30597  -0.30331  -0.30109
 Alpha  occ. eigenvalues --   -0.30052  -0.29368  -0.28958  -0.24184  -0.24169
 Alpha  occ. eigenvalues --   -0.21311  -0.21163
 Alpha virt. eigenvalues --   -0.08927  -0.08798  -0.01800  -0.01730   0.00205
 Alpha virt. eigenvalues --    0.00284   0.01663   0.02300   0.02360   0.02426
 Alpha virt. eigenvalues --    0.04249   0.04623   0.05010   0.05806   0.05831

 Mulliken charges:
               1
     1  Mg  12.000342
     2  C    6.017683
     3  C    5.985297
     4  C    5.976299
     5  C    6.006430
     6  N    7.008290
     7  C    5.963429
     8  C    6.011158
     9  C    5.985038
    10  C    6.034391
    11  C    5.996635
    12  C    5.999197
    13  C    6.002123
    14  H    0.990741
    15  N    6.990096
    16  C    6.043850
    17  C    6.021692
    18  C    6.014030
    19  C    6.039258
    20  C    5.994435
    21  C    6.008116
    22  O    8.018594
    23  C    5.997767
    24  N    6.999055
    25  C    6.034585
    26  C    5.989937
    27  C    6.010882
    28  C    5.966258
    29  C    5.997005
    30  C    6.007511
    31  C    6.001239
    32  N    7.001544
    33  C    5.967456
    34  C    5.967040
    35  C    5.999883
    36  C    5.971446
    37  C    6.001377
    38  C    5.985024
    39  O    7.969754
    40  C    6.000894
    41  C    5.995719
    42  O    7.993165
    43  O    8.001261
    44  C    6.001330
    45  H    1.010332
    46  H    1.005853
    47  H    0.991020
    48  H    1.002899
    49  H    1.006126
    50  H    1.003935
    51  H    1.016348
    52  H    0.999616
    53  H    0.988314
    54  H    1.005412
    55  H    1.002297
    56  H    1.000520
    57  H    1.019306
    58  H    1.019241
    59  H    1.018843
    60  H    1.010795
    61  H    1.011355
    62  H    1.011357
    63  H    0.999167
    64  H    0.998786
    65  H    1.000766
    66  H    0.994303
    67  H    1.010103
    68  H    0.997171
    69  H    0.987101
    70  H    0.993798
    71  H    1.001772
    72  H    1.004088
    73  H    0.980264
    74  H    0.982665
    75  H    0.980486
    76  H    0.991374
    77  H    1.000219
    78  H    0.993314
    79  H    0.993798
    80  Mg  12.000001
    81  C    6.000312
    82  C    5.999692
    83  C    5.999683
    84  C    6.000297
    85  N    6.999951
    86  C    5.999598
    87  C    6.000090
    88  C    5.999888
    89  C    6.000371
    90  C    5.999957
    91  C    6.000113
    92  C    6.000013
    93  H    0.999866
    94  N    6.999946
    95  C    6.000673
    96  C    6.000273
    97  C    6.000120
    98  C    6.000500
    99  C    5.999865
   100  C    6.000194
   101  O    8.000295
   102  C    6.000009
   103  N    6.999990
   104  C    6.000435
   105  C    5.999838
   106  C    6.000171
   107  C    5.999561
   108  C    5.999990
   109  C    6.000025
   110  C    6.000022
   111  N    6.999998
   112  C    5.999499
   113  C    5.999670
   114  C    5.999946
   115  C    5.999549
   116  C    6.000053
   117  C    5.999762
   118  O    7.999650
   119  C    5.999949
   120  C    5.999934
   121  O    7.999943
   122  O    7.999966
   123  C    6.000043
   124  H    1.000132
   125  H    1.000113
   126  H    0.999904
   127  H    0.999995
   128  H    1.000038
   129  H    0.999944
   130  H    1.000034
   131  H    1.000169
   132  H    0.999835
   133  H    1.000065
   134  H    1.000038
   135  H    0.999997
   136  H    1.000275
   137  H    1.000292
   138  H    1.000218
   139  H    1.000137
   140  H    1.000168
   141  H    1.000099
   142  H    1.000020
   143  H    0.999959
   144  H    1.000072
   145  H    0.999906
   146  H    1.000092
   147  H    1.000075
   148  H    0.999870
   149  H    1.000017
   150  H    0.999922
   151  H    0.999979
   152  H    0.999802
   153  H    0.999726
   154  H    0.999730
   155  H    0.999862
   156  H    0.999965
   157  H    0.999922
   158  H    0.999922
 Sum of Mulliken charges = 624.00000

 Dipole moment (field-independent basis, Debye):
    X=             -1.7475    Y=            -10.3097    Z=              0.4549  Tot=             10.4667
 Quadrupole moment (field-independent basis, Debye-Ang):
   XX=            111.4569   YY=              5.5384   ZZ=             -1.8588
   XY=            352.8579   XZ=            -14.5014   YZ=              2.8004

 Normal termination of Gaussian 16 at Thu Sep 23 03:13:07 2021.
