 Gaussian 16, Revision A.03,
 Gaussian 16:  ES64L-G16RevA.03 25-Dec-2016

 -----------------------------------
 #p cam-b3lyp/Def2SVP td=(nstates=5)
 -----------------------------------

 --------------------------------
 TDDFT excited states in gaussian
 --------------------------------
 Symbolic Z-matrix:
 Charge =  0 Multiplicity = 1

                         Standard orientation:
 ---------------------------------------------------------------------
 Center     Atomic      Atomic             Coordinates (Angstroms)
 Number     Number       Type             X           Y           Z
 ---------------------------------------------------------------------
      1         12           0      -28.511743    0.509827   -0.672606
      2          6           0      -27.897444   -2.527473    1.285671
      3          6           0      -26.998062    2.258279    1.959431
      4          6           0      -29.334396    3.281566   -2.178688
      5          6           0      -29.788327   -1.422015   -3.202477
      6          7           0      -27.759001   -0.036129    1.443739
      7          6           0      -27.473895   -1.352679    2.000798
      8          6           0      -26.831380   -1.309541    3.403841
      9          6           0      -26.771328    0.312787    3.615845
     10          6           0      -27.211997    0.931785    2.274869
     11          6           0      -27.587710    0.806263    4.794536
     12          6           0      -25.479735   -2.085749    3.412964
     13          6           0      -24.622043   -1.867735    4.623055
     14          1           0      -23.945544   -3.046689    5.286445
     15          7           0      -28.238695    2.539670   -0.186329
     16          6           0      -27.586388    3.070097    0.932478
     17          6           0      -27.564535    4.528973    0.843660
     18          6           0      -28.252983    4.867616   -0.392582
     19          6           0      -28.660145    3.552175   -1.011402
     20          6           0      -26.837398    5.483472    1.860367
     21          6           0      -28.598349    6.180086   -0.998498
     22          8           0      -29.161178    6.329676   -2.074879
     23          6           0      -28.155989    7.428452   -0.354859
     24          7           0      -29.320894    0.872236   -2.426731
     25          6           0      -29.687972    2.098023   -2.804882
     26          6           0      -30.380616    2.114364   -4.187740
     27          6           0      -30.108944    0.702529   -4.664139
     28          6           0      -29.768295   -0.051016   -3.320355
     29          6           0      -31.867028    2.443765   -4.112865
     30          6           0      -29.083856    0.377515   -5.719594
     31          6           0      -27.660306    0.713676   -5.329688
     32          7           0      -28.893845   -1.523617   -0.911052
     33          6           0      -29.339685   -2.169887   -2.078106
     34          6           0      -29.383386   -3.590971   -1.836302
     35          6           0      -28.755292   -3.706486   -0.569529
     36          6           0      -28.484490   -2.434673   -0.029713
     37          6           0      -29.780238   -4.690320   -2.777836
     38          6           0      -28.268556   -4.754526    0.380108
     39          8           0      -28.200275   -5.996786    0.263199
     40          6           0      -27.742317   -3.996459    1.596798
     41          6           0      -28.454613   -4.478356    2.862391
     42          8           0      -29.673763   -4.398056    3.195712
     43          8           0      -27.487526   -4.920375    3.716043
     44          6           0      -27.958827   -5.358878    5.049253
     45          1           0      -26.353374    2.771622    2.674526
     46          1           0      -29.675709    4.195559   -2.669076
     47          1           0      -30.204337   -2.096745   -3.953717
     48          1           0      -27.510330   -1.874529    4.042455
     49          1           0      -25.727641    0.618632    3.688774
     50          1           0      -26.921840    1.330486    5.480632
     51          1           0      -27.982409   -0.082293    5.285984
     52          1           0      -28.541691    1.287911    4.581068
     53          1           0      -25.011349   -1.864048    2.453397
     54          1           0      -25.694666   -3.152841    3.354919
     55          1           0      -25.103349   -1.434095    5.499338
     56          1           0      -23.762845   -1.257567    4.346023
     57          1           0      -26.069946    5.982535    1.268006
     58          1           0      -26.355182    4.955556    2.682949
     59          1           0      -27.598256    6.175208    2.222110
     60          1           0      -28.293805    7.440069    0.726528
     61          1           0      -28.789479    8.187678   -0.812168
     62          1           0      -27.074957    7.419094   -0.490714
     63          1           0      -29.888242    2.885646   -4.780126
     64          1           0      -30.992015    0.243491   -5.109519
     65          1           0      -32.115842    3.103305   -4.943448
     66          1           0      -32.112339    2.953017   -3.181495
     67          1           0      -32.461048    1.551717   -4.314817
     68          1           0      -29.402340    0.848122   -6.650160
     69          1           0      -29.003744   -0.699362   -5.867053
     70          1           0      -27.129717    1.231937   -6.127583
     71          1           0      -27.053734   -0.172938   -5.143705
     72          1           0      -27.574095    1.358814   -4.455261
     73          1           0      -28.989204   -5.438666   -2.819596
     74          1           0      -30.027185   -4.472202   -3.816818
     75          1           0      -30.674532   -5.153837   -2.360790
     76          1           0      -26.695724   -4.268105    1.737389
     77          1           0      -27.781616   -4.569886    5.779840
     78          1           0      -27.363961   -6.267415    5.143147
     79          1           0      -28.993727   -5.703075    5.033182
     80         12           0       29.088788   -0.307838    0.053990
     81          6           0       26.100329    1.271701    1.037663
     82          6           0       27.123768   -3.018433   -0.886850
     83          6           0       31.770389   -1.728723   -1.317749
     84          6           0       30.644600    2.790711    0.201751
     85          7           0       26.816780   -0.690453   -0.050571
     86          6           0       25.771479    0.016175    0.511490
     87          6           0       24.484352   -0.761057    0.691070
     88          6           0       24.821863   -2.147821    0.093404
     89          6           0       26.318189   -1.981416   -0.329735
     90          6           0       24.596933   -3.359035    1.086844
     91          6           0       23.181782   -0.148663    0.006653
     92          6           0       23.359171    0.650259   -1.294831
     93          1           0       22.959585   -0.028234   -2.638541
     94          7           0       29.391688   -2.087287   -0.930647
     95          6           0       28.487903   -3.084247   -1.165112
     96          6           0       29.164198   -4.242192   -1.766581
     97          6           0       30.540507   -3.883274   -1.899487
     98          6           0       30.607114   -2.486359   -1.370568
     99          6           0       28.454405   -5.542765   -2.123616
    100          6           0       31.527927   -4.881959   -2.610649
    101          8           0       31.066260   -5.922529   -3.058006
    102          6           0       33.051959   -4.490715   -2.813876
    103          7           0       30.862026    0.454266   -0.582568
    104          6           0       31.912256   -0.367586   -0.985082
    105          6           0       33.286334    0.495902   -1.154584
    106          6           0       32.746427    1.980564   -0.779748
    107          6           0       31.337976    1.710235   -0.358175
    108          6           0       34.433133   -0.013870   -0.232879
    109          6           0       32.810998    3.043859   -1.958509
    110          6           0       33.488479    4.398984   -1.702266
    111          7           0       28.564194    1.652164    0.639051
    112          6           0       29.268632    2.828750    0.647161
    113          6           0       28.370555    3.910167    1.104267
    114          6           0       27.130519    3.273149    1.378026
    115          6           0       27.316886    1.908074    1.022384
    116          6           0       28.685880    5.374593    1.234098
    117          6           0       25.742463    3.558646    1.787451
    118          8           0       25.186338    4.575129    2.228301
    119          6           0       25.082315    2.188112    1.762093
    120          6           0       24.669357    1.747196    3.051768
    121          8           0       25.480355    1.260631    3.881734
    122          8           0       23.279628    1.897640    3.228879
    123          6           0       22.672581    1.342814    4.434464
    124          1           0       26.589786   -3.958063   -1.041007
    125          1           0       32.701744   -2.215713   -1.612759
    126          1           0       31.222333    3.713810    0.277107
    127          1           0       24.365399   -0.771423    1.773849
    128          1           0       24.281909   -2.196092   -0.851537
    129          1           0       23.753388   -3.957673    0.743202
    130          1           0       24.392877   -2.912518    2.060396
    131          1           0       25.472110   -4.008326    1.127986
    132          1           0       22.851775    0.551109    0.775499
    133          1           0       22.434150   -0.934645   -0.102458
    134          1           0       24.390941    0.987048   -1.400794
    135          1           0       22.801993    1.581088   -1.197518
    136          1           0       28.249463   -5.674747   -3.186032
    137          1           0       27.613486   -5.726788   -1.454850
    138          1           0       29.059120   -6.403166   -1.837566
    139          1           0       33.411602   -4.118904   -1.854141
    140          1           0       33.089218   -3.720471   -3.583764
    141          1           0       33.646779   -5.263064   -3.301488
    142          1           0       33.637425    0.298504   -2.166998
    143          1           0       33.306272    2.307993    0.096595
    144          1           0       34.410319    0.585891    0.676754
    145          1           0       35.403153   -0.023860   -0.730067
    146          1           0       34.347350   -1.064065    0.045620
    147          1           0       31.787291    3.180226   -2.308594
    148          1           0       33.401059    2.504101   -2.699167
    149          1           0       33.179414    5.154723   -2.424896
    150          1           0       34.543949    4.153062   -1.816721
    151          1           0       33.184021    4.659955   -0.688490
    152          1           0       29.485926    5.536191    0.512167
    153          1           0       29.108718    5.430767    2.237153
    154          1           0       27.826699    6.043558    1.176986
    155          1           0       24.229728    2.374736    1.109497
    156          1           0       22.962926    1.780912    5.389419
    157          1           0       22.868071    0.271513    4.489790
    158          1           0       21.595967    1.345357    4.263394
 ---------------------------------------------------------------------

 SCF Done:  E(RCAM-B3LYP) =  -4069.81204982     A.U. after   19 cycles

 Excitation energies and oscillator strengths:

 Excited State   1:      Singlet-A      1.6630 eV  745.54 nm  f=0.3967  <S**2>=0.000
     309 -> 316       -0.16582
     311 -> 313        0.68886
     309 <- 316       -0.10534
 This state for optimization and/or second-order correction.
 Total Energy, E(TD-HF/TD-DFT) =  -4069.75093531
 Copying the excited state density for this state as the 1-particle RhoCI density.

 Excited State   2:      Singlet-A      1.7180 eV  721.69 nm  f=0.3776  <S**2>=0.000
     310 -> 315       -0.18148
     312 -> 314        0.68506
     310 <- 315       -0.10791

 Excited State   3:      Singlet-A      2.1713 eV  571.01 nm  f=0.1379  <S**2>=0.000
     309 -> 313        0.65261
     311 -> 316        0.25468

 Excited State   4:      Singlet-A      2.3104 eV  536.64 nm  f=0.0714  <S**2>=0.000
     310 -> 314        0.61633
     312 -> 315        0.33581

 Excited State   5:      Singlet-A      2.9764 eV  416.55 nm  f=0.0000  <S**2>=0.000
     312 -> 313        0.70711

 The electronic state is 1-A.
 Alpha  occ. eigenvalues --  -46.88944 -46.87763 -19.25812 -19.25765 -19.20255
 Alpha  occ. eigenvalues --  -19.19639 -19.19631 -19.19211 -19.18772 -19.18474
 Alpha  occ. eigenvalues --  -14.42655 -14.42506 -14.42172 -14.42100 -14.39976
 Alpha  occ. eigenvalues --  -14.39965 -14.39333 -14.38869 -10.40043 -10.39960
 Alpha  occ. eigenvalues --  -10.36510 -10.35369 -10.34745 -10.34656 -10.32136
 Alpha  occ. eigenvalues --  -10.31981 -10.31916 -10.31896 -10.31507 -10.31378
 Alpha  occ. eigenvalues --  -10.31367 -10.31101 -10.30953 -10.30699 -10.30655
 Alpha  occ. eigenvalues --  -10.30623 -10.30603 -10.30476 -10.30106 -10.29857
 Alpha  occ. eigenvalues --  -10.29316 -10.29271 -10.29020 -10.28970 -10.28962
 Alpha  occ. eigenvalues --  -10.28886 -10.28827 -10.28660 -10.28606 -10.28596
 Alpha  occ. eigenvalues --  -10.28483 -10.28387 -10.28325 -10.28323 -10.28322
 Alpha  occ. eigenvalues --  -10.28258 -10.28049 -10.27779 -10.27760 -10.27539
 Alpha  occ. eigenvalues --  -10.27515 -10.27486 -10.27410 -10.27393 -10.27171
 Alpha  occ. eigenvalues --  -10.27155 -10.27015 -10.26976 -10.26845 -10.26814
 Alpha  occ. eigenvalues --  -10.26748 -10.26676 -10.26600 -10.26587 -10.26290
 Alpha  occ. eigenvalues --  -10.26071 -10.25905 -10.25877 -10.25833 -10.25740
 Alpha  occ. eigenvalues --  -10.25728 -10.25636 -10.25474 -10.25191 -10.24711
 Alpha  occ. eigenvalues --  -10.24568  -3.17570  -3.16503  -1.92428  -1.92041
 Alpha  occ. eigenvalues --   -1.91875  -1.91408  -1.90969  -1.90805  -1.16007
 Alpha  occ. eigenvalues --   -1.14992  -1.10431  -1.10392  -1.09075  -1.07810
 Alpha  occ. eigenvalues --   -1.07042  -1.05769  -1.05058  -1.04164  -1.03565
 Alpha  occ. eigenvalues --   -1.02831  -1.02630  -1.02278  -1.01897  -1.00614
 Alpha  occ. eigenvalues --   -0.93152  -0.92313  -0.89701  -0.89182  -0.88868
 Alpha  occ. eigenvalues --   -0.88866  -0.88705  -0.88066  -0.87330  -0.87009
 Alpha  occ. eigenvalues --   -0.86824  -0.86098  -0.85888  -0.85578  -0.84779
 Alpha  occ. eigenvalues --   -0.84542  -0.84060  -0.83931  -0.82949  -0.82819
 Alpha  occ. eigenvalues --   -0.82308  -0.81679  -0.81428  -0.81026  -0.80101
 Alpha  occ. eigenvalues --   -0.80085  -0.78529  -0.78186  -0.77281  -0.77236
 Alpha  occ. eigenvalues --   -0.76819  -0.76788  -0.76539  -0.75974  -0.75506
 Alpha  occ. eigenvalues --   -0.74921  -0.72770  -0.72350  -0.71960  -0.71768
 Alpha  occ. eigenvalues --   -0.70306  -0.69455  -0.69312  -0.68928  -0.68451
 Alpha  occ. eigenvalues --   -0.67643  -0.67151  -0.66828  -0.65796  -0.65205
 Alpha  occ. eigenvalues --   -0.65071  -0.64671  -0.64596  -0.64336  -0.64218
 Alpha  occ. eigenvalues --   -0.63831  -0.62459  -0.61949  -0.60250  -0.60237
 Alpha  occ. eigenvalues --   -0.59641  -0.59171  -0.59090  -0.59082  -0.58670
 Alpha  occ. eigenvalues --   -0.58331  -0.57758  -0.57727  -0.57409  -0.57201
 Alpha  occ. eigenvalues --   -0.56290  -0.56160  -0.55997  -0.55622  -0.55491
 Alpha  occ. eigenvalues --   -0.55309  -0.54965  -0.54813  -0.54450  -0.54298
 Alpha  occ. eigenvalues --   -0.54210  -0.53782  -0.53470  -0.53101  -0.53082
 Alpha  occ. eigenvalues --   -0.52736  -0.52632  -0.52506  -0.52359  -0.52142
 Alpha  occ. eigenvalues --   -0.52137  -0.51581  -0.51204  -0.51155  -0.50963
 Alpha  occ. eigenvalues --   -0.50841  -0.50740  -0.50725  -0.50394  -0.50317
 Alpha  occ. eigenvalues --   -0.50195  -0.49996  -0.49801  -0.49529  -0.49376
 Alpha  occ. eigenvalues --   -0.49369  -0.49273  -0.48981  -0.48850  -0.48820
 Alpha  occ. eigenvalues --   -0.48590  -0.48553  -0.48457  -0.48364  -0.48153
 Alpha  occ. eigenvalues --   -0.48086  -0.47726  -0.47574  -0.47382  -0.47216
 Alpha  occ. eigenvalues --   -0.47027  -0.46766  -0.46628  -0.46530  -0.46463
 Alpha  occ. eigenvalues --   -0.46254  -0.46176  -0.46162  -0.46008  -0.45785
 Alpha  occ. eigenvalues --   -0.45710  -0.45449  -0.45397  -0.44983  -0.44952
 Alpha  occ. eigenvalues --   -0.44805  -0.44626  -0.44571  -0.44542  -0.44363
 Alpha  occ. eigenvalues --   -0.44196  -0.44190  -0.43984  -0.43939  -0.43497
 Alpha  occ. eigenvalues --   -0.43244  -0.43191  -0.43048  -0.42943  -0.42690
 Alpha  occ. eigenvalues --   -0.42642  -0.42512  -0.42408  -0.42275  -0.42209
 Alpha  occ. eigenvalues --   -0.42112  -0.41859  -0.41764  -0.41577  -0.41213
 Alpha  occ. eigenvalues --   -0.41077  -0.40964  -0.40620  -0.40470  -0.40288
 Alpha  occ. eigenvalues --   -0.39962  -0.39870  -0.39711  -0.39237  -0.39114
 Alpha  occ. eigenvalues --   -0.38919  -0.38902  -0.37659  -0.37525  -0.37340
 Alpha  occ. eigenvalues --   -0.37137  -0.37093  -0.37025  -0.36774  -0.36642
 Alpha  occ. eigenvalues --   -0.36530  -0.36118  -0.34769  -0.34424  -0.34313
 Alpha  occ. eigenvalues --   -0.34105  -0.33210  -0.33077  -0.31522  -0.31424
 Alpha  occ. eigenvalues --   -0.31278  -0.31214  -0.30991  -0.30409  -0.30325
 Alpha  occ. eigenvalues --   -0.30275  -0.29614  -0.29181  -0.24258  -0.24153
 Alpha  occ. eigenvalues --   -0.21485  -0.20841
 Alpha virt. eigenvalues --   -0.09302  -0.08196  -0.01817  -0.01670   0.00266
 Alpha virt. eigenvalues --    0.00322   0.01639   0.02042   0.02181   0.03359
 Alpha virt. eigenvalues --    0.03424   0.04501   0.05022   0.05152   0.05210

 Mulliken charges:
               1
     1  Mg   0.833772
     2  C   -0.021284
     3  C   -0.080151
     4  C   -0.082768
     5  C   -0.070316
     6  N   -0.301398
     7  C   -0.047332
     8  C   -0.021623
     9  C   -0.058512
    10  C    0.064034
    11  C    0.100739
    12  C    0.032557
    13  C   -0.071167
    14  H    0.011799
    15  N   -0.386368
    16  C    0.146995
    17  C   -0.156150
    18  C   -0.010728
    19  C    0.125049
    20  C    0.113794
    21  C   -0.027309
    22  O   -0.211687
    23  C    0.063949
    24  N   -0.345427
    25  C    0.087688
    26  C   -0.030108
    27  C   -0.026302
    28  C    0.096077
    29  C    0.087954
    30  C    0.059794
    31  C   -0.013221
    32  N   -0.360284
    33  C    0.064914
    34  C   -0.139141
    35  C   -0.053531
    36  C    0.135976
    37  C    0.107479
    38  C    0.083465
    39  O   -0.200403
    40  C    0.008596
    41  C    0.216117
    42  O   -0.257646
    43  O   -0.336367
    44  C    0.163762
    45  H   -0.033245
    46  H   -0.005311
    47  H   -0.025203
    48  H    0.025823
    49  H    0.008743
    50  H    0.023475
    51  H    0.000239
    52  H    0.025555
    53  H    0.009582
    54  H    0.036927
    55  H    0.030375
    56  H    0.032705
    57  H    0.039153
    58  H    0.020307
    59  H    0.045786
    60  H    0.005840
    61  H    0.040880
    62  H    0.037718
    63  H    0.013764
    64  H   -0.013278
    65  H    0.012821
    66  H    0.026531
    67  H    0.015537
    68  H    0.009182
    69  H    0.004003
    70  H    0.005192
    71  H    0.012492
    72  H    0.021972
    73  H    0.039107
    74  H    0.005110
    75  H    0.032608
    76  H    0.049794
    77  H    0.048531
    78  H    0.042669
    79  H    0.059337
    80  Mg   0.851570
    81  C   -0.100133
    82  C   -0.078308
    83  C   -0.099234
    84  C   -0.088951
    85  N   -0.279380
    86  C   -0.081184
    87  C   -0.019313
    88  C   -0.002826
    89  C   -0.000098
    90  C    0.073891
    91  C    0.027078
    92  C   -0.064895
    93  H    0.020885
    94  N   -0.362109
    95  C    0.140204
    96  C   -0.140664
    97  C   -0.078376
    98  C    0.187262
    99  C    0.142628
   100  C    0.026531
   101  O   -0.197125
   102  C    0.035341
   103  N   -0.347404
   104  C    0.055839
   105  C   -0.054217
   106  C   -0.028379
   107  C    0.061094
   108  C    0.055233
   109  C    0.021376
   110  C    0.018575
   111  N   -0.317890
   112  C    0.107206
   113  C   -0.195291
   114  C   -0.057890
   115  C    0.233658
   116  C    0.136015
   117  C    0.071811
   118  O   -0.182101
   119  C    0.008139
   120  C    0.252106
   121  O   -0.249967
   122  O   -0.351343
   123  C    0.193052
   124  H   -0.033193
   125  H   -0.057967
   126  H   -0.041239
   127  H    0.023634
   128  H    0.018846
   129  H    0.021275
   130  H    0.018754
   131  H    0.026171
   132  H    0.015694
   133  H    0.022974
   134  H    0.041912
   135  H    0.033109
   136  H    0.040414
   137  H    0.001800
   138  H    0.020854
   139  H    0.054665
   140  H    0.038701
   141  H    0.026090
   142  H    0.018369
   143  H    0.011707
   144  H    0.016646
   145  H    0.016013
   146  H    0.011109
   147  H    0.024242
   148  H    0.000213
   149  H    0.028354
   150  H    0.019653
   151  H    0.018972
   152  H    0.013669
   153  H    0.031446
   154  H    0.042846
   155  H    0.030550
   156  H    0.050917
   157  H    0.016632
   158  H    0.033744
 Sum of Mulliken charges =  -0.00000

 Dipole moment (field-independent basis, Debye):
    X=              4.8330    Y=              2.6918    Z=              1.5857  Tot=              5.7548
 Quadrupole moment (field-independent basis, Debye-Ang):
   XX=           -524.1546   YY=           -567.0106   ZZ=           -489.2440
   XY=           -126.1619   XZ=            -48.9653   YZ=             -8.2503

 Normal termination of Gaussian 16 at Wed Sep 15 04:06:56 2021.
