 Gaussian 16, Revision A.03,
 Gaussian 16:  ES64L-G16RevA.03 25-Dec-2016

 -----------------------------------
 #p cam-b3lyp/Def2SVP td=(nstates=5)
 -----------------------------------

 --------------------------------
 TDDFT excited states in gaussian
 --------------------------------
 Symbolic Z-matrix:
 Charge =  0 Multiplicity = 1

                         Standard orientation:
 ---------------------------------------------------------------------
 Center     Atomic      Atomic             Coordinates (Angstroms)
 Number     Number       Type             X           Y           Z
 ---------------------------------------------------------------------
      1         12           0       29.220285    0.429179    0.066897
      2          6           0       26.591690   -1.265768   -1.554997
      3          6           0       30.794807   -2.544255    0.525443
      4          6           0       31.658733    2.092448    1.718397
      5          6           0       27.331106    3.340346   -0.054150
      6          7           0       28.716041   -1.642352   -0.355973
      7          6           0       27.643430   -2.094467   -1.129448
      8          6           0       27.820740   -3.554468   -1.420192
      9          6           0       28.861613   -3.981725   -0.358210
     10          6           0       29.515509   -2.613953   -0.033232
     11          6           0       28.325893   -4.632468    0.956068
     12          6           0       28.257132   -3.914847   -2.890104
     13          6           0       27.467005   -5.018956   -3.517359
     14          1           0       28.268771   -6.095997   -4.271773
     15          7           0       30.982594   -0.138076    0.872651
     16          6           0       31.531781   -1.430960    0.892428
     17          6           0       32.811515   -1.402934    1.480177
     18          6           0       33.122950   -0.011804    1.854465
     19          6           0       31.934870    0.701145    1.480680
     20          6           0       33.652491   -2.601572    1.809346
     21          6           0       34.364356    0.651694    2.594444
     22          8           0       34.411131    1.844710    2.779442
     23          6           0       35.572858   -0.181012    2.997796
     24          7           0       29.405024    2.415464    0.832408
     25          6           0       30.515581    2.830971    1.494614
     26          6           0       30.350144    4.360566    1.945534
     27          6           0       29.085763    4.842311    1.108052
     28          6           0       28.548726    3.442973    0.583604
     29          6           0       30.166500    4.614152    3.467403
     30          6           0       29.425444    5.835787   -0.059541
     31          6           0       28.609657    7.057149    0.020834
     32          7           0       27.332470    0.948160   -0.603477
     33          6           0       26.737994    2.206472   -0.684887
     34          6           0       25.467159    2.103979   -1.349065
     35          6           0       25.361042    0.767841   -1.677467
     36          6           0       26.478552    0.120051   -1.254254
     37          6           0       24.577550    3.339912   -1.643379
     38          6           0       24.502329   -0.231733   -2.285734
     39          8           0       23.363799   -0.098399   -2.677202
     40          6           0       25.280824   -1.637521   -2.207205
     41          6           0       24.464933   -2.593397   -1.436176
     42          8           0       24.081083   -2.409971   -0.251223
     43          8           0       24.179864   -3.659625   -2.237870
     44          6           0       23.067030   -4.514916   -1.746854
     45          1           0       31.220354   -3.538870    0.673866
     46          1           0       32.388054    2.701186    2.256588
     47          1           0       26.721387    4.245096   -0.020744
     48          1           0       26.949533   -4.164240   -1.177823
     49          1           0       29.594589   -4.697602   -0.730584
     50          1           0       27.430852   -5.239974    0.815886
     51          1           0       28.141371   -3.819324    1.658576
     52          1           0       29.045632   -5.227528    1.517610
     53          1           0       29.319148   -4.148645   -2.818001
     54          1           0       28.233345   -3.040568   -3.541275
     55          1           0       26.803427   -4.452673   -4.171069
     56          1           0       26.950270   -5.584181   -2.741836
     57          1           0       34.523657   -2.756980    1.172555
     58          1           0       33.066491   -3.504443    1.642296
     59          1           0       34.044599   -2.696700    2.821562
     60          1           0       36.317921    0.534478    3.343568
     61          1           0       35.880985   -0.856117    2.198893
     62          1           0       35.270230   -0.944194    3.715380
     63          1           0       31.267195    4.910483    1.733459
     64          1           0       28.368393    5.288047    1.798719
     65          1           0       30.087251    3.730373    4.101309
     66          1           0       29.277835    5.201874    3.698874
     67          1           0       31.032076    5.191698    3.793023
     68          1           0       29.171168    5.357263   -1.006034
     69          1           0       30.460034    6.177756   -0.078478
     70          1           0       29.210407    7.845232    0.475605
     71          1           0       27.630799    7.011385    0.496853
     72          1           0       28.303294    7.352121   -0.982837
     73          1           0       25.182945    4.241464   -1.546580
     74          1           0       23.655038    3.317063   -1.061445
     75          1           0       24.335453    3.244487   -2.701206
     76          1           0       25.484361   -2.040204   -3.199759
     77          1           0       22.805187   -5.261456   -2.496481
     78          1           0       22.202293   -3.852213   -1.706511
     79          1           0       23.371858   -4.896664   -0.772055
     80         12           0      -29.324995   -0.131137    0.010322
     81          6           0      -25.913772   -0.386443   -0.615603
     82          6           0      -28.738647   -1.484034    3.148721
     83          6           0      -32.420898    0.554051    0.943656
     84          6           0      -29.703574    1.657641   -2.928296
     85          7           0      -27.532384   -0.698228    1.195756
     86          6           0      -26.259627   -0.850226    0.684991
     87          6           0      -25.327710   -1.537699    1.638520
     88          6           0      -26.350591   -2.206939    2.658875
     89          6           0      -27.615374   -1.409041    2.370887
     90          6           0      -26.499865   -3.796467    2.793835
     91          6           0      -24.199576   -0.607200    2.284660
     92          6           0      -24.550877    0.889479    2.535617
     93          1           0      -24.043634    1.434505    3.849106
     94          7           0      -30.411842   -0.313705    1.842523
     95          6           0      -29.982531   -0.921446    3.028930
     96          6           0      -30.983261   -0.836812    4.057043
     97          6           0      -32.092630   -0.211242    3.439755
     98          6           0      -31.693994    0.075566    2.029512
     99          6           0      -30.807219   -1.602659    5.369263
    100          6           0      -33.417522    0.029472    4.198601
    101          8           0      -33.539203   -0.223066    5.401589
    102          6           0      -34.541791    0.524310    3.389720
    103          7           0      -30.767187    1.066266   -0.861307
    104          6           0      -32.063264    0.945280   -0.389050
    105          6           0      -33.108434    1.590993   -1.325204
    106          6           0      -32.116800    2.130437   -2.435990
    107          6           0      -30.789977    1.647856   -2.049123
    108          6           0      -34.213661    0.751445   -1.883838
    109          6           0      -32.091642    3.739608   -2.527451
    110          6           0      -32.177015    4.203063   -3.958326
    111          7           0      -28.125971    0.372291   -1.617916
    112          6           0      -28.425500    1.109382   -2.748616
    113          6           0      -27.218023    1.247527   -3.594624
    114          6           0      -26.188383    0.659102   -2.780744
    115          6           0      -26.803984    0.167568   -1.623709
    116          6           0      -26.987998    2.049038   -4.810978
    117          6           0      -24.743796    0.394703   -2.610372
    118          8           0      -23.816170    0.725524   -3.312123
    119          6           0      -24.520780   -0.319634   -1.238577
    120          6           0      -23.829396   -1.594207   -1.435971
    121          8           0      -22.731507   -1.971466   -1.025690
    122          8           0      -24.525942   -2.283091   -2.463336
    123          6           0      -24.016272   -3.634646   -2.779317
    124          1           0      -28.558012   -2.134865    4.007368
    125          1           0      -33.501763    0.656391    1.059735
    126          1           0      -29.945861    2.166066   -3.863211
    127          1           0      -24.753684   -2.304237    1.118046
    128          1           0      -25.946094   -1.844675    3.604328
    129          1           0      -25.793480   -4.390384    2.214121
    130          1           0      -27.460912   -4.178281    2.449541
    131          1           0      -26.229868   -4.096501    3.806721
    132          1           0      -23.269934   -0.685856    1.721988
    133          1           0      -23.941271   -1.068290    3.237926
    134          1           0      -25.626987    1.049935    2.462993
    135          1           0      -24.095367    1.509109    1.763664
    136          1           0      -31.283407   -1.124114    6.225616
    137          1           0      -29.751557   -1.609555    5.639350
    138          1           0      -31.262720   -2.579297    5.203870
    139          1           0      -34.869338   -0.276200    2.727065
    140          1           0      -34.238183    1.419390    2.845900
    141          1           0      -35.326261    0.753552    4.110881
    142          1           0      -33.463899    2.498749   -0.837076
    143          1           0      -32.396646    1.535489   -3.305349
    144          1           0      -34.680510    1.356567   -2.661173
    145          1           0      -34.968248    0.658587   -1.102741
    146          1           0      -33.829032   -0.211648   -2.221509
    147          1           0      -31.178510    4.060155   -2.026082
    148          1           0      -32.826960    4.282446   -1.932189
    149          1           0      -31.213466    4.636042   -4.225958
    150          1           0      -32.805444    5.087049   -4.071688
    151          1           0      -32.318179    3.345799   -4.616243
    152          1           0      -27.850394    2.601935   -5.186331
    153          1           0      -26.729465    1.335085   -5.592211
    154          1           0      -26.306477    2.803790   -4.419089
    155          1           0      -23.911457    0.378534   -0.665132
    156          1           0      -24.938549   -4.213978   -2.835819
    157          1           0      -23.332552   -4.150231   -2.104871
    158          1           0      -23.707158   -3.567894   -3.822600
 ---------------------------------------------------------------------

 SCF Done:  E(RCAM-B3LYP) =  -4069.83211653     A.U. after   19 cycles

 Excitation energies and oscillator strengths:

 Excited State   1:      Singlet-A      1.7179 eV  721.74 nm  f=0.3722  <S**2>=0.000
     309 -> 315        0.18175
     312 -> 314        0.68357
     309 <- 315        0.10499
 This state for optimization and/or second-order correction.
 Total Energy, E(TD-HF/TD-DFT) =  -4069.76898631
 Copying the excited state density for this state as the 1-particle RhoCI density.

 Excited State   2:      Singlet-A      1.7437 eV  711.03 nm  f=0.3950  <S**2>=0.000
     310 -> 316       -0.17837
     311 -> 313        0.68461
     310 <- 316       -0.10695

 Excited State   3:      Singlet-A      2.2018 eV  563.10 nm  f=0.1595  <S**2>=0.000
     310 -> 313        0.65391
     311 -> 316        0.24975

 Excited State   4:      Singlet-A      2.2043 eV  562.48 nm  f=0.0882  <S**2>=0.000
     309 -> 314        0.62957
     312 -> 315       -0.30510

 Excited State   5:      Singlet-A      3.1629 eV  391.99 nm  f=0.0000  <S**2>=0.000
     312 -> 313        0.70710

 The electronic state is 1-A.
 Alpha  occ. eigenvalues --  -46.89100 -46.87167 -19.25647 -19.24336 -19.20531
 Alpha  occ. eigenvalues --  -19.19874 -19.19501 -19.19023 -19.19020 -19.18815
 Alpha  occ. eigenvalues --  -14.42230 -14.42201 -14.42049 -14.41489 -14.39639
 Alpha  occ. eigenvalues --  -14.39275 -14.39179 -14.38541 -10.39725 -10.39416
 Alpha  occ. eigenvalues --  -10.36329 -10.35112 -10.35102 -10.35024 -10.32165
 Alpha  occ. eigenvalues --  -10.31618 -10.31292 -10.31177 -10.31035 -10.30674
 Alpha  occ. eigenvalues --  -10.30628 -10.30615 -10.30607 -10.30606 -10.30424
 Alpha  occ. eigenvalues --  -10.30188 -10.30074 -10.29906 -10.29348 -10.29084
 Alpha  occ. eigenvalues --  -10.28953 -10.28927 -10.28672 -10.28655 -10.28536
 Alpha  occ. eigenvalues --  -10.28422 -10.28407 -10.28335 -10.28201 -10.28155
 Alpha  occ. eigenvalues --  -10.28122 -10.28070 -10.28048 -10.27887 -10.27850
 Alpha  occ. eigenvalues --  -10.27753 -10.27745 -10.27667 -10.27629 -10.27598
 Alpha  occ. eigenvalues --  -10.27396 -10.27294 -10.27206 -10.27158 -10.27133
 Alpha  occ. eigenvalues --  -10.27122 -10.26963 -10.26936 -10.26899 -10.26724
 Alpha  occ. eigenvalues --  -10.26714 -10.26489 -10.26338 -10.26211 -10.26107
 Alpha  occ. eigenvalues --  -10.26073 -10.26051 -10.26018 -10.25957 -10.25779
 Alpha  occ. eigenvalues --  -10.25748 -10.25698 -10.25381 -10.25323 -10.24642
 Alpha  occ. eigenvalues --  -10.24341  -3.17625  -3.15895  -1.92510  -1.92096
 Alpha  occ. eigenvalues --   -1.91919  -1.90800  -1.90339  -1.90220  -1.15744
 Alpha  occ. eigenvalues --   -1.14811  -1.11695  -1.10355  -1.10310  -1.09368
 Alpha  occ. eigenvalues --   -1.06894  -1.06321  -1.05067  -1.04929  -1.03712
 Alpha  occ. eigenvalues --   -1.03329  -1.03179  -1.02540  -1.02338  -1.01413
 Alpha  occ. eigenvalues --   -0.92567  -0.92458  -0.89651  -0.89217  -0.89195
 Alpha  occ. eigenvalues --   -0.88649  -0.88017  -0.87980  -0.87663  -0.87016
 Alpha  occ. eigenvalues --   -0.86874  -0.86402  -0.86180  -0.85813  -0.84827
 Alpha  occ. eigenvalues --   -0.84451  -0.84300  -0.83817  -0.82894  -0.82717
 Alpha  occ. eigenvalues --   -0.82380  -0.82098  -0.81180  -0.80838  -0.80651
 Alpha  occ. eigenvalues --   -0.80147  -0.78315  -0.78222  -0.77497  -0.77310
 Alpha  occ. eigenvalues --   -0.76842  -0.76763  -0.76211  -0.75744  -0.75722
 Alpha  occ. eigenvalues --   -0.74871  -0.72869  -0.72639  -0.72135  -0.70916
 Alpha  occ. eigenvalues --   -0.69420  -0.69358  -0.68596  -0.68103  -0.68084
 Alpha  occ. eigenvalues --   -0.67578  -0.66823  -0.66532  -0.66409  -0.65502
 Alpha  occ. eigenvalues --   -0.65167  -0.64897  -0.64558  -0.64503  -0.64029
 Alpha  occ. eigenvalues --   -0.63994  -0.62537  -0.61932  -0.60309  -0.60272
 Alpha  occ. eigenvalues --   -0.60105  -0.59373  -0.59237  -0.58937  -0.58281
 Alpha  occ. eigenvalues --   -0.58196  -0.57677  -0.57609  -0.57522  -0.57245
 Alpha  occ. eigenvalues --   -0.56320  -0.56147  -0.55819  -0.55669  -0.55493
 Alpha  occ. eigenvalues --   -0.55344  -0.55094  -0.54980  -0.54604  -0.53885
 Alpha  occ. eigenvalues --   -0.53829  -0.53545  -0.53422  -0.52902  -0.52710
 Alpha  occ. eigenvalues --   -0.52620  -0.52612  -0.52571  -0.52171  -0.51978
 Alpha  occ. eigenvalues --   -0.51874  -0.51810  -0.51611  -0.51544  -0.51105
 Alpha  occ. eigenvalues --   -0.51016  -0.50881  -0.50845  -0.50467  -0.50448
 Alpha  occ. eigenvalues --   -0.50272  -0.50096  -0.49791  -0.49628  -0.49547
 Alpha  occ. eigenvalues --   -0.49439  -0.49398  -0.49266  -0.49096  -0.48817
 Alpha  occ. eigenvalues --   -0.48704  -0.48558  -0.48293  -0.48166  -0.47937
 Alpha  occ. eigenvalues --   -0.47735  -0.47663  -0.47247  -0.47245  -0.46912
 Alpha  occ. eigenvalues --   -0.46774  -0.46633  -0.46497  -0.46445  -0.46268
 Alpha  occ. eigenvalues --   -0.46204  -0.46134  -0.45834  -0.45760  -0.45726
 Alpha  occ. eigenvalues --   -0.45393  -0.45382  -0.45115  -0.45070  -0.44987
 Alpha  occ. eigenvalues --   -0.44971  -0.44732  -0.44686  -0.44662  -0.44641
 Alpha  occ. eigenvalues --   -0.44442  -0.44322  -0.43922  -0.43415  -0.43386
 Alpha  occ. eigenvalues --   -0.43342  -0.43215  -0.43104  -0.42906  -0.42861
 Alpha  occ. eigenvalues --   -0.42744  -0.42601  -0.42474  -0.42267  -0.42127
 Alpha  occ. eigenvalues --   -0.41958  -0.41927  -0.41866  -0.41706  -0.41679
 Alpha  occ. eigenvalues --   -0.41218  -0.41211  -0.40936  -0.40469  -0.40453
 Alpha  occ. eigenvalues --   -0.40060  -0.39988  -0.39141  -0.39099  -0.38828
 Alpha  occ. eigenvalues --   -0.38505  -0.38341  -0.37971  -0.37834  -0.37816
 Alpha  occ. eigenvalues --   -0.37428  -0.36891  -0.36744  -0.36554  -0.36318
 Alpha  occ. eigenvalues --   -0.35976  -0.35649  -0.35149  -0.34793  -0.34232
 Alpha  occ. eigenvalues --   -0.34127  -0.33315  -0.33142  -0.31750  -0.31268
 Alpha  occ. eigenvalues --   -0.31259  -0.31201  -0.30844  -0.30807  -0.29971
 Alpha  occ. eigenvalues --   -0.29953  -0.29651  -0.29549  -0.24091  -0.23956
 Alpha  occ. eigenvalues --   -0.21515  -0.21210
 Alpha virt. eigenvalues --   -0.08998  -0.08661  -0.02242  -0.01255   0.00637
 Alpha virt. eigenvalues --    0.00752   0.01719   0.02532   0.02807   0.03463
 Alpha virt. eigenvalues --    0.04091   0.04522   0.04955   0.05419   0.05956

 Mulliken charges:
               1
     1  Mg   0.836501
     2  C   -0.017261
     3  C   -0.093348
     4  C   -0.052658
     5  C   -0.080139
     6  N   -0.248964
     7  C   -0.021753
     8  C   -0.040964
     9  C   -0.078626
    10  C    0.007129
    11  C    0.066226
    12  C    0.084148
    13  C   -0.064167
    14  H    0.014332
    15  N   -0.438731
    16  C    0.227534
    17  C   -0.127633
    18  C   -0.044684
    19  C    0.133363
    20  C    0.086868
    21  C    0.029703
    22  O   -0.182051
    23  C    0.052832
    24  N   -0.286430
    25  C    0.051515
    26  C   -0.061425
    27  C   -0.034531
    28  C    0.042342
    29  C    0.054088
    30  C    0.073742
    31  C   -0.018460
    32  N   -0.355013
    33  C    0.116760
    34  C   -0.202363
    35  C    0.059009
    36  C    0.084179
    37  C    0.134360
    38  C    0.027030
    39  O   -0.153423
    40  C    0.027157
    41  C    0.210828
    42  O   -0.254021
    43  O   -0.341529
    44  C    0.182437
    45  H   -0.036355
    46  H   -0.006358
    47  H   -0.029022
    48  H    0.004867
    49  H   -0.000636
    50  H    0.022976
    51  H    0.021879
    52  H    0.010879
    53  H    0.006677
    54  H    0.004981
    55  H    0.043015
    56  H    0.032314
    57  H    0.027954
    58  H   -0.000584
    59  H    0.023521
    60  H    0.045112
    61  H    0.025187
    62  H    0.027626
    63  H    0.011514
    64  H    0.015270
    65  H    0.022281
    66  H    0.008772
    67  H    0.015441
    68  H    0.011053
    69  H    0.012766
    70  H    0.016473
    71  H    0.008637
    72  H    0.004075
    73  H    0.011010
    74  H    0.043425
    75  H    0.026501
    76  H    0.026264
    77  H    0.041813
    78  H    0.046565
    79  H    0.050197
    80  Mg   0.819810
    81  C   -0.024917
    82  C   -0.097600
    83  C   -0.086985
    84  C   -0.094168
    85  N   -0.283873
    86  C   -0.030080
    87  C   -0.040829
    88  C    0.001988
    89  C    0.000861
    90  C    0.064176
    91  C    0.029219
    92  C   -0.076371
    93  H    0.023202
    94  N   -0.359616
    95  C    0.167011
    96  C   -0.136607
    97  C   -0.064253
    98  C    0.184913
    99  C    0.126751
   100  C    0.000323
   101  O   -0.204526
   102  C    0.054785
   103  N   -0.295295
   104  C   -0.001586
   105  C   -0.034008
   106  C   -0.063447
   107  C    0.012377
   108  C    0.107192
   109  C    0.036510
   110  C    0.030425
   111  N   -0.342670
   112  C    0.151469
   113  C   -0.189596
   114  C   -0.004828
   115  C    0.088688
   116  C    0.130650
   117  C    0.030281
   118  O   -0.149159
   119  C    0.028499
   120  C    0.222592
   121  O   -0.208317
   122  O   -0.379732
   123  C    0.180158
   124  H   -0.029643
   125  H   -0.042320
   126  H   -0.043969
   127  H    0.010508
   128  H    0.006342
   129  H    0.011235
   130  H    0.026790
   131  H    0.022144
   132  H    0.028670
   133  H    0.010452
   134  H    0.047600
   135  H    0.030619
   136  H    0.035822
   137  H    0.016226
   138  H    0.041128
   139  H    0.048731
   140  H    0.044990
   141  H    0.024312
   142  H    0.004673
   143  H    0.008068
   144  H    0.019788
   145  H    0.014479
   146  H    0.025110
   147  H    0.015652
   148  H    0.007058
   149  H    0.005827
   150  H    0.014910
   151  H    0.023373
   152  H   -0.003577
   153  H    0.043722
   154  H    0.053201
   155  H    0.038617
   156  H    0.018944
   157  H    0.058648
   158  H    0.038452
 Sum of Mulliken charges =  -0.00000

 Dipole moment (field-independent basis, Debye):
    X=             -1.5365    Y=             -3.8583    Z=             -2.0042  Tot=              4.6113
 Quadrupole moment (field-independent basis, Debye-Ang):
   XX=            -63.0202   YY=           -456.0898   ZZ=           -532.7734
   XY=            -53.1976   XZ=             98.1251   YZ=             -6.0482

 Normal termination of Gaussian 16 at Tue Sep 14 21:25:29 2021.
