 Gaussian 16, Revision A.03,
 Gaussian 16:  ES64L-G16RevA.03 25-Dec-2016

 -----------------------------------
 #p cam-b3lyp/Def2SVP td=(nstates=5)
 -----------------------------------

 --------------------------------
 TDDFT excited states in gaussian
 --------------------------------
 Symbolic Z-matrix:
 Charge =  0 Multiplicity = 1

                         Standard orientation:
 ---------------------------------------------------------------------
 Center     Atomic      Atomic             Coordinates (Angstroms)
 Number     Number       Type             X           Y           Z
 ---------------------------------------------------------------------
      1         12           0       24.930714    0.628816   -0.421416
      2          6           0       26.014619   -1.925779    1.674440
      3          6           0       23.376447   -1.707723   -2.388065
      4          6           0       24.173653    3.134810   -2.603407
      5          6           0       26.826600    2.833090    1.623119
      6          7           0       24.749182   -1.556141   -0.384516
      7          6           0       25.180297   -2.350763    0.644802
      8          6           0       24.688174   -3.766561    0.334442
      9          6           0       24.133970   -3.710353   -1.077993
     10          6           0       24.047479   -2.202498   -1.285031
     11          6           0       24.845600   -4.430057   -2.192036
     12          6           0       23.690531   -4.403065    1.415098
     13          6           0       23.011454   -5.749695    1.006329
     14          1           0       23.710308   -7.079813    1.391625
     15          7           0       23.792341    0.698129   -2.155235
     16          6           0       23.266865   -0.359765   -2.821779
     17          6           0       22.651053    0.167457   -4.011686
     18          6           0       22.893379    1.571511   -4.067552
     19          6           0       23.661618    1.866206   -2.942691
     20          6           0       21.923267   -0.740484   -4.954421
     21          6           0       22.522244    2.525375   -5.240183
     22          8           0       23.053381    3.613135   -5.375242
     23          6           0       21.620328    2.159339   -6.320201
     24          7           0       25.408207    2.565866   -0.455612
     25          6           0       24.954136    3.454823   -1.429423
     26          6           0       25.406287    4.901277   -1.163822
     27          6           0       25.976782    4.790861    0.291015
     28          6           0       26.029973    3.288586    0.515081
     29          6           0       26.194008    5.552956   -2.223877
     30          6           0       25.249745    5.606355    1.497875
     31          6           0       26.024987    6.643458    2.315962
     32          7           0       26.259647    0.505877    1.322390
     33          6           0       26.938720    1.486914    1.988918
     34          6           0       27.667906    0.952771    3.089441
     35          6           0       27.270779   -0.438671    3.064124
     36          6           0       26.478320   -0.656881    1.902419
     37          6           0       28.488900    1.762110    4.019497
     38          6           0       27.356756   -1.678767    3.800589
     39          8           0       27.851224   -1.998322    4.863837
     40          6           0       26.510615   -2.729170    2.867583
     41          6           0       27.289963   -3.963274    2.592983
     42          8           0       28.295451   -3.987606    1.917608
     43          8           0       26.748187   -5.052784    3.165075
     44          6           0       27.300011   -6.399354    2.749871
     45          1           0       22.834346   -2.441085   -2.989157
     46          1           0       23.923141    3.917598   -3.322153
     47          1           0       27.318571    3.664187    2.133080
     48          1           0       25.635554   -4.304065    0.372776
     49          1           0       23.144298   -4.166165   -1.094213
     50          1           0       25.274733   -3.570018   -2.705199
     51          1           0       24.174261   -5.045014   -2.791570
     52          1           0       25.702267   -5.003108   -1.836652
     53          1           0       22.940797   -3.616917    1.506866
     54          1           0       24.214771   -4.553362    2.358123
     55          1           0       22.897811   -5.831330   -0.073926
     56          1           0       22.006894   -5.757249    1.429276
     57          1           0       21.800675   -1.786854   -4.673076
     58          1           0       22.534960   -0.774892   -5.855339
     59          1           0       20.959167   -0.343058   -5.272312
     60          1           0       21.744358    1.207847   -6.836268
     61          1           0       21.493673    2.910081   -7.100121
     62          1           0       20.652947    2.179323   -5.818766
     63          1           0       24.414321    5.351338   -1.115930
     64          1           0       27.003952    5.095348    0.090884
     65          1           0       25.745731    6.418372   -2.712683
     66          1           0       26.394839    4.802423   -2.988830
     67          1           0       27.150206    5.952321   -1.886039
     68          1           0       24.883176    4.869110    2.211902
     69          1           0       24.347341    6.167595    1.252479
     70          1           0       26.328020    6.311625    3.309359
     71          1           0       25.580193    7.638004    2.334248
     72          1           0       26.995492    6.772212    1.836554
     73          1           0       29.097458    2.449870    3.432824
     74          1           0       29.086333    1.150153    4.694748
     75          1           0       27.819175    2.472052    4.505898
     76          1           0       25.658393   -3.030425    3.475873
     77          1           0       26.985941   -7.035502    3.577076
     78          1           0       28.383322   -6.319460    2.661842
     79          1           0       26.777521   -6.681128    1.835582
     80         12           0      -24.781715    0.717485    0.442023
     81          6           0      -25.329942   -2.008141   -1.817453
     82          6           0      -24.433648   -1.732717    2.955771
     83          6           0      -24.973864    3.043278    2.735042
     84          6           0      -25.507620    2.888392   -2.072473
     85          7           0      -24.826931   -1.594886    0.507725
     86          6           0      -24.960002   -2.402287   -0.571947
     87          6           0      -24.701112   -3.836308   -0.140211
     88          6           0      -24.377211   -3.829053    1.380380
     89          6           0      -24.515557   -2.317394    1.644819
     90          6           0      -25.361094   -4.784351    2.264361
     91          6           0      -23.506411   -4.512926   -0.939401
     92          6           0      -23.766240   -5.909253   -1.505709
     93          1           0      -24.705694   -6.933121   -0.750749
     94          7           0      -24.765121    0.654631    2.578727
     95          6           0      -24.591593   -0.394280    3.354638
     96          6           0      -24.626772    0.067403    4.713704
     97          6           0      -24.633594    1.485057    4.742484
     98          6           0      -24.830488    1.776148    3.346550
     99          6           0      -24.352660   -0.849702    5.904478
    100          6           0      -24.409187    2.527592    5.826527
    101          8           0      -24.531777    3.723026    5.631779
    102          6           0      -23.959561    2.005095    7.163230
    103          7           0      -25.534281    2.621310    0.364700
    104          6           0      -25.305065    3.470522    1.448857
    105          6           0      -25.393312    4.974784    1.073477
    106          6           0      -25.399965    4.840955   -0.496046
    107          6           0      -25.483160    3.340137   -0.774165
    108          6           0      -26.637458    5.622659    1.698231
    109          6           0      -24.061397    5.380595   -1.190526
    110          6           0      -24.111948    6.683004   -1.916597
    111          7           0      -25.190626    0.532539   -1.525695
    112          6           0      -25.500532    1.527383   -2.427685
    113          6           0      -25.890797    1.005453   -3.734795
    114          6           0      -25.834600   -0.422082   -3.549957
    115          6           0      -25.533725   -0.644441   -2.185438
    116          6           0      -26.055809    1.840310   -4.952876
    117          6           0      -25.917279   -1.712795   -4.216113
    118          8           0      -26.141520   -1.922249   -5.422210
    119          6           0      -25.613944   -2.846350   -3.080136
    120          6           0      -26.832656   -3.636822   -3.009125
    121          8           0      -27.926192   -3.168799   -2.778736
    122          8           0      -26.587798   -4.935916   -3.217373
    123          6           0      -27.679609   -5.958792   -3.255146
    124          1           0      -24.244620   -2.446936    3.759787
    125          1           0      -24.640969    3.891825    3.337461
    126          1           0      -25.650502    3.625040   -2.865473
    127          1           0      -25.629511   -4.386902   -0.292019
    128          1           0      -23.398318   -4.260050    1.591089
    129          1           0      -25.808608   -5.560618    1.643607
    130          1           0      -26.103384   -4.104760    2.683806
    131          1           0      -24.798130   -5.233531    3.082373
    132          1           0      -22.555508   -4.545483   -0.409351
    133          1           0      -23.281592   -3.912597   -1.820886
    134          1           0      -22.836134   -6.447029   -1.690764
    135          1           0      -24.158932   -5.693015   -2.499262
    136          1           0      -23.323529   -0.820726    6.262844
    137          1           0      -24.709850   -1.863630    5.721786
    138          1           0      -25.001938   -0.500376    6.706973
    139          1           0      -23.220701    1.204090    7.124660
    140          1           0      -24.759091    1.627189    7.798910
    141          1           0      -23.351408    2.766446    7.651763
    142          1           0      -24.497223    5.457625    1.462381
    143          1           0      -26.254850    5.401566   -0.874410
    144          1           0      -27.147813    5.002953    2.435396
    145          1           0      -27.395016    5.844664    0.947439
    146          1           0      -26.353033    6.565291    2.166976
    147          1           0      -23.629975    4.711001   -1.934561
    148          1           0      -23.226589    5.448950   -0.493986
    149          1           0      -23.464071    7.410779   -1.429698
    150          1           0      -25.161205    6.967040   -1.833958
    151          1           0      -23.777784    6.559147   -2.946647
    152          1           0      -25.730429    1.308056   -5.846062
    153          1           0      -25.551458    2.783862   -4.745268
    154          1           0      -27.123369    2.043811   -5.047077
    155          1           0      -24.785561   -3.493196   -3.365899
    156          1           0      -28.466446   -5.622255   -3.930479
    157          1           0      -28.130467   -6.127545   -2.276905
    158          1           0      -27.329725   -6.965005   -3.484178
 ---------------------------------------------------------------------

 SCF Done:  E(RCAM-B3LYP) =  -4069.80869431     A.U. after   17 cycles

 Excitation energies and oscillator strengths:

 Excited State   1:      Singlet-A      1.6834 eV  736.49 nm  f=0.3924  <S**2>=0.000
     310 -> 316        0.17292
     312 -> 314        0.68694
     310 <- 316        0.10714
 This state for optimization and/or second-order correction.
 Total Energy, E(TD-HF/TD-DFT) =  -4069.74682872
 Copying the excited state density for this state as the 1-particle RhoCI density.

 Excited State   2:      Singlet-A      1.6981 eV  730.13 nm  f=0.4094  <S**2>=0.000
     309 -> 315       -0.17920
     311 -> 313        0.68571
     309 <- 315       -0.10834

 Excited State   3:      Singlet-A      2.1994 eV  563.73 nm  f=0.1316  <S**2>=0.000
     310 -> 314        0.65028
     312 -> 316       -0.26296

 Excited State   4:      Singlet-A      2.2224 eV  557.87 nm  f=0.0949  <S**2>=0.000
     309 -> 313        0.63226
     311 -> 315        0.30142

 Excited State   5:      Singlet-A      3.1268 eV  396.52 nm  f=0.0000  <S**2>=0.000
     312 -> 313        0.70711

 The electronic state is 1-A.
 Alpha  occ. eigenvalues --  -46.88644 -46.87894 -19.25286 -19.24435 -19.19553
 Alpha  occ. eigenvalues --  -19.19097 -19.19036 -19.18677 -19.18541 -19.18274
 Alpha  occ. eigenvalues --  -14.42730 -14.42059 -14.41903 -14.41737 -14.39398
 Alpha  occ. eigenvalues --  -14.39112 -14.39065 -14.38455 -10.38525 -10.37982
 Alpha  occ. eigenvalues --  -10.35811 -10.35601 -10.35484 -10.34664 -10.32563
 Alpha  occ. eigenvalues --  -10.32123 -10.31615 -10.31356 -10.31144 -10.31131
 Alpha  occ. eigenvalues --  -10.30768 -10.30543 -10.30459 -10.30293 -10.29822
 Alpha  occ. eigenvalues --  -10.29714 -10.29674 -10.29627 -10.29608 -10.29203
 Alpha  occ. eigenvalues --  -10.29050 -10.29010 -10.28773 -10.28589 -10.28313
 Alpha  occ. eigenvalues --  -10.28232 -10.28205 -10.28155 -10.28127 -10.28089
 Alpha  occ. eigenvalues --  -10.28043 -10.27959 -10.27821 -10.27751 -10.27641
 Alpha  occ. eigenvalues --  -10.27550 -10.27548 -10.27541 -10.27278 -10.27231
 Alpha  occ. eigenvalues --  -10.27156 -10.27111 -10.27074 -10.27049 -10.27032
 Alpha  occ. eigenvalues --  -10.26969 -10.26959 -10.26880 -10.26874 -10.26684
 Alpha  occ. eigenvalues --  -10.26596 -10.26451 -10.26268 -10.26250 -10.26172
 Alpha  occ. eigenvalues --  -10.26091 -10.26082 -10.25832 -10.25765 -10.25606
 Alpha  occ. eigenvalues --  -10.25601 -10.25592 -10.25507 -10.25486 -10.25257
 Alpha  occ. eigenvalues --  -10.25046  -3.17273  -3.16554  -1.92139  -1.91734
 Alpha  occ. eigenvalues --   -1.91583  -1.91469  -1.91011  -1.90856  -1.16584
 Alpha  occ. eigenvalues --   -1.15862  -1.11000  -1.10869  -1.09506  -1.08462
 Alpha  occ. eigenvalues --   -1.07392  -1.06748  -1.05258  -1.04674  -1.04127
 Alpha  occ. eigenvalues --   -1.03534  -1.03333  -1.03169  -1.02369  -1.01909
 Alpha  occ. eigenvalues --   -0.92450  -0.92187  -0.89232  -0.88726  -0.88660
 Alpha  occ. eigenvalues --   -0.88350  -0.88289  -0.88122  -0.87588  -0.87133
 Alpha  occ. eigenvalues --   -0.87046  -0.86991  -0.86720  -0.86431  -0.84659
 Alpha  occ. eigenvalues --   -0.84252  -0.84149  -0.83723  -0.82689  -0.82659
 Alpha  occ. eigenvalues --   -0.82489  -0.81858  -0.81428  -0.81311  -0.80759
 Alpha  occ. eigenvalues --   -0.80722  -0.78811  -0.78290  -0.77812  -0.77699
 Alpha  occ. eigenvalues --   -0.77300  -0.76891  -0.76303  -0.75910  -0.75166
 Alpha  occ. eigenvalues --   -0.74867  -0.72796  -0.72510  -0.71833  -0.71440
 Alpha  occ. eigenvalues --   -0.69406  -0.68963  -0.68776  -0.68244  -0.67825
 Alpha  occ. eigenvalues --   -0.67675  -0.67000  -0.66935  -0.65582  -0.65565
 Alpha  occ. eigenvalues --   -0.65441  -0.65187  -0.64696  -0.64648  -0.64525
 Alpha  occ. eigenvalues --   -0.64221  -0.62448  -0.61441  -0.60547  -0.60527
 Alpha  occ. eigenvalues --   -0.59771  -0.59255  -0.58971  -0.58846  -0.58842
 Alpha  occ. eigenvalues --   -0.58515  -0.58068  -0.57975  -0.57497  -0.57317
 Alpha  occ. eigenvalues --   -0.56379  -0.56108  -0.55782  -0.55771  -0.55426
 Alpha  occ. eigenvalues --   -0.55188  -0.54800  -0.54591  -0.54391  -0.53822
 Alpha  occ. eigenvalues --   -0.53526  -0.53342  -0.53174  -0.53015  -0.52984
 Alpha  occ. eigenvalues --   -0.52941  -0.52645  -0.52609  -0.52387  -0.52362
 Alpha  occ. eigenvalues --   -0.52119  -0.52093  -0.51331  -0.51312  -0.51216
 Alpha  occ. eigenvalues --   -0.51008  -0.50859  -0.50613  -0.50552  -0.50510
 Alpha  occ. eigenvalues --   -0.50319  -0.50097  -0.49998  -0.49948  -0.49455
 Alpha  occ. eigenvalues --   -0.49363  -0.49288  -0.49155  -0.49053  -0.49009
 Alpha  occ. eigenvalues --   -0.48780  -0.48641  -0.48592  -0.48423  -0.48246
 Alpha  occ. eigenvalues --   -0.48169  -0.47743  -0.47737  -0.47465  -0.47455
 Alpha  occ. eigenvalues --   -0.47120  -0.46854  -0.46769  -0.46628  -0.46607
 Alpha  occ. eigenvalues --   -0.46555  -0.46268  -0.46218  -0.46143  -0.46082
 Alpha  occ. eigenvalues --   -0.45915  -0.45330  -0.45168  -0.45129  -0.45125
 Alpha  occ. eigenvalues --   -0.44816  -0.44535  -0.44423  -0.44261  -0.44257
 Alpha  occ. eigenvalues --   -0.44027  -0.43848  -0.43699  -0.43618  -0.43388
 Alpha  occ. eigenvalues --   -0.43323  -0.43043  -0.42826  -0.42783  -0.42720
 Alpha  occ. eigenvalues --   -0.42634  -0.42497  -0.41974  -0.41868  -0.41842
 Alpha  occ. eigenvalues --   -0.41541  -0.41525  -0.41439  -0.41314  -0.41300
 Alpha  occ. eigenvalues --   -0.41035  -0.40980  -0.40576  -0.40396  -0.40317
 Alpha  occ. eigenvalues --   -0.40214  -0.39745  -0.39522  -0.39350  -0.39293
 Alpha  occ. eigenvalues --   -0.38805  -0.38418  -0.37946  -0.37790  -0.37277
 Alpha  occ. eigenvalues --   -0.36998  -0.36902  -0.36576  -0.36306  -0.36247
 Alpha  occ. eigenvalues --   -0.36174  -0.36069  -0.34479  -0.34084  -0.34000
 Alpha  occ. eigenvalues --   -0.33786  -0.33035  -0.33000  -0.31719  -0.31324
 Alpha  occ. eigenvalues --   -0.31263  -0.30984  -0.30765  -0.30224  -0.30111
 Alpha  occ. eigenvalues --   -0.29735  -0.29418  -0.29064  -0.24221  -0.23857
 Alpha  occ. eigenvalues --   -0.21144  -0.20986
 Alpha virt. eigenvalues --   -0.08813  -0.08743  -0.01891  -0.01142   0.00091
 Alpha virt. eigenvalues --    0.00600   0.01755   0.02052   0.02715   0.03360
 Alpha virt. eigenvalues --    0.04682   0.04741   0.05227   0.05497   0.06012

 Mulliken charges:
               1
     1  Mg   0.828802
     2  C    0.048428
     3  C   -0.079087
     4  C   -0.067480
     5  C   -0.103348
     6  N   -0.255725
     7  C   -0.052007
     8  C   -0.000591
     9  C   -0.103500
    10  C    0.035619
    11  C    0.099462
    12  C    0.042553
    13  C   -0.062446
    14  H    0.013883
    15  N   -0.403937
    16  C    0.147241
    17  C   -0.142801
    18  C   -0.017875
    19  C    0.106306
    20  C    0.100439
    21  C    0.025237
    22  O   -0.202174
    23  C    0.059498
    24  N   -0.343329
    25  C    0.041652
    26  C   -0.041072
    27  C   -0.002503
    28  C    0.022952
    29  C    0.094406
    30  C    0.043921
    31  C   -0.014175
    32  N   -0.286883
    33  C    0.152996
    34  C   -0.160736
    35  C   -0.026706
    36  C    0.074280
    37  C    0.149295
    38  C    0.065572
    39  O   -0.154836
    40  C   -0.074532
    41  C    0.174483
    42  O   -0.224069
    43  O   -0.340822
    44  C    0.172984
    45  H   -0.041522
    46  H    0.001680
    47  H   -0.024242
    48  H    0.009398
    49  H   -0.002373
    50  H    0.017519
    51  H    0.021529
    52  H    0.015329
    53  H    0.009110
    54  H    0.039091
    55  H    0.023335
    56  H    0.035791
    57  H    0.015655
    58  H    0.027317
    59  H    0.025087
    60  H    0.036040
    61  H    0.023057
    62  H    0.027268
    63  H    0.010695
    64  H    0.008029
    65  H    0.017744
    66  H    0.025457
    67  H    0.006159
    68  H    0.012064
    69  H    0.010587
    70  H    0.018373
    71  H    0.023292
    72  H   -0.001745
    73  H    0.012740
    74  H    0.047939
    75  H    0.021402
    76  H    0.037223
    77  H    0.044529
    78  H    0.065053
    79  H    0.042018
    80  Mg   0.829329
    81  C   -0.027437
    82  C   -0.081376
    83  C   -0.048346
    84  C   -0.098011
    85  N   -0.248715
    86  C   -0.030236
    87  C    0.007215
    88  C   -0.059265
    89  C    0.026557
    90  C    0.039530
    91  C    0.031816
    92  C   -0.059024
    93  H    0.004062
    94  N   -0.302847
    95  C    0.146142
    96  C   -0.168997
    97  C   -0.020033
    98  C    0.093313
    99  C    0.099920
   100  C    0.033796
   101  O   -0.186975
   102  C    0.024094
   103  N   -0.332270
   104  C   -0.001082
   105  C   -0.024817
   106  C   -0.002645
   107  C    0.080362
   108  C    0.078528
   109  C   -0.015183
   110  C    0.023916
   111  N   -0.395355
   112  C    0.148605
   113  C   -0.178793
   114  C    0.024799
   115  C    0.119077
   116  C    0.137495
   117  C    0.044576
   118  O   -0.191613
   119  C    0.008853
   120  C    0.183309
   121  O   -0.215295
   122  O   -0.324729
   123  C    0.186184
   124  H   -0.034540
   125  H   -0.001834
   126  H   -0.023795
   127  H    0.020293
   128  H    0.020890
   129  H    0.027658
   130  H    0.024005
   131  H    0.016035
   132  H    0.005660
   133  H    0.004810
   134  H    0.020151
   135  H    0.033004
   136  H    0.044402
   137  H    0.015531
   138  H    0.008546
   139  H    0.015399
   140  H    0.052158
   141  H    0.023556
   142  H    0.017641
   143  H    0.012720
   144  H    0.031345
   145  H    0.004866
   146  H    0.019362
   147  H    0.006151
   148  H   -0.004182
   149  H    0.014267
   150  H    0.005134
   151  H    0.017076
   152  H    0.042118
   153  H    0.016886
   154  H    0.031374
   155  H    0.029667
   156  H    0.052792
   157  H    0.029870
   158  H    0.042549
 Sum of Mulliken charges =  -0.00000

 Dipole moment (field-independent basis, Debye):
    X=             -0.9949    Y=             -1.1645    Z=              0.2273  Tot=              1.5484
 Quadrupole moment (field-independent basis, Debye-Ang):
   XX=           -922.9877   YY=           -454.4961   ZZ=           -538.8491
   XY=             57.4720   XZ=           -149.3925   YZ=              0.4484

 Normal termination of Gaussian 16 at Thu Sep 16 00:12:24 2021.
