 Gaussian 16, Revision A.03,
 Gaussian 16:  ES64L-G16RevA.03 25-Dec-2016

 -----------------------------------
 #p cam-b3lyp/Def2SVP td=(nstates=5)
 -----------------------------------

 --------------------------------
 TDDFT excited states in gaussian
 --------------------------------
 Symbolic Z-matrix:
 Charge =  0 Multiplicity = 1

                         Standard orientation:
 ---------------------------------------------------------------------
 Center     Atomic      Atomic             Coordinates (Angstroms)
 Number     Number       Type             X           Y           Z
 ---------------------------------------------------------------------
      1         12           0       25.571289    0.693987   -0.251113
      2          6           0       26.474940   -2.056726    1.550730
      3          6           0       23.620772   -1.407811   -2.322790
      4          6           0       24.843982    3.328817   -2.185520
      5          6           0       27.445315    2.644113    1.866388
      6          7           0       25.344116   -1.492625   -0.577758
      7          6           0       25.738466   -2.422993    0.392276
      8          6           0       25.275000   -3.864367    0.037882
      9          6           0       24.442535   -3.545276   -1.232307
     10          6           0       24.510633   -2.044882   -1.452556
     11          6           0       24.686008   -4.313295   -2.600841
     12          6           0       24.432971   -4.639175    1.144774
     13          6           0       23.997987   -6.048857    0.662004
     14          1           0       24.755879   -7.184014    1.351833
     15          7           0       24.324623    0.929660   -2.024658
     16          6           0       23.456244   -0.012541   -2.532502
     17          6           0       22.825359    0.614315   -3.688113
     18          6           0       23.197909    1.996234   -3.640674
     19          6           0       24.141036    2.162380   -2.579935
     20          6           0       21.925322   -0.156257   -4.575113
     21          6           0       22.738791    3.044056   -4.713924
     22          8           0       23.219022    4.191759   -4.809235
     23          6           0       21.717108    2.658897   -5.751858
     24          7           0       26.066519    2.584780   -0.194146
     25          6           0       25.649919    3.563516   -1.139821
     26          6           0       26.437815    4.843516   -0.976395
     27          6           0       26.825598    4.725988    0.496358
     28          6           0       26.738679    3.236094    0.795318
     29          6           0       27.677653    4.924601   -1.929011
     30          6           0       25.840207    5.457905    1.434753
     31          6           0       26.049465    6.926467    1.689746
     32          7           0       26.798826    0.452426    1.387582
     33          6           0       27.370712    1.317185    2.240950
     34          6           0       28.057132    0.588896    3.266749
     35          6           0       27.731009   -0.735800    3.067629
     36          6           0       26.917720   -0.772012    1.924303
     37          6           0       28.839462    1.261300    4.340421
     38          6           0       27.914661   -2.022397    3.589631
     39          8           0       28.507638   -2.419226    4.574154
     40          6           0       27.082754   -2.969120    2.603128
     41          6           0       28.013964   -3.995672    2.062512
     42          8           0       28.940463   -3.816216    1.310065
     43          8           0       27.620475   -5.228768    2.394957
     44          6           0       28.458990   -6.369045    1.858374
     45          1           0       22.924659   -2.089847   -2.815152
     46          1           0       24.610372    4.198432   -2.803036
     47          1           0       27.953921    3.206566    2.651698
     48          1           0       26.152815   -4.452041   -0.230971
     49          1           0       23.385931   -3.718003   -1.025541
     50          1           0       23.799671   -4.528997   -3.198075
     51          1           0       25.355703   -5.157537   -2.435973
     52          1           0       25.215275   -3.587646   -3.218280
     53          1           0       23.617733   -3.951341    1.365834
     54          1           0       25.047631   -4.725617    2.040683
     55          1           0       24.025977   -6.093908   -0.426707
     56          1           0       22.957598   -6.169272    0.962554
     57          1           0       22.421035   -0.266529   -5.539776
     58          1           0       20.964682    0.357631   -4.540255
     59          1           0       21.719084   -1.141198   -4.155987
     60          1           0       21.474887    3.522263   -6.371565
     61          1           0       20.814357    2.469396   -5.169520
     62          1           0       21.945014    1.794489   -6.374973
     63          1           0       25.817066    5.716927   -1.178119
     64          1           0       27.837228    5.072342    0.706893
     65          1           0       28.476604    4.266165   -1.590296
     66          1           0       28.033889    5.952671   -1.999543
     67          1           0       27.308215    4.618540   -2.907136
     68          1           0       25.740000    4.973809    2.405372
     69          1           0       24.823300    5.329390    1.063699
     70          1           0       25.144730    7.431719    1.352904
     71          1           0       26.810481    7.195214    0.956964
     72          1           0       26.361013    7.170962    2.705386
     73          1           0       28.235751    1.363848    5.241313
     74          1           0       29.373444    2.180033    4.095804
     75          1           0       29.626717    0.553208    4.599723
     76          1           0       26.292052   -3.450628    3.178947
     77          1           0       28.566235   -6.206462    0.785690
     78          1           0       27.986119   -7.344130    1.978332
     79          1           0       29.425326   -6.335273    2.362000
     80         12           0      -25.426732    0.463791    0.527958
     81          6           0      -25.848330   -1.847629   -1.965063
     82          6           0      -24.949603   -1.995257    2.747146
     83          6           0      -25.279846    2.847215    2.907216
     84          6           0      -26.465271    3.040735   -1.817265
     85          7           0      -25.677542   -1.735393    0.415858
     86          6           0      -25.732243   -2.468344   -0.702780
     87          6           0      -25.618724   -4.041523   -0.359391
     88          6           0      -25.320554   -3.959646    1.184427
     89          6           0      -25.349752   -2.455910    1.524599
     90          6           0      -26.237549   -4.854421    2.040843
     91          6           0      -24.516760   -4.782770   -1.168428
     92          6           0      -24.065078   -6.198361   -0.681603
     93          1           0      -24.600502   -7.450444   -1.474635
     94          7           0      -25.197628    0.422844    2.577543
     95          6           0      -24.916321   -0.648651    3.289396
     96          6           0      -24.706003   -0.245817    4.671668
     97          6           0      -24.900040    1.162180    4.802681
     98          6           0      -25.134672    1.540507    3.391802
     99          6           0      -24.489236   -1.189968    5.842668
    100          6           0      -24.918399    2.054410    6.039478
    101          8           0      -25.387166    3.188143    5.995484
    102          6           0      -24.358891    1.523824    7.312884
    103          7           0      -25.865913    2.638943    0.541442
    104          6           0      -25.678458    3.374868    1.630521
    105          6           0      -25.804184    4.879614    1.339942
    106          6           0      -25.962656    4.865077   -0.178209
    107          6           0      -26.141157    3.425650   -0.487921
    108          6           0      -26.887491    5.670802    2.087956
    109          6           0      -24.919610    5.667094   -0.914536
    110          6           0      -25.443241    6.900660   -1.733166
    111          7           0      -25.971066    0.614187   -1.436890
    112          6           0      -26.288000    1.718710   -2.296871
    113          6           0      -26.443189    1.285480   -3.668105
    114          6           0      -26.251166   -0.117265   -3.528702
    115          6           0      -25.988413   -0.449771   -2.193794
    116          6           0      -26.585095    2.050648   -4.936445
    117          6           0      -26.060630   -1.271624   -4.370170
    118          8           0      -25.939216   -1.440592   -5.592693
    119          6           0      -25.922467   -2.466663   -3.460417
    120          6           0      -27.218136   -3.302370   -3.553815
    121          8           0      -28.386962   -2.887238   -3.576985
    122          8           0      -26.856815   -4.616098   -3.599749
    123          6           0      -27.947036   -5.634122   -3.730104
    124          1           0      -24.658536   -2.688749    3.538870
    125          1           0      -25.448415    3.648163    3.630077
    126          1           0      -26.635648    3.882654   -2.490670
    127          1           0      -26.621728   -4.420218   -0.552675
    128          1           0      -24.286461   -4.270141    1.333746
    129          1           0      -25.603588   -5.334263    2.785667
    130          1           0      -26.690194   -5.654246    1.454660
    131          1           0      -27.017997   -4.264738    2.521907
    132          1           0      -23.610896   -4.197071   -1.012086
    133          1           0      -24.830348   -4.897383   -2.205972
    134          1           0      -24.503144   -6.345125    0.306180
    135          1           0      -22.977445   -6.248835   -0.719302
    136          1           0      -24.473399   -2.230112    5.517244
    137          1           0      -25.295576   -1.066506    6.565221
    138          1           0      -23.555376   -0.982791    6.363700
    139          1           0      -23.383581    1.115928    7.045903
    140          1           0      -24.852011    0.751452    7.902334
    141          1           0      -24.228922    2.295522    8.070860
    142          1           0      -24.853346    5.344142    1.598895
    143          1           0      -26.907476    5.357948   -0.406636
    144          1           0      -26.406768    6.621668    2.316537
    145          1           0      -27.244392    5.110913    2.952268
    146          1           0      -27.818291    5.793345    1.534243
    147          1           0      -24.547068    4.971863   -1.666172
    148          1           0      -24.127131    6.048905   -0.271522
    149          1           0      -26.528661    6.966742   -1.653749
    150          1           0      -25.190841    6.723204   -2.779038
    151          1           0      -24.963823    7.852455   -1.503929
    152          1           0      -26.422268    3.112553   -4.754098
    153          1           0      -27.639269    1.970949   -5.199382
    154          1           0      -25.842779    1.615547   -5.607148
    155          1           0      -25.061150   -3.004298   -3.857331
    156          1           0      -28.796598   -5.492298   -3.061651
    157          1           0      -27.610491   -6.667010   -3.647100
    158          1           0      -28.361517   -5.484576   -4.726924
 ---------------------------------------------------------------------

 SCF Done:  E(RCAM-B3LYP) =  -4069.83587413     A.U. after   19 cycles

 Excitation energies and oscillator strengths:

 Excited State   1:      Singlet-A      1.6534 eV  749.86 nm  f=0.3886  <S**2>=0.000
     309 -> 316        0.16013
     311 -> 313        0.69079
     309 <- 316        0.10388
 This state for optimization and/or second-order correction.
 Total Energy, E(TD-HF/TD-DFT) =  -4069.77511186
 Copying the excited state density for this state as the 1-particle RhoCI density.

 Excited State   2:      Singlet-A      1.7216 eV  720.19 nm  f=0.4044  <S**2>=0.000
     310 -> 315        0.17580
     312 -> 314        0.68384
     310 <- 315        0.10320

 Excited State   3:      Singlet-A      2.2510 eV  550.79 nm  f=0.1073  <S**2>=0.000
     309 -> 313        0.63838
     311 -> 316       -0.28835

 Excited State   4:      Singlet-A      2.2690 eV  546.42 nm  f=0.1133  <S**2>=0.000
     310 -> 314        0.63909
     312 -> 315       -0.28652

 Excited State   5:      Singlet-A      3.0897 eV  401.28 nm  f=0.0000  <S**2>=0.000
     312 -> 313        0.70711

 The electronic state is 1-A.
 Alpha  occ. eigenvalues --  -46.89200 -46.87530 -19.25636 -19.24943 -19.19550
 Alpha  occ. eigenvalues --  -19.19464 -19.19403 -19.18766 -19.18580 -19.17688
 Alpha  occ. eigenvalues --  -14.42748 -14.42080 -14.41768 -14.41743 -14.40100
 Alpha  occ. eigenvalues --  -14.39290 -14.38893 -14.38878 -10.39566 -10.38555
 Alpha  occ. eigenvalues --  -10.36109 -10.35241 -10.34968 -10.33354 -10.32318
 Alpha  occ. eigenvalues --  -10.32192 -10.32082 -10.31693 -10.31385 -10.30981
 Alpha  occ. eigenvalues --  -10.30592 -10.30501 -10.30396 -10.30323 -10.30037
 Alpha  occ. eigenvalues --  -10.30033 -10.29997 -10.29589 -10.29500 -10.29364
 Alpha  occ. eigenvalues --  -10.29295 -10.29020 -10.29008 -10.28816 -10.28629
 Alpha  occ. eigenvalues --  -10.28594 -10.28507 -10.28398 -10.28124 -10.28110
 Alpha  occ. eigenvalues --  -10.28085 -10.28077 -10.28002 -10.27815 -10.27785
 Alpha  occ. eigenvalues --  -10.27783 -10.27551 -10.27505 -10.27483 -10.27396
 Alpha  occ. eigenvalues --  -10.27395 -10.27145 -10.27039 -10.27036 -10.26792
 Alpha  occ. eigenvalues --  -10.26766 -10.26720 -10.26698 -10.26559 -10.26538
 Alpha  occ. eigenvalues --  -10.26505 -10.26379 -10.26269 -10.26256 -10.26238
 Alpha  occ. eigenvalues --  -10.26193 -10.26193 -10.25860 -10.25763 -10.25725
 Alpha  occ. eigenvalues --  -10.25674 -10.25604 -10.25554 -10.25128 -10.25044
 Alpha  occ. eigenvalues --  -10.24410  -3.17725  -3.16310  -1.92617  -1.92174
 Alpha  occ. eigenvalues --   -1.92039  -1.91212  -1.90781  -1.90609  -1.16938
 Alpha  occ. eigenvalues --   -1.15570  -1.10466  -1.10400  -1.08306  -1.07979
 Alpha  occ. eigenvalues --   -1.07168  -1.06549  -1.05741  -1.05468  -1.04397
 Alpha  occ. eigenvalues --   -1.03950  -1.03888  -1.03128  -1.02968  -1.01989
 Alpha  occ. eigenvalues --   -0.93362  -0.91282  -0.89931  -0.89110  -0.88808
 Alpha  occ. eigenvalues --   -0.88741  -0.88690  -0.88182  -0.87934  -0.87564
 Alpha  occ. eigenvalues --   -0.87200  -0.87168  -0.87014  -0.86597  -0.84355
 Alpha  occ. eigenvalues --   -0.84201  -0.83997  -0.83345  -0.82557  -0.82371
 Alpha  occ. eigenvalues --   -0.82178  -0.81610  -0.81241  -0.81119  -0.80664
 Alpha  occ. eigenvalues --   -0.80052  -0.78547  -0.78415  -0.77584  -0.77568
 Alpha  occ. eigenvalues --   -0.77245  -0.76751  -0.76239  -0.76109  -0.75363
 Alpha  occ. eigenvalues --   -0.75230  -0.73248  -0.72645  -0.71838  -0.71697
 Alpha  occ. eigenvalues --   -0.69474  -0.69455  -0.69123  -0.68986  -0.68345
 Alpha  occ. eigenvalues --   -0.67722  -0.67588  -0.66110  -0.65857  -0.65828
 Alpha  occ. eigenvalues --   -0.64982  -0.64900  -0.64651  -0.64474  -0.64214
 Alpha  occ. eigenvalues --   -0.63956  -0.62647  -0.62111  -0.60742  -0.60280
 Alpha  occ. eigenvalues --   -0.60021  -0.59669  -0.59145  -0.58909  -0.58893
 Alpha  occ. eigenvalues --   -0.58650  -0.58354  -0.58047  -0.57999  -0.57450
 Alpha  occ. eigenvalues --   -0.56579  -0.56322  -0.56111  -0.55672  -0.55155
 Alpha  occ. eigenvalues --   -0.55052  -0.54784  -0.54552  -0.54276  -0.54205
 Alpha  occ. eigenvalues --   -0.53754  -0.53493  -0.53412  -0.53379  -0.52965
 Alpha  occ. eigenvalues --   -0.52813  -0.52743  -0.52585  -0.52315  -0.52177
 Alpha  occ. eigenvalues --   -0.51792  -0.51698  -0.51695  -0.51355  -0.51200
 Alpha  occ. eigenvalues --   -0.51126  -0.50719  -0.50494  -0.50400  -0.50279
 Alpha  occ. eigenvalues --   -0.50013  -0.49981  -0.49930  -0.49802  -0.49761
 Alpha  occ. eigenvalues --   -0.49705  -0.49379  -0.49303  -0.49054  -0.48981
 Alpha  occ. eigenvalues --   -0.48973  -0.48789  -0.48582  -0.48289  -0.48179
 Alpha  occ. eigenvalues --   -0.48110  -0.47805  -0.47769  -0.47670  -0.47529
 Alpha  occ. eigenvalues --   -0.47313  -0.47150  -0.46954  -0.46799  -0.46548
 Alpha  occ. eigenvalues --   -0.46484  -0.46395  -0.46153  -0.46061  -0.45981
 Alpha  occ. eigenvalues --   -0.45883  -0.45527  -0.45302  -0.44996  -0.44723
 Alpha  occ. eigenvalues --   -0.44709  -0.44531  -0.44419  -0.44254  -0.44142
 Alpha  occ. eigenvalues --   -0.44021  -0.43875  -0.43780  -0.43742  -0.43605
 Alpha  occ. eigenvalues --   -0.43584  -0.43364  -0.42934  -0.42875  -0.42771
 Alpha  occ. eigenvalues --   -0.42221  -0.42033  -0.42031  -0.42000  -0.41849
 Alpha  occ. eigenvalues --   -0.41836  -0.41654  -0.41580  -0.41541  -0.41152
 Alpha  occ. eigenvalues --   -0.41109  -0.40906  -0.40851  -0.40668  -0.40440
 Alpha  occ. eigenvalues --   -0.40439  -0.40072  -0.39850  -0.39290  -0.39103
 Alpha  occ. eigenvalues --   -0.38467  -0.38279  -0.38090  -0.37881  -0.37505
 Alpha  occ. eigenvalues --   -0.37065  -0.36961  -0.36693  -0.36692  -0.36594
 Alpha  occ. eigenvalues --   -0.36218  -0.35970  -0.34300  -0.34245  -0.34036
 Alpha  occ. eigenvalues --   -0.34015  -0.33372  -0.33305  -0.31981  -0.31488
 Alpha  occ. eigenvalues --   -0.31273  -0.31121  -0.30678  -0.30604  -0.30504
 Alpha  occ. eigenvalues --   -0.29983  -0.29682  -0.29124  -0.24635  -0.23927
 Alpha  occ. eigenvalues --   -0.21143  -0.21119
 Alpha virt. eigenvalues --   -0.09097  -0.08566  -0.01785  -0.01573   0.00380
 Alpha virt. eigenvalues --    0.00561   0.01880   0.02331   0.02537   0.03385
 Alpha virt. eigenvalues --    0.04630   0.04885   0.05337   0.05665   0.06193

 Mulliken charges:
               1
     1  Mg   0.828504
     2  C    0.007459
     3  C   -0.059517
     4  C   -0.069235
     5  C   -0.093577
     6  N   -0.267916
     7  C   -0.051221
     8  C    0.020224
     9  C   -0.103972
    10  C    0.038339
    11  C    0.063728
    12  C    0.034976
    13  C   -0.056571
    14  H    0.031815
    15  N   -0.358570
    16  C    0.139193
    17  C   -0.203028
    18  C   -0.035944
    19  C    0.110425
    20  C    0.139569
    21  C    0.019207
    22  O   -0.225606
    23  C    0.056041
    24  N   -0.391514
    25  C    0.083635
    26  C   -0.019372
    27  C   -0.020637
    28  C    0.118459
    29  C    0.088226
    30  C   -0.004928
    31  C    0.053332
    32  N   -0.339573
    33  C    0.089620
    34  C   -0.168114
    35  C    0.069270
    36  C    0.103936
    37  C    0.107984
    38  C    0.017663
    39  O   -0.153780
    40  C   -0.052428
    41  C    0.180655
    42  O   -0.217037
    43  O   -0.331566
    44  C    0.179189
    45  H   -0.027508
    46  H   -0.006589
    47  H   -0.026947
    48  H    0.017594
    49  H    0.009447
    50  H    0.020284
    51  H    0.021753
    52  H    0.015402
    53  H    0.010952
    54  H    0.033009
    55  H    0.030022
    56  H    0.029310
    57  H    0.042933
    58  H    0.027691
    59  H    0.001088
    60  H    0.024418
    61  H    0.024839
    62  H    0.039990
    63  H    0.000237
    64  H   -0.003812
    65  H    0.020456
    66  H    0.019247
    67  H    0.019165
    68  H   -0.002533
    69  H   -0.003884
    70  H    0.012702
    71  H   -0.002471
    72  H    0.028754
    73  H    0.038333
    74  H    0.023677
    75  H    0.027426
    76  H    0.043178
    77  H    0.041489
    78  H    0.041635
    79  H    0.051371
    80  Mg   0.832087
    81  C   -0.058942
    82  C   -0.068404
    83  C   -0.048471
    84  C   -0.064211
    85  N   -0.282676
    86  C   -0.070719
    87  C    0.037199
    88  C   -0.103342
    89  C    0.096684
    90  C    0.074351
    91  C    0.030393
    92  C   -0.078908
    93  H   -0.000461
    94  N   -0.351736
    95  C    0.093639
    96  C   -0.163051
    97  C   -0.023574
    98  C    0.114222
    99  C    0.115766
   100  C    0.042804
   101  O   -0.195738
   102  C    0.027071
   103  N   -0.202754
   104  C   -0.029772
   105  C   -0.063758
   106  C   -0.010500
   107  C   -0.014910
   108  C    0.083979
   109  C    0.049328
   110  C   -0.014701
   111  N   -0.364370
   112  C    0.117902
   113  C   -0.165050
   114  C   -0.033228
   115  C    0.166916
   116  C    0.154758
   117  C    0.031402
   118  O   -0.204144
   119  C    0.011461
   120  C    0.227315
   121  O   -0.237176
   122  O   -0.334650
   123  C    0.179428
   124  H   -0.045404
   125  H    0.005823
   126  H   -0.021647
   127  H    0.012745
   128  H    0.012054
   129  H    0.012168
   130  H    0.020282
   131  H    0.026687
   132  H    0.007740
   133  H    0.051203
   134  H    0.027697
   135  H    0.042458
   136  H    0.007534
   137  H    0.029967
   138  H    0.019369
   139  H    0.028787
   140  H    0.042001
   141  H    0.025828
   142  H    0.012597
   143  H   -0.000573
   144  H    0.024230
   145  H    0.022918
   146  H    0.008047
   147  H    0.006245
   148  H    0.012155
   149  H    0.013284
   150  H    0.012265
   151  H    0.019506
   152  H   -0.002866
   153  H    0.041568
   154  H    0.058652
   155  H    0.040248
   156  H    0.041169
   157  H    0.045314
   158  H    0.038490
 Sum of Mulliken charges =  -0.00000

 Dipole moment (field-independent basis, Debye):
    X=             -0.7453    Y=             -2.3438    Z=              3.3864  Tot=              4.1853
 Quadrupole moment (field-independent basis, Debye-Ang):
   XX=           -827.8752   YY=           -463.0139   ZZ=           -544.3689
   XY=             -0.2140   XZ=           -128.4438   YZ=              3.2935

 Normal termination of Gaussian 16 at Thu Sep  2 09:31:19 2021.
