 Gaussian 16, Revision A.03,
 Gaussian 16:  ES64L-G16RevA.03 25-Dec-2016

 -----------------------------------
 #p cam-b3lyp/Def2SVP td=(nstates=5)
 -----------------------------------

 --------------------------------
 TDDFT excited states in gaussian
 --------------------------------
 Symbolic Z-matrix:
 Charge =  0 Multiplicity = 1

                         Standard orientation:
 ---------------------------------------------------------------------
 Center     Atomic      Atomic             Coordinates (Angstroms)
 Number     Number       Type             X           Y           Z
 ---------------------------------------------------------------------
      1         12           0       11.685273   -0.463161   -0.426024
      2          6           0        9.782483    2.418682   -0.047195
      3          6           0       14.497104    1.550307    0.496530
      4          6           0       13.525548   -3.181935   -0.261893
      5          6           0        8.704608   -2.319326   -0.593382
      6          7           0       12.045566    1.693949    0.268509
      7          6           0       11.086170    2.681045    0.237225
      8          6           0       11.688565    4.015441    0.685306
      9          6           0       13.211288    3.729668    0.567513
     10          6           0       13.286744    2.228115    0.478346
     11          6           0       14.011258    4.383872   -0.626573
     12          6           0       11.250903    4.430357    2.099628
     13          6           0       11.661009    5.788219    2.525273
     14          1           0       10.831337    6.458270    3.686209
     15          7           0       13.753139   -0.801744    0.066288
     16          6           0       14.735358    0.148623    0.385893
     17          6           0       15.976266   -0.545560    0.589260
     18          6           0       15.683777   -1.956823    0.506176
     19          6           0       14.250300   -2.028824    0.057470
     20          6           0       17.290225    0.175040    0.999312
     21          6           0       16.740001   -3.037259    0.759239
     22          8           0       17.920570   -2.764570    0.900337
     23          6           0       16.315443   -4.454589    0.825695
     24          7           0       11.180692   -2.453744   -0.651483
     25          6           0       12.144052   -3.378818   -0.583286
     26          6           0       11.499426   -4.823658   -0.608733
     27          6           0        9.939130   -4.599733   -0.659098
     28          6           0        9.913142   -2.976609   -0.577034
     29          6           0       12.034833   -5.829519   -1.661460
     30          6           0        9.266494   -5.246329    0.570729
     31          6           0        7.827201   -5.727543    0.350358
     32          7           0        9.617158   -0.107611   -0.348427
     33          6           0        8.536432   -0.918893   -0.553325
     34          6           0        7.334835   -0.079657   -0.632839
     35          6           0        7.794380    1.206245   -0.534588
     36          6           0        9.149767    1.163805   -0.298425
     37          6           0        5.911486   -0.566933   -0.922652
     38          6           0        7.381162    2.576685   -0.492428
     39          8           0        6.303200    3.101453   -0.626587
     40          6           0        8.661320    3.424362   -0.187993
     41          6           0        8.913947    4.294907   -1.368999
     42          8           0        8.949566    3.962671   -2.521301
     43          8           0        9.252896    5.580106   -0.911500
     44          6           0        9.606903    6.527846   -1.929542
     45          1           0       15.301730    2.262136    0.689935
     46          1           0       14.007470   -4.162302   -0.259989
     47          1           0        7.762698   -2.858527   -0.714930
     48          1           0       11.422676    4.734638   -0.088209
     49          1           0       13.808304    3.958187    1.449686
     50          1           0       14.859670    4.864861   -0.140265
     51          1           0       13.439487    4.871818   -1.416388
     52          1           0       14.460984    3.559492   -1.179771
     53          1           0       11.670250    3.840011    2.914783
     54          1           0       10.169004    4.336290    2.193799
     55          1           0       11.619068    6.418457    1.636937
     56          1           0       12.713020    5.764750    2.809034
     57          1           0       17.288232   -0.132190    2.045603
     58          1           0       17.243169    1.263060    1.049403
     59          1           0       18.257760   -0.030131    0.540813
     60          1           0       15.470139   -4.454189    1.513843
     61          1           0       17.116936   -5.031670    1.287158
     62          1           0       16.056446   -4.688543   -0.207209
     63          1           0       11.767199   -5.275085    0.346992
     64          1           0        9.453331   -4.922803   -1.579270
     65          1           0       12.647911   -6.566002   -1.141036
     66          1           0       12.543178   -5.270986   -2.446717
     67          1           0       11.207984   -6.413837   -2.065134
     68          1           0        9.305023   -4.478646    1.343149
     69          1           0        9.840728   -6.059061    1.015952
     70          1           0        7.883896   -6.785717    0.607905
     71          1           0        7.430347   -5.531605   -0.645822
     72          1           0        7.158889   -5.265102    1.076826
     73          1           0        5.119290   -0.141730   -0.307319
     74          1           0        6.014061   -1.643761   -0.786336
     75          1           0        5.782052   -0.484525   -2.001913
     76          1           0        8.432012    4.014231    0.699542
     77          1           0        8.788890    7.246762   -1.976440
     78          1           0        9.820972    6.175370   -2.938806
     79          1           0       10.525317    7.018334   -1.608131
     80         12           0      -11.097363   -0.783838   -0.624931
     81          6           0      -12.116566    2.614367   -0.323979
     82          6           0       -7.897568    0.130148    0.186669
     83          6           0      -10.380288   -4.129547    0.109296
     84          6           0      -14.479558   -1.706370   -0.866094
     85          7           0      -10.224274    1.243680    0.135834
     86          6           0      -10.732941    2.471969   -0.054722
     87          6           0       -9.602873    3.484694   -0.084720
     88          6           0       -8.222679    2.702125    0.151040
     89          6           0       -8.842739    1.221620    0.002048
     90          6           0       -7.236468    3.081771   -0.976362
     91          6           0       -9.825820    4.575713    0.950199
     92          6           0      -10.431117    4.139572    2.305627
     93          1           0       -9.473422    4.123611    3.528266
     94          7           0       -9.321559   -1.893800   -0.018009
     95          6           0       -8.128882   -1.267046    0.270764
     96          6           0       -7.174719   -2.315350    0.454085
     97          6           0       -7.848695   -3.592888    0.539465
     98          6           0       -9.249822   -3.279742    0.160574
     99          6           0       -5.724181   -2.047842    0.782847
    100          6           0       -7.285744   -4.919982    1.050644
    101          8           0       -6.149498   -4.973770    1.480251
    102          6           0       -8.036282   -6.139651    1.072641
    103          7           0      -12.265762   -2.641199   -0.305538
    104          6           0      -11.723003   -3.842705   -0.175160
    105          6           0      -12.748514   -4.960810   -0.081946
    106          6           0      -14.080185   -4.094973   -0.031048
    107          6           0      -13.626696   -2.753674   -0.482663
    108          6           0      -12.705750   -5.986966   -1.317033
    109          6           0      -14.736445   -4.163359    1.424238
    110          6           0      -16.043652   -4.872260    1.639142
    111          7           0      -12.848807    0.177394   -0.843769
    112          6           0      -14.145434   -0.331981   -1.060076
    113          6           0      -15.098047    0.763662   -1.319176
    114          6           0      -14.309952    1.884445   -1.058196
    115          6           0      -12.977223    1.530193   -0.648161
    116          6           0      -16.567740    0.703237   -1.861683
    117          6           0      -14.381819    3.348239   -1.007996
    118          8           0      -15.288680    4.162818   -1.246674
    119          6           0      -12.985001    3.887519   -0.554912
    120          6           0      -13.372196    4.539683    0.727348
    121          8           0      -13.900841    3.986756    1.657510
    122          8           0      -13.168145    5.851666    0.651301
    123          6           0      -13.408878    6.707751    1.865013
    124          1           0       -6.848339    0.429338    0.144711
    125          1           0      -10.289992   -5.208961    0.246344
    126          1           0      -15.499379   -2.095993   -0.825158
    127          1           0       -9.761774    3.865836   -1.093500
    128          1           0       -7.797358    2.891331    1.136998
    129          1           0       -6.356355    3.532919   -0.518578
    130          1           0       -7.618714    3.818595   -1.683287
    131          1           0       -6.950923    2.142247   -1.448737
    132          1           0      -10.488899    5.337029    0.539225
    133          1           0       -8.878948    5.041800    1.224328
    134          1           0      -10.779016    3.110836    2.398244
    135          1           0      -11.250142    4.839244    2.472630
    136          1           0       -5.523665   -0.982134    0.896047
    137          1           0       -5.118061   -2.552410    0.029648
    138          1           0       -5.490798   -2.606072    1.688819
    139          1           0       -8.906196   -6.142172    1.729760
    140          1           0       -7.390804   -6.952940    1.403784
    141          1           0       -8.375215   -6.229466    0.040007
    142          1           0      -12.727511   -5.505330    0.861726
    143          1           0      -14.742886   -4.695728   -0.654222
    144          1           0      -11.880816   -5.723712   -1.979706
    145          1           0      -13.632981   -5.855728   -1.875139
    146          1           0      -12.665140   -7.046182   -1.058393
    147          1           0      -15.019379   -3.171314    1.776414
    148          1           0      -14.043330   -4.594635    2.145219
    149          1           0      -16.901301   -4.203778    1.714863
    150          1           0      -15.837974   -5.335850    2.604527
    151          1           0      -16.200931   -5.746314    1.006950
    152          1           0      -17.207722    0.373375   -1.043778
    153          1           0      -16.560583    0.043803   -2.729706
    154          1           0      -16.884137    1.716894   -2.106969
    155          1           0      -12.644905    4.545789   -1.355203
    156          1           0      -14.451283    7.009544    1.969567
    157          1           0      -12.803342    7.614451    1.833748
    158          1           0      -13.082288    6.093670    2.704247
 ---------------------------------------------------------------------

 SCF Done:  E(RCAM-B3LYP) =  -4069.77483690     A.U. after   19 cycles

 Excitation energies and oscillator strengths:

 Excited State   1:      Singlet-A      1.6886 eV  734.26 nm  f=0.4047  <S**2>=0.000
     310 -> 315        0.20019
     312 -> 314        0.67916
     310 <- 315        0.11465
 This state for optimization and/or second-order correction.
 Total Energy, E(TD-HF/TD-DFT) =  -4069.71278348
 Copying the excited state density for this state as the 1-particle RhoCI density.

 Excited State   2:      Singlet-A      1.7654 eV  702.29 nm  f=0.3614  <S**2>=0.000
     309 -> 316       -0.17208
     311 -> 313        0.68609
     309 <- 316       -0.10327

 Excited State   3:      Singlet-A      2.1997 eV  563.63 nm  f=0.0703  <S**2>=0.000
     310 -> 314        0.61861
     312 -> 315       -0.32980

 Excited State   4:      Singlet-A      2.2941 eV  540.44 nm  f=0.1168  <S**2>=0.000
     309 -> 313        0.63737
     311 -> 316        0.29064

 Excited State   5:      Singlet-A      2.9219 eV  424.32 nm  f=0.0000  <S**2>=0.000
     312 -> 313        0.70700

 The electronic state is 1-A.
 Alpha  occ. eigenvalues --  -46.90147 -46.89645 -19.25010 -19.24952 -19.20501
 Alpha  occ. eigenvalues --  -19.18793 -19.18789 -19.18677 -19.18523 -19.18020
 Alpha  occ. eigenvalues --  -14.42639 -14.42360 -14.42330 -14.41912 -14.40211
 Alpha  occ. eigenvalues --  -14.40075 -14.39475 -14.39079 -10.39510 -10.38661
 Alpha  occ. eigenvalues --  -10.34905 -10.34845 -10.34274 -10.34149 -10.32394
 Alpha  occ. eigenvalues --  -10.32341 -10.31932 -10.31577 -10.31317 -10.31238
 Alpha  occ. eigenvalues --  -10.31162 -10.31106 -10.31055 -10.30915 -10.30868
 Alpha  occ. eigenvalues --  -10.30677 -10.30647 -10.30551 -10.29888 -10.29782
 Alpha  occ. eigenvalues --  -10.29527 -10.29216 -10.28787 -10.28755 -10.28630
 Alpha  occ. eigenvalues --  -10.28587 -10.28335 -10.28318 -10.28316 -10.28242
 Alpha  occ. eigenvalues --  -10.28199 -10.28161 -10.28160 -10.28107 -10.28023
 Alpha  occ. eigenvalues --  -10.28001 -10.27891 -10.27772 -10.27761 -10.27739
 Alpha  occ. eigenvalues --  -10.27731 -10.27622 -10.27509 -10.27396 -10.27379
 Alpha  occ. eigenvalues --  -10.26952 -10.26935 -10.26899 -10.26850 -10.26794
 Alpha  occ. eigenvalues --  -10.26757 -10.26512 -10.26503 -10.26487 -10.26399
 Alpha  occ. eigenvalues --  -10.26371 -10.26197 -10.26066 -10.26060 -10.26031
 Alpha  occ. eigenvalues --  -10.25722 -10.25600 -10.25566 -10.25483 -10.24969
 Alpha  occ. eigenvalues --  -10.23970  -3.18453  -3.18066  -1.93317  -1.92973
 Alpha  occ. eigenvalues --   -1.92941  -1.92730  -1.92524  -1.92354  -1.16997
 Alpha  occ. eigenvalues --   -1.16625  -1.10334  -1.10166  -1.10104  -1.08835
 Alpha  occ. eigenvalues --   -1.08754  -1.07638  -1.04578  -1.04542  -1.03775
 Alpha  occ. eigenvalues --   -1.03706  -1.03605  -1.02808  -1.02331  -1.01537
 Alpha  occ. eigenvalues --   -0.93256  -0.91878  -0.89409  -0.89214  -0.88896
 Alpha  occ. eigenvalues --   -0.88811  -0.88731  -0.88197  -0.88076  -0.87015
 Alpha  occ. eigenvalues --   -0.86443  -0.86057  -0.85933  -0.85293  -0.85202
 Alpha  occ. eigenvalues --   -0.84618  -0.84021  -0.83995  -0.83153  -0.82798
 Alpha  occ. eigenvalues --   -0.82568  -0.82541  -0.81290  -0.81028  -0.80842
 Alpha  occ. eigenvalues --   -0.80185  -0.77844  -0.77745  -0.77335  -0.77284
 Alpha  occ. eigenvalues --   -0.77100  -0.76329  -0.76214  -0.76195  -0.75510
 Alpha  occ. eigenvalues --   -0.74894  -0.73231  -0.72790  -0.72033  -0.71650
 Alpha  occ. eigenvalues --   -0.69326  -0.69037  -0.68819  -0.68479  -0.68047
 Alpha  occ. eigenvalues --   -0.67776  -0.66755  -0.66620  -0.66071  -0.65569
 Alpha  occ. eigenvalues --   -0.65531  -0.65111  -0.64968  -0.64690  -0.64603
 Alpha  occ. eigenvalues --   -0.63960  -0.62697  -0.62353  -0.60227  -0.60225
 Alpha  occ. eigenvalues --   -0.59886  -0.59302  -0.59209  -0.58913  -0.58853
 Alpha  occ. eigenvalues --   -0.58624  -0.58443  -0.57738  -0.57556  -0.57189
 Alpha  occ. eigenvalues --   -0.56490  -0.56241  -0.55900  -0.55777  -0.55470
 Alpha  occ. eigenvalues --   -0.54959  -0.54919  -0.54839  -0.54437  -0.54380
 Alpha  occ. eigenvalues --   -0.54011  -0.53810  -0.53564  -0.53490  -0.53307
 Alpha  occ. eigenvalues --   -0.53137  -0.52991  -0.52635  -0.52565  -0.52432
 Alpha  occ. eigenvalues --   -0.51951  -0.51898  -0.51695  -0.51666  -0.51643
 Alpha  occ. eigenvalues --   -0.51463  -0.50820  -0.50725  -0.50607  -0.50345
 Alpha  occ. eigenvalues --   -0.50275  -0.50108  -0.49866  -0.49724  -0.49608
 Alpha  occ. eigenvalues --   -0.49419  -0.49306  -0.49141  -0.49033  -0.48890
 Alpha  occ. eigenvalues --   -0.48845  -0.48434  -0.48290  -0.48179  -0.48086
 Alpha  occ. eigenvalues --   -0.47744  -0.47523  -0.47366  -0.47241  -0.47132
 Alpha  occ. eigenvalues --   -0.47069  -0.46887  -0.46843  -0.46521  -0.46451
 Alpha  occ. eigenvalues --   -0.46399  -0.46230  -0.46142  -0.45791  -0.45731
 Alpha  occ. eigenvalues --   -0.45529  -0.45311  -0.45241  -0.45118  -0.45113
 Alpha  occ. eigenvalues --   -0.45027  -0.44805  -0.44666  -0.44291  -0.44158
 Alpha  occ. eigenvalues --   -0.43899  -0.43878  -0.43676  -0.43607  -0.43508
 Alpha  occ. eigenvalues --   -0.43313  -0.43214  -0.43119  -0.42939  -0.42810
 Alpha  occ. eigenvalues --   -0.42708  -0.42380  -0.42327  -0.42278  -0.42020
 Alpha  occ. eigenvalues --   -0.41923  -0.41850  -0.41516  -0.41435  -0.41346
 Alpha  occ. eigenvalues --   -0.41222  -0.40793  -0.40584  -0.40252  -0.40069
 Alpha  occ. eigenvalues --   -0.39947  -0.39916  -0.39740  -0.39682  -0.38795
 Alpha  occ. eigenvalues --   -0.38586  -0.38033  -0.37903  -0.37662  -0.37350
 Alpha  occ. eigenvalues --   -0.37038  -0.36903  -0.36676  -0.36525  -0.36309
 Alpha  occ. eigenvalues --   -0.36073  -0.35629  -0.35251  -0.34228  -0.34181
 Alpha  occ. eigenvalues --   -0.34026  -0.33708  -0.33280  -0.31751  -0.31312
 Alpha  occ. eigenvalues --   -0.31022  -0.30679  -0.30652  -0.30622  -0.30207
 Alpha  occ. eigenvalues --   -0.30110  -0.29934  -0.28856  -0.24653  -0.24213
 Alpha  occ. eigenvalues --   -0.21647  -0.21248
 Alpha virt. eigenvalues --   -0.09018  -0.08699  -0.02485  -0.01923   0.00332
 Alpha virt. eigenvalues --    0.00929   0.01103   0.02045   0.02491   0.02741
 Alpha virt. eigenvalues --    0.04420   0.04858   0.05275   0.05398   0.05839

 Mulliken charges:
               1
     1  Mg   0.819389
     2  C    0.006831
     3  C   -0.063090
     4  C   -0.089667
     5  C   -0.062971
     6  N   -0.264018
     7  C   -0.106213
     8  C    0.076761
     9  C   -0.101726
    10  C    0.006179
    11  C    0.083469
    12  C    0.079427
    13  C   -0.054085
    14  H    0.025074
    15  N   -0.352368
    16  C    0.164030
    17  C   -0.119976
    18  C   -0.079697
    19  C    0.210296
    20  C    0.108909
    21  C   -0.024750
    22  O   -0.198884
    23  C    0.067346
    24  N   -0.318206
    25  C    0.038741
    26  C   -0.072125
    27  C   -0.045963
    28  C    0.073331
    29  C    0.071506
    30  C    0.009523
    31  C    0.015584
    32  N   -0.337686
    33  C    0.071464
    34  C   -0.219795
    35  C    0.070706
    36  C    0.099150
    37  C    0.148592
    38  C    0.009786
    39  O   -0.147939
    40  C   -0.000589
    41  C    0.189390
    42  O   -0.181800
    43  O   -0.348333
    44  C    0.164161
    45  H   -0.031088
    46  H   -0.042610
    47  H   -0.031083
    48  H   -0.003057
    49  H    0.005795
    50  H    0.021097
    51  H    0.026071
    52  H    0.008150
    53  H    0.004481
    54  H    0.011773
    55  H    0.014228
    56  H    0.018004
    57  H    0.035817
    58  H   -0.003385
    59  H    0.050420
    60  H    0.031178
    61  H    0.030856
    62  H    0.058526
    63  H    0.015164
    64  H    0.017530
    65  H    0.014323
    66  H    0.028158
    67  H    0.012952
    68  H    0.008952
    69  H    0.006524
    70  H    0.015504
    71  H    0.022927
    72  H    0.016783
    73  H    0.048042
    74  H   -0.015598
    75  H    0.034868
    76  H    0.042072
    77  H    0.038216
    78  H    0.044872
    79  H    0.023772
    80  Mg   0.809052
    81  C   -0.024230
    82  C   -0.063289
    83  C   -0.069424
    84  C   -0.046529
    85  N   -0.259864
    86  C   -0.095490
    87  C    0.047150
    88  C   -0.094996
    89  C    0.038530
    90  C    0.067079
    91  C    0.028163
    92  C   -0.086731
    93  H   -0.003029
    94  N   -0.383450
    95  C    0.150979
    96  C   -0.160308
    97  C   -0.041786
    98  C    0.173150
    99  C    0.133677
   100  C   -0.013062
   101  O   -0.204605
   102  C    0.070782
   103  N   -0.255756
   104  C    0.022698
   105  C   -0.100900
   106  C   -0.016237
   107  C    0.028480
   108  C    0.062503
   109  C    0.013495
   110  C    0.006305
   111  N   -0.412691
   112  C    0.143978
   113  C   -0.181521
   114  C    0.017255
   115  C    0.150099
   116  C    0.132488
   117  C    0.023712
   118  O   -0.196952
   119  C    0.022612
   120  C    0.168931
   121  O   -0.207156
   122  O   -0.315653
   123  C    0.170874
   124  H   -0.008015
   125  H   -0.041730
   126  H   -0.025437
   127  H    0.008677
   128  H    0.036175
   129  H    0.011178
   130  H    0.023053
   131  H    0.020840
   132  H    0.017458
   133  H    0.016500
   134  H    0.065683
   135  H    0.027575
   136  H    0.007870
   137  H    0.023963
   138  H    0.038764
   139  H    0.044499
   140  H    0.029158
   141  H    0.034935
   142  H    0.014917
   143  H   -0.005608
   144  H    0.022369
   145  H    0.010472
   146  H    0.023982
   147  H    0.012544
   148  H    0.009620
   149  H    0.031415
   150  H    0.005954
   151  H    0.005192
   152  H    0.031803
   153  H    0.034907
   154  H    0.039096
   155  H    0.037304
   156  H    0.053387
   157  H    0.041035
   158  H    0.052131
 Sum of Mulliken charges =  -0.00000

 Dipole moment (field-independent basis, Debye):
    X=              1.6916    Y=             -3.3497    Z=             -1.4805  Tot=              4.0340
 Quadrupole moment (field-independent basis, Debye-Ang):
   XX=           -530.6842   YY=           -458.6532   ZZ=           -519.0548
   XY=             63.4951   XZ=              8.6472   YZ=             12.9261

 Normal termination of Gaussian 16 at Thu Sep 16 10:34:54 2021.
