 Gaussian 16, Revision A.03,
 Gaussian 16:  ES64L-G16RevA.03 25-Dec-2016

 -----------------------------------
 #p cam-b3lyp/Def2SVP td=(nstates=5)
 -----------------------------------

 --------------------------------
 TDDFT excited states in gaussian
 --------------------------------
 Symbolic Z-matrix:
 Charge =  0 Multiplicity = 1

                         Standard orientation:
 ---------------------------------------------------------------------
 Center     Atomic      Atomic             Coordinates (Angstroms)
 Number     Number       Type             X           Y           Z
 ---------------------------------------------------------------------
      1         12           0      -26.592363   -0.152336    0.013698
      2          6           0      -23.282897   -0.834170   -0.488699
      3          6           0      -26.289724   -1.775708    3.165792
      4          6           0      -29.738266    0.842670    0.720219
      5          6           0      -26.483612    2.149813   -2.598852
      6          7           0      -24.782794   -0.893580    1.394584
      7          6           0      -23.603440   -1.272134    0.826661
      8          6           0      -22.735413   -1.944088    1.854259
      9          6           0      -23.715146   -2.228022    3.074525
     10          6           0      -25.057564   -1.619039    2.559509
     11          6           0      -23.578038   -3.548643    3.739871
     12          6           0      -21.328565   -1.293544    2.257933
     13          6           0      -21.200051    0.200309    2.214852
     14          1           0      -20.585149    0.877073    3.431889
     15          7           0      -27.893348   -0.634565    1.593049
     16          6           0      -27.614077   -1.306442    2.742547
     17          6           0      -28.753566   -1.393030    3.607239
     18          6           0      -29.832194   -0.715432    2.834757
     19          6           0      -29.174264   -0.131424    1.645511
     20          6           0      -28.860492   -2.032448    4.908657
     21          6           0      -31.315366   -0.608826    3.159083
     22          8           0      -31.727632   -0.964811    4.205512
     23          6           0      -32.375837    0.019513    2.298030
     24          7           0      -27.844462    1.357300   -0.728694
     25          6           0      -29.138402    1.418439   -0.378935
     26          6           0      -29.862764    2.680068   -1.086452
     27          6           0      -28.916277    2.799033   -2.378531
     28          6           0      -27.680918    2.114273   -1.844143
     29          6           0      -31.343499    2.493344   -1.428862
     30          6           0      -28.783027    4.244833   -2.889945
     31          6           0      -28.950566    4.568654   -4.379209
     32          7           0      -25.148024    0.617956   -1.226803
     33          6           0      -25.221558    1.519311   -2.281520
     34          6           0      -24.011181    1.571920   -3.005264
     35          6           0      -23.197682    0.629413   -2.398254
     36          6           0      -23.931136    0.056189   -1.299721
     37          6           0      -23.699756    2.395569   -4.216504
     38          6           0      -21.981612   -0.071205   -2.384566
     39          8           0      -21.029643    0.077514   -3.148056
     40          6           0      -21.894489   -0.910180   -1.077895
     41          6           0      -21.492812   -2.289227   -1.580083
     42          8           0      -20.523546   -2.941613   -1.137715
     43          8           0      -22.458787   -2.702615   -2.466981
     44          6           0      -22.523389   -4.097429   -2.967778
     45          1           0      -26.099115   -2.172428    4.165098
     46          1           0      -30.664856    1.310535    1.058963
     47          1           0      -26.480905    2.821127   -3.459704
     48          1           0      -22.373333   -2.883828    1.435657
     49          1           0      -23.446308   -1.506057    3.845084
     50          1           0      -24.528436   -4.062062    3.885148
     51          1           0      -22.980392   -3.492289    4.649689
     52          1           0      -23.032069   -4.226088    3.083231
     53          1           0      -20.491524   -1.609817    1.635381
     54          1           0      -21.127966   -1.492601    3.311125
     55          1           0      -22.083142    0.724525    1.851067
     56          1           0      -20.415074    0.426524    1.492477
     57          1           0      -28.173207   -2.877296    4.940230
     58          1           0      -29.862731   -2.383565    5.151380
     59          1           0      -28.560239   -1.288162    5.647093
     60          1           0      -31.902666   -0.249374    1.353318
     61          1           0      -32.431238    1.101478    2.413822
     62          1           0      -33.389052   -0.372084    2.389787
     63          1           0      -29.661697    3.534400   -0.439373
     64          1           0      -29.162410    2.210980   -3.262332
     65          1           0      -31.402300    2.354574   -2.508738
     66          1           0      -31.942371    3.274238   -0.961091
     67          1           0      -31.772577    1.589885   -0.996576
     68          1           0      -27.793686    4.589462   -2.587872
     69          1           0      -29.445730    4.870816   -2.292203
     70          1           0      -29.615480    5.383920   -4.664799
     71          1           0      -29.167235    3.687521   -4.984582
     72          1           0      -27.919856    4.747749   -4.683583
     73          1           0      -23.027831    1.919783   -4.931226
     74          1           0      -23.251273    3.333576   -3.888414
     75          1           0      -24.579042    2.623638   -4.820368
     76          1           0      -21.110625   -0.400524   -0.518943
     77          1           0      -23.546024   -4.463504   -3.057245
     78          1           0      -21.976334   -4.732357   -2.270670
     79          1           0      -22.091014   -4.363099   -3.931629
     80         12           0       25.845040    0.703410    0.429766
     81          6           0       26.178033   -2.595874   -0.500697
     82          6           0       23.316767    1.046418   -2.071926
     83          6           0       25.717951    3.930586    1.005832
     84          6           0       28.434304    0.357753    2.740560
     85          7           0       24.912839   -0.678706   -1.065009
     86          6           0       25.182394   -1.976240   -1.236247
     87          6           0       24.195313   -2.562093   -2.297906
     88          6           0       23.395725   -1.297404   -2.856895
     89          6           0       23.954344   -0.180921   -1.953662
     90          6           0       23.693035   -0.868484   -4.280895
     91          6           0       23.310990   -3.711439   -1.791319
     92          6           0       23.375172   -4.911526   -2.721032
     93          1           0       22.206053   -5.902428   -2.817934
     94          7           0       24.615175    2.241887   -0.372047
     95          6           0       23.632594    2.199949   -1.318791
     96          6           0       23.019485    3.438949   -1.502869
     97          6           0       23.771368    4.369335   -0.703877
     98          6           0       24.759752    3.520997    0.047772
     99          6           0       21.841450    3.678321   -2.436041
    100          6           0       23.658065    5.883680   -0.638539
    101          8           0       24.525058    6.516466   -0.005092
    102          6           0       22.631674    6.623906   -1.394802
    103          7           0       26.894624    1.899133    1.696509
    104          6           0       26.638993    3.247957    1.834726
    105          6           0       27.569644    3.988733    2.865326
    106          6           0       28.216638    2.725430    3.578168
    107          6           0       27.850287    1.585040    2.610791
    108          6           0       28.669324    5.019589    2.392599
    109          6           0       27.927548    2.494557    5.130739
    110          6           0       26.576327    1.917447    5.460663
    111          7           0       27.157294   -0.703742    0.941519
    112          6           0       28.168089   -0.756345    1.882350
    113          6           0       28.788993   -2.016614    1.929050
    114          6           0       28.005834   -2.758675    1.037415
    115          6           0       27.006944   -1.931486    0.446089
    116          6           0       29.869446   -2.324452    2.876049
    117          6           0       27.985462   -4.045088    0.455027
    118          8           0       28.792607   -4.961372    0.623452
    119          6           0       26.752810   -4.048053   -0.591653
    120          6           0       27.251972   -4.390835   -1.911712
    121          8           0       27.887747   -3.678464   -2.654620
    122          8           0       27.014536   -5.669363   -2.177810
    123          6           0       27.538337   -6.238365   -3.382667
    124          1           0       22.582872    1.153949   -2.872823
    125          1           0       25.793543    4.978756    1.301527
    126          1           0       29.241319    0.293747    3.473486
    127          1           0       24.906179   -2.889678   -3.055827
    128          1           0       22.349220   -1.604101   -2.867739
    129          1           0       24.356606   -1.539334   -4.827370
    130          1           0       24.206642    0.092544   -4.284611
    131          1           0       22.761467   -0.643286   -4.800972
    132          1           0       22.265288   -3.450276   -1.627902
    133          1           0       23.668977   -3.987906   -0.799875
    134          1           0       24.180067   -5.540013   -2.338196
    135          1           0       23.573351   -4.509041   -3.714247
    136          1           0       21.399586    2.741535   -2.775737
    137          1           0       22.211635    4.127329   -3.357963
    138          1           0       21.139000    4.391721   -2.006702
    139          1           0       22.927466    7.664381   -1.533702
    140          1           0       21.733300    6.637137   -0.776894
    141          1           0       22.470426    6.161168   -2.368141
    142          1           0       27.005288    4.445107    3.679170
    143          1           0       29.296085    2.866954    3.614385
    144          1           0       28.607285    5.094278    1.307648
    145          1           0       29.652177    4.560125    2.504732
    146          1           0       28.676319    6.012537    2.843091
    147          1           0       27.930152    3.485302    5.584526
    148          1           0       28.709338    1.942616    5.651136
    149          1           0       26.702204    1.319172    6.362386
    150          1           0       26.014279    1.344194    4.724447
    151          1           0       25.920351    2.766467    5.652977
    152          1           0       29.883364   -1.813589    3.838485
    153          1           0       30.874771   -2.366265    2.458655
    154          1           0       29.677835   -3.380377    3.065165
    155          1           0       26.040728   -4.804226   -0.261700
    156          1           0       26.851653   -6.133944   -4.223482
    157          1           0       27.639792   -7.309078   -3.206480
    158          1           0       28.479392   -5.753407   -3.642595
 ---------------------------------------------------------------------

 SCF Done:  E(RCAM-B3LYP) =  -4069.77384404     A.U. after   19 cycles

 Excitation energies and oscillator strengths:

 Excited State   1:      Singlet-A      1.6347 eV  758.44 nm  f=0.3871  <S**2>=0.000
     309 -> 315        0.16911
     311 -> 313        0.68879
     309 <- 315        0.10873
 This state for optimization and/or second-order correction.
 Total Energy, E(TD-HF/TD-DFT) =  -4069.71376900
 Copying the excited state density for this state as the 1-particle RhoCI density.

 Excited State   2:      Singlet-A      1.7068 eV  726.43 nm  f=0.4166  <S**2>=0.000
     310 -> 316        0.17267
     312 -> 314        0.68674
     310 <- 316        0.10539

 Excited State   3:      Singlet-A      2.1488 eV  576.98 nm  f=0.1478  <S**2>=0.000
     309 -> 313        0.65218
     311 -> 315       -0.25539

 Excited State   4:      Singlet-A      2.2215 eV  558.10 nm  f=0.1596  <S**2>=0.000
     310 -> 314        0.65337
     312 -> 316       -0.25395

 Excited State   5:      Singlet-A      3.0208 eV  410.44 nm  f=0.0000  <S**2>=0.000
     312 -> 313        0.70710

 The electronic state is 1-A.
 Alpha  occ. eigenvalues --  -46.89986 -46.87672 -19.26262 -19.24815 -19.20364
 Alpha  occ. eigenvalues --  -19.18612 -19.18579 -19.18516 -19.18228 -19.17275
 Alpha  occ. eigenvalues --  -14.42619 -14.42286 -14.42153 -14.42073 -14.40092
 Alpha  occ. eigenvalues --  -14.39700 -14.39698 -14.38950 -10.40517 -10.38289
 Alpha  occ. eigenvalues --  -10.34855 -10.34498 -10.34316 -10.33613 -10.32861
 Alpha  occ. eigenvalues --  -10.32130 -10.31643 -10.31489 -10.31206 -10.31173
 Alpha  occ. eigenvalues --  -10.31144 -10.31049 -10.30963 -10.30797 -10.30735
 Alpha  occ. eigenvalues --  -10.30725 -10.30215 -10.30142 -10.29427 -10.29371
 Alpha  occ. eigenvalues --  -10.29040 -10.28975 -10.28932 -10.28893 -10.28542
 Alpha  occ. eigenvalues --  -10.28509 -10.28502 -10.28473 -10.28332 -10.28269
 Alpha  occ. eigenvalues --  -10.28262 -10.28254 -10.28238 -10.28008 -10.28000
 Alpha  occ. eigenvalues --  -10.27947 -10.27841 -10.27685 -10.27648 -10.27575
 Alpha  occ. eigenvalues --  -10.27556 -10.27549 -10.27485 -10.27281 -10.27269
 Alpha  occ. eigenvalues --  -10.27176 -10.26827 -10.26816 -10.26786 -10.26771
 Alpha  occ. eigenvalues --  -10.26729 -10.26589 -10.26380 -10.26292 -10.26263
 Alpha  occ. eigenvalues --  -10.26258 -10.26172 -10.26154 -10.26106 -10.25734
 Alpha  occ. eigenvalues --  -10.25552 -10.25546 -10.25200 -10.25118 -10.24967
 Alpha  occ. eigenvalues --  -10.24626  -3.18458  -3.16457  -1.93316  -1.92950
 Alpha  occ. eigenvalues --   -1.92733  -1.91355  -1.90928  -1.90761  -1.17920
 Alpha  occ. eigenvalues --   -1.15721  -1.11452  -1.09397  -1.08841  -1.08490
 Alpha  occ. eigenvalues --   -1.07784  -1.07293  -1.05208  -1.04580  -1.04404
 Alpha  occ. eigenvalues --   -1.03688  -1.03318  -1.02977  -1.02534  -1.02196
 Alpha  occ. eigenvalues --   -0.93733  -0.92075  -0.89882  -0.89351  -0.88779
 Alpha  occ. eigenvalues --   -0.88760  -0.88446  -0.88332  -0.87983  -0.87637
 Alpha  occ. eigenvalues --   -0.87504  -0.87294  -0.86772  -0.85928  -0.84594
 Alpha  occ. eigenvalues --   -0.84580  -0.84038  -0.83852  -0.83143  -0.82938
 Alpha  occ. eigenvalues --   -0.82385  -0.82219  -0.81168  -0.81026  -0.80632
 Alpha  occ. eigenvalues --   -0.80582  -0.78559  -0.78327  -0.77850  -0.77320
 Alpha  occ. eigenvalues --   -0.77037  -0.76881  -0.76739  -0.75968  -0.75520
 Alpha  occ. eigenvalues --   -0.75270  -0.73630  -0.73438  -0.71798  -0.71439
 Alpha  occ. eigenvalues --   -0.70074  -0.69639  -0.69434  -0.68825  -0.68450
 Alpha  occ. eigenvalues --   -0.67782  -0.67132  -0.66612  -0.66316  -0.65537
 Alpha  occ. eigenvalues --   -0.65380  -0.64906  -0.64759  -0.64593  -0.64446
 Alpha  occ. eigenvalues --   -0.64372  -0.63640  -0.62331  -0.60414  -0.60325
 Alpha  occ. eigenvalues --   -0.59990  -0.59439  -0.58981  -0.58932  -0.58499
 Alpha  occ. eigenvalues --   -0.58337  -0.58109  -0.57669  -0.57668  -0.57264
 Alpha  occ. eigenvalues --   -0.56575  -0.56513  -0.56191  -0.55843  -0.55373
 Alpha  occ. eigenvalues --   -0.55157  -0.55079  -0.54660  -0.54509  -0.54348
 Alpha  occ. eigenvalues --   -0.54017  -0.53521  -0.53319  -0.53227  -0.53154
 Alpha  occ. eigenvalues --   -0.52762  -0.52554  -0.52492  -0.52340  -0.52122
 Alpha  occ. eigenvalues --   -0.52117  -0.51889  -0.51849  -0.51709  -0.51395
 Alpha  occ. eigenvalues --   -0.51315  -0.51124  -0.50736  -0.50637  -0.50286
 Alpha  occ. eigenvalues --   -0.50284  -0.50025  -0.49947  -0.49759  -0.49654
 Alpha  occ. eigenvalues --   -0.49507  -0.49458  -0.49246  -0.49228  -0.49130
 Alpha  occ. eigenvalues --   -0.49042  -0.48950  -0.48382  -0.48272  -0.48132
 Alpha  occ. eigenvalues --   -0.47915  -0.47761  -0.47604  -0.47350  -0.47317
 Alpha  occ. eigenvalues --   -0.47267  -0.47127  -0.46945  -0.46866  -0.46489
 Alpha  occ. eigenvalues --   -0.46458  -0.46364  -0.46186  -0.46011  -0.45660
 Alpha  occ. eigenvalues --   -0.45574  -0.45526  -0.45412  -0.45362  -0.45138
 Alpha  occ. eigenvalues --   -0.45065  -0.44929  -0.44914  -0.44575  -0.44362
 Alpha  occ. eigenvalues --   -0.44198  -0.44043  -0.43884  -0.43620  -0.43480
 Alpha  occ. eigenvalues --   -0.43426  -0.43227  -0.43114  -0.42752  -0.42680
 Alpha  occ. eigenvalues --   -0.42665  -0.42515  -0.42418  -0.42120  -0.41986
 Alpha  occ. eigenvalues --   -0.41983  -0.41771  -0.41575  -0.41527  -0.41497
 Alpha  occ. eigenvalues --   -0.41330  -0.41308  -0.41099  -0.40976  -0.40606
 Alpha  occ. eigenvalues --   -0.40471  -0.40273  -0.39186  -0.39076  -0.38872
 Alpha  occ. eigenvalues --   -0.38719  -0.38185  -0.38029  -0.37725  -0.37410
 Alpha  occ. eigenvalues --   -0.37177  -0.36925  -0.36524  -0.36344  -0.36193
 Alpha  occ. eigenvalues --   -0.36170  -0.35646  -0.34827  -0.34222  -0.33907
 Alpha  occ. eigenvalues --   -0.33870  -0.33125  -0.33120  -0.31611  -0.31435
 Alpha  occ. eigenvalues --   -0.30937  -0.30771  -0.30548  -0.30521  -0.30049
 Alpha  occ. eigenvalues --   -0.29755  -0.29587  -0.28391  -0.24503  -0.24112
 Alpha  occ. eigenvalues --   -0.21760  -0.21468
 Alpha virt. eigenvalues --   -0.09706  -0.09087  -0.01999  -0.01416   0.00104
 Alpha virt. eigenvalues --    0.00498   0.00960   0.02491   0.02653   0.03177
 Alpha virt. eigenvalues --    0.04528   0.04872   0.05651   0.05679   0.05869

 Mulliken charges:
               1
     1  Mg   0.824993
     2  C    0.019283
     3  C   -0.076963
     4  C   -0.075313
     5  C   -0.091260
     6  N   -0.272173
     7  C   -0.046281
     8  C    0.019124
     9  C   -0.037949
    10  C    0.011847
    11  C    0.090877
    12  C    0.034522
    13  C   -0.113657
    14  H    0.011915
    15  N   -0.363529
    16  C    0.155781
    17  C   -0.164906
    18  C   -0.053231
    19  C    0.113997
    20  C    0.136382
    21  C   -0.034856
    22  O   -0.178673
    23  C    0.046386
    24  N   -0.288430
    25  C    0.057828
    26  C   -0.083519
    27  C   -0.035986
    28  C    0.048066
    29  C    0.096420
    30  C    0.030975
    31  C    0.010220
    32  N   -0.351622
    33  C    0.123539
    34  C   -0.172832
    35  C    0.107923
    36  C    0.078493
    37  C    0.118779
    38  C   -0.023677
    39  O   -0.180980
    40  C   -0.040743
    41  C    0.244522
    42  O   -0.225301
    43  O   -0.349238
    44  C    0.180468
    45  H   -0.016072
    46  H   -0.017605
    47  H   -0.037873
    48  H    0.015007
    49  H    0.022351
    50  H    0.014235
    51  H    0.018997
    52  H    0.005475
    53  H    0.034677
    54  H    0.020713
    55  H    0.043007
    56  H    0.033974
    57  H    0.010771
    58  H    0.039563
    59  H    0.029656
    60  H    0.015076
    61  H    0.049022
    62  H    0.031145
    63  H    0.029336
    64  H    0.016145
    65  H    0.016724
    66  H    0.016769
    67  H    0.012755
    68  H    0.006056
    69  H    0.002135
    70  H    0.033190
    71  H    0.005118
    72  H    0.010951
    73  H    0.037295
    74  H    0.037056
    75  H    0.010976
    76  H    0.036994
    77  H    0.035848
    78  H    0.037899
    79  H    0.041420
    80  Mg   0.849788
    81  C   -0.032499
    82  C   -0.104310
    83  C   -0.040440
    84  C   -0.102973
    85  N   -0.277003
    86  C   -0.073618
    87  C    0.020005
    88  C   -0.112957
    89  C    0.098360
    90  C    0.051547
    91  C    0.081298
    92  C   -0.091579
    93  H    0.011496
    94  N   -0.341478
    95  C    0.146756
    96  C   -0.163360
    97  C   -0.029812
    98  C    0.148890
    99  C    0.116772
   100  C   -0.008343
   101  O   -0.229864
   102  C    0.068400
   103  N   -0.320796
   104  C    0.008074
   105  C   -0.016762
   106  C   -0.037882
   107  C    0.071435
   108  C    0.076347
   109  C    0.018591
   110  C   -0.003776
   111  N   -0.375136
   112  C    0.118515
   113  C   -0.127469
   114  C    0.017210
   115  C    0.159531
   116  C    0.116736
   117  C    0.021780
   118  O   -0.183772
   119  C   -0.013652
   120  C    0.166813
   121  O   -0.220813
   122  O   -0.295163
   123  C    0.174911
   124  H   -0.024833
   125  H   -0.005991
   126  H   -0.029598
   127  H    0.009687
   128  H    0.016869
   129  H    0.020829
   130  H    0.019460
   131  H    0.013224
   132  H    0.015446
   133  H    0.005728
   134  H    0.041349
   135  H    0.035612
   136  H    0.018831
   137  H    0.034015
   138  H    0.033345
   139  H    0.029268
   140  H    0.043655
   141  H    0.024141
   142  H    0.010404
   143  H    0.001436
   144  H    0.018264
   145  H    0.006729
   146  H    0.034644
   147  H    0.004107
   148  H    0.008748
   149  H    0.014739
   150  H    0.027011
   151  H    0.007628
   152  H    0.024875
   153  H    0.030954
   154  H    0.021931
   155  H    0.035917
   156  H    0.024941
   157  H    0.037057
   158  H    0.049783
 Sum of Mulliken charges =  -0.00000

 Dipole moment (field-independent basis, Debye):
    X=             -7.1893    Y=              2.3715    Z=             -2.5110  Tot=              7.9759
 Quadrupole moment (field-independent basis, Debye-Ang):
   XX=           -575.9580   YY=           -510.6320   ZZ=           -491.2487
   XY=             28.5021   XZ=            125.7330   YZ=              5.4536

 Normal termination of Gaussian 16 at Wed Sep 15 00:58:25 2021.
