 Gaussian 16, Revision A.03,
 Gaussian 16:  ES64L-G16RevA.03 25-Dec-2016

 -----------------------------------------------------------
 #p cam-b3lyp/Def2SVP td=(nstates=5, root=1) density=current
 -----------------------------------------------------------

 --------------------------------
 TDDFT excited states in gaussian
 --------------------------------
 Symbolic Z-matrix:
 Charge =  0 Multiplicity = 1

                         Standard orientation:
 ---------------------------------------------------------------------
 Center     Atomic      Atomic             Coordinates (Angstroms)
 Number     Number       Type             X           Y           Z
 ---------------------------------------------------------------------
      1         12           0       -0.637433   -0.050895   -0.303206
      2          6           0        2.839932    0.025801    0.267002
      3          6           0       -0.493463   -3.364991    0.187388
      4          6           0       -3.902867    0.075189   -0.343941
      5          6           0       -0.529135    3.512791   -0.060548
      6          7           0        1.002057   -1.478942    0.218334
      7          6           0        2.337344   -1.282642    0.328856
      8          6           0        3.122554   -2.557316    0.562631
      9          6           0        2.005104   -3.630629    0.246031
     10          6           0        0.726362   -2.819249    0.219413
     11          6           0        2.218568   -4.439433   -1.099558
     12          6           0        3.851261   -2.852125    1.945729
     13          6           0        3.519128   -2.041905    3.226879
     14          1           0        3.594555   -2.787585    4.611451
     15          7           0       -1.996196   -1.538820   -0.230571
     16          6           0       -1.776789   -2.809421    0.079993
     17          6           0       -3.085006   -3.508132    0.204636
     18          6           0       -4.110379   -2.479514   -0.129594
     19          6           0       -3.336248   -1.242277   -0.233966
     20          6           0       -3.232150   -4.992196    0.406619
     21          6           0       -5.598712   -2.705172   -0.184215
     22          8           0       -6.028608   -3.843763   -0.016554
     23          6           0       -6.685315   -1.584136   -0.378393
     24          7           0       -2.092567    1.618439   -0.100661
     25          6           0       -3.320592    1.302648   -0.327276
     26          6           0       -4.149923    2.659285   -0.431581
     27          6           0       -3.065642    3.683200   -0.089375
     28          6           0       -1.774349    2.888537   -0.057756
     29          6           0       -4.909686    2.974917   -1.730776
     30          6           0       -3.212228    4.312051    1.391763
     31          6           0       -3.555950    5.810849    1.469957
     32          7           0        0.773780    1.488360    0.088533
     33          6           0        0.710019    2.855656    0.034108
     34          6           0        2.074706    3.443161    0.011299
     35          6           0        2.974807    2.362531    0.232111
     36          6           0        2.095548    1.197329    0.153777
     37          6           0        2.444889    4.943111   -0.003915
     38          6           0        4.320330    1.941612    0.438555
     39          8           0        5.389571    2.533151    0.665981
     40          6           0        4.310160    0.392352    0.394776
     41          6           0        5.238452   -0.024215   -0.749803
     42          8           0        6.341119   -0.502987   -0.772862
     43          8           0        4.503318    0.045011   -1.938207
     44          6           0        5.166205   -0.429268   -3.192596
     45          1           0       -0.417910   -4.440872    0.359447
     46          1           0       -4.994328    0.061497   -0.394256
     47          1           0       -0.495477    4.587125   -0.251357
     48          1           0        3.844905   -2.586256   -0.252934
     49          1           0        1.989838   -4.377289    1.040121
     50          1           0        3.096474   -4.079560   -1.635048
     51          1           0        1.370911   -4.097217   -1.692237
     52          1           0        2.239030   -5.508243   -0.885869
     53          1           0        4.921891   -2.771032    1.757458
     54          1           0        3.712107   -3.903890    2.198071
     55          1           0        2.499771   -1.681599    3.088158
     56          1           0        4.240097   -1.256070    3.450090
     57          1           0       -4.239632   -5.356106    0.206094
     58          1           0       -2.832209   -5.206241    1.398455
     59          1           0       -2.484196   -5.416642   -0.263901
     60          1           0       -6.627244   -0.880972   -1.210085
     61          1           0       -6.642916   -0.922826    0.487046
     62          1           0       -7.688758   -1.998452   -0.471760
     63          1           0       -4.964270    2.684157    0.291732
     64          1           0       -2.955170    4.564776   -0.721778
     65          1           0       -4.807090    2.175999   -2.465324
     66          1           0       -4.610647    3.936468   -2.149368
     67          1           0       -5.988760    3.048814   -1.595692
     68          1           0       -2.290841    4.214411    1.964250
     69          1           0       -3.986541    3.721188    1.881546
     70          1           0       -3.133850    6.345992    2.320939
     71          1           0       -4.637719    5.847271    1.598303
     72          1           0       -3.167449    6.204314    0.530542
     73          1           0        1.622421    5.623917    0.213063
     74          1           0        2.786251    5.118208   -1.023872
     75          1           0        3.309152    5.085259    0.644418
     76          1           0        4.694957    0.002682    1.336634
     77          1           0        6.247951   -0.330323   -3.280092
     78          1           0        4.756227    0.234554   -3.953520
     79          1           0        4.933335   -1.429671   -3.557944
 ---------------------------------------------------------------------

 SCF Done:  E(RCAM-B3LYP) =  -2034.88891088     A.U. after   19 cycles

 Excitation energies and oscillator strengths:

 Excited State   1:      Singlet-A      1.7690 eV  700.87 nm  f=0.4097  <S**2>=0.000
     155 ->158        -0.18518
     156 ->157         0.68378
     155 <-158        -0.10635
 This state for optimization and/or second-order correction.
 Total Energy, E(TD-HF/TD-DFT) =  -2034.82390149
 Copying the excited state density for this state as the 1-particle RhoCI density.

 Excited State   2:      Singlet-A      2.2834 eV  542.99 nm  f=0.0991  <S**2>=0.000
     155 ->157         0.63712
     156 ->158         0.29622

 Excited State   3:      Singlet-A      3.3805 eV  366.76 nm  f=0.0168  <S**2>=0.000
     150 ->157         0.26282
     150 ->159        -0.17133
     151 ->157         0.42040
     151 ->159        -0.28597
     151 ->161         0.10578
     152 ->157         0.11298
     154 ->157        -0.22859
     156 ->158         0.15959

 Excited State   4:      Singlet-A      3.4043 eV  364.20 nm  f=0.0045  <S**2>=0.000
     151 ->157         0.22207
     154 ->157         0.63616

 Excited State   5:      Singlet-A      3.5326 eV  350.97 nm  f=0.5278  <S**2>=0.000
     152 ->157        -0.24998
     155 ->157        -0.26012
     156 ->158         0.57577

 The electronic state is 1-A.
 Alpha  occ. eigenvalues --  -46.90085 -19.24614 -19.20431 -19.19482 -19.18616
 Alpha  occ. eigenvalues --  -14.42332 -14.41857 -14.40452 -14.40180 -10.39895
 Alpha  occ. eigenvalues --  -10.35706 -10.35622 -10.31883 -10.31538 -10.31139
 Alpha  occ. eigenvalues --  -10.31043 -10.30787 -10.30745 -10.30192 -10.30125
 Alpha  occ. eigenvalues --  -10.30117 -10.29883 -10.29421 -10.28985 -10.28813
 Alpha  occ. eigenvalues --  -10.28770 -10.28036 -10.27926 -10.27837 -10.27640
 Alpha  occ. eigenvalues --  -10.27579 -10.27390 -10.27262 -10.27199 -10.27105
 Alpha  occ. eigenvalues --  -10.26851 -10.26601 -10.26584 -10.26394 -10.26360
 Alpha  occ. eigenvalues --  -10.26193 -10.25805 -10.25395  -3.18563  -1.93451
 Alpha  occ. eigenvalues --   -1.93017  -1.92866  -1.16074  -1.09586  -1.09345
 Alpha  occ. eigenvalues --   -1.07295  -1.06762  -1.04842  -1.04028  -1.03320
 Alpha  occ. eigenvalues --   -0.93601  -0.89824  -0.88841  -0.88632  -0.88319
 Alpha  occ. eigenvalues --   -0.86920  -0.85428  -0.84909  -0.83975  -0.82920
 Alpha  occ. eigenvalues --   -0.81811  -0.80827  -0.80563  -0.78536  -0.77728
 Alpha  occ. eigenvalues --   -0.77047  -0.76708  -0.75388  -0.73338  -0.72416
 Alpha  occ. eigenvalues --   -0.69584  -0.69286  -0.68710  -0.67546  -0.66875
 Alpha  occ. eigenvalues --   -0.65714  -0.65531  -0.64893  -0.63181  -0.60622
 Alpha  occ. eigenvalues --   -0.60219  -0.59484  -0.58571  -0.58106  -0.57330
 Alpha  occ. eigenvalues --   -0.56390  -0.55894  -0.55714  -0.55092  -0.54549
 Alpha  occ. eigenvalues --   -0.53966  -0.53630  -0.53028  -0.52843  -0.52037
 Alpha  occ. eigenvalues --   -0.51786  -0.51554  -0.51265  -0.51130  -0.50636
 Alpha  occ. eigenvalues --   -0.50035  -0.49818  -0.49507  -0.49046  -0.48895
 Alpha  occ. eigenvalues --   -0.48573  -0.48533  -0.48311  -0.47918  -0.47651
 Alpha  occ. eigenvalues --   -0.47454  -0.47255  -0.46952  -0.46665  -0.46297
 Alpha  occ. eigenvalues --   -0.46106  -0.45921  -0.45547  -0.45377  -0.44888
 Alpha  occ. eigenvalues --   -0.44227  -0.43936  -0.43599  -0.43313  -0.43143
 Alpha  occ. eigenvalues --   -0.42696  -0.42272  -0.42091  -0.42029  -0.41484
 Alpha  occ. eigenvalues --   -0.41266  -0.40940  -0.40702  -0.39987  -0.39254
 Alpha  occ. eigenvalues --   -0.38871  -0.38226  -0.37676  -0.36913  -0.36681
 Alpha  occ. eigenvalues --   -0.36339  -0.35031  -0.34282  -0.33663  -0.31927
 Alpha  occ. eigenvalues --   -0.31431  -0.31064  -0.30982  -0.29287  -0.24510
 Alpha  occ. eigenvalues --   -0.21550
 Alpha virt. eigenvalues --   -0.08930  -0.02049  -0.00635   0.01169   0.01852
 Alpha virt. eigenvalues --    0.04288   0.04951   0.05423   0.06632   0.07674
 Alpha virt. eigenvalues --    0.08034   0.08598   0.08839   0.09808   0.10331

 Mulliken charges:
               1
     1  Mg   0.813134
     2  C   -0.032518
     3  C   -0.092595
     4  C   -0.044806
     5  C   -0.104779
     6  N   -0.285516
     7  C   -0.068915
     8  C    0.043025
     9  C   -0.112691
    10  C    0.052429
    11  C    0.080929
    12  C    0.048645
    13  C   -0.094424
    14  H    0.010178
    15  N   -0.392371
    16  C    0.159350
    17  C   -0.157012
    18  C   -0.043851
    19  C    0.162570
    20  C    0.135751
    21  C    0.011837
    22  O   -0.211273
    23  C    0.034786
    24  N   -0.211650
    25  C    0.045568
    26  C   -0.011102
    27  C   -0.079686
    28  C    0.064807
    29  C    0.059979
    30  C   -0.000997
    31  C    0.015266
    32  N   -0.317804
    33  C    0.116422
    34  C   -0.185752
    35  C    0.034696
    36  C    0.138646
    37  C    0.120086
    38  C    0.012252
    39  O   -0.191923
    40  C   -0.015456
    41  C    0.213592
    42  O   -0.177714
    43  O   -0.369925
    44  C    0.173909
    45  H   -0.037209
    46  H   -0.078446
    47  H   -0.026473
    48  H    0.016803
    49  H    0.014162
    50  H    0.016143
    51  H    0.018328
    52  H    0.034440
    53  H    0.021870
    54  H    0.021183
    55  H    0.051521
    56  H    0.054458
    57  H    0.054879
    58  H    0.018489
    59  H    0.016396
    60  H    0.036032
    61  H    0.036107
    62  H    0.025254
    63  H    0.014314
    64  H    0.005334
    65  H    0.014222
    66  H    0.016971
    67  H    0.007225
    68  H    0.022947
    69  H    0.001454
    70  H    0.022614
    71  H    0.016084
    72  H    0.010635
    73  H    0.017616
    74  H    0.028887
    75  H    0.044660
    76  H    0.035966
    77  H    0.048233
    78  H    0.025961
    79  H    0.027840
 Sum of Mulliken charges =  -0.00000

 Dipole moment (field-independent basis, Debye):
    X=             -3.8194    Y=              1.2640    Z=             -2.5858  Tot=              4.7825
 Quadrupole moment (field-independent basis, Debye-Ang):
   XX=           -300.7877   YY=           -248.5250   ZZ=           -249.9828
   XY=            -44.0213   XZ=             -7.2505   YZ=             -2.0006

 Normal termination of Gaussian 16 at Tue Oct 12 15:13:10 2021.
