 Gaussian 16, Revision A.03,
 Gaussian 16:  ES64L-G16RevA.03 25-Dec-2016

 ----------------------------------------------------------
 #p cam-b3lyp/Def2SVP td=(nstates=5) density=(transition=1)
 ----------------------------------------------------------

 --------------------------------
 TDDFT excited states in gaussian
 --------------------------------
 Symbolic Z-matrix:
 Charge =  0 Multiplicity = 1

                         Standard orientation:
 ---------------------------------------------------------------------
 Center     Atomic      Atomic             Coordinates (Angstroms)
 Number     Number       Type             X           Y           Z
 ---------------------------------------------------------------------
      1         12           0      -21.804562    0.331948   -0.264734
      2          6           0      -18.421417    0.493563    0.355342
      3          6           0      -21.118769   -1.270150   -3.201955
      4          6           0      -24.880866   -0.867288   -0.160325
      5          6           0      -22.327428    1.950179    2.806979
      6          7           0      -19.953777   -0.699689   -1.023272
      7          6           0      -18.690635   -0.288867   -0.740944
      8          6           0      -17.676053   -0.826441   -1.706374
      9          6           0      -18.572305   -0.979876   -2.977687
     10          6           0      -19.974657   -0.906613   -2.391909
     11          6           0      -18.254574    0.072634   -4.078268
     12          6           0      -17.075922   -2.244129   -1.233145
     13          6           0      -15.536974   -2.491123   -1.589694
     14          1           0      -15.455515   -3.709033   -2.476318
     15          7           0      -22.900245   -0.739282   -1.623113
     16          6           0      -22.477810   -1.397746   -2.724717
     17          6           0      -23.580975   -2.116135   -3.350123
     18          6           0      -24.690037   -1.978223   -2.490361
     19          6           0      -24.168645   -1.165285   -1.355830
     20          6           0      -23.381377   -2.899152   -4.670471
     21          6           0      -25.969884   -2.743676   -2.679991
     22          8           0      -26.101731   -3.448201   -3.646688
     23          6           0      -27.147158   -2.741749   -1.686202
     24          7           0      -23.479214    0.602318    1.064631
     25          6           0      -24.574473    0.007536    0.890117
     26          6           0      -25.524271    0.174182    2.018132
     27          6           0      -24.719491    1.108923    3.004306
     28          6           0      -23.447741    1.240812    2.285277
     29          6           0      -26.919810    0.690864    1.529940
     30          6           0      -24.543359    0.448095    4.449282
     31          6           0      -24.178631    1.401759    5.642101
     32          7           0      -20.674607    1.156653    1.252645
     33          6           0      -21.033781    1.870720    2.381367
     34          6           0      -19.871786    2.420297    3.023001
     35          6           0      -18.786531    1.935362    2.212204
     36          6           0      -19.320629    1.108160    1.243142
     37          6           0      -19.819207    3.287740    4.239195
     38          6           0      -17.374346    1.984862    2.051135
     39          8           0      -16.441729    2.524339    2.660434
     40          6           0      -17.061375    0.902453    0.965566
     41          6           0      -16.067614    1.509737    0.032385
     42          8           0      -14.838980    1.377934    0.123468
     43          8           0      -16.714497    2.275674   -0.897771
     44          6           0      -15.703729    2.911248   -1.788983
     45          1           0      -21.015555   -1.662674   -4.216096
     46          1           0      -25.870662   -1.325982   -0.125033
     47          1           0      -22.485226    2.330782    3.819013
     48          1           0      -16.968891   -0.006573   -1.825718
     49          1           0      -18.362472   -1.941895   -3.445516
     50          1           0      -17.876692   -0.436613   -4.964349
     51          1           0      -17.430359    0.683122   -3.707935
     52          1           0      -19.153795    0.668998   -4.229508
     53          1           0      -17.646302   -3.128371   -1.517147
     54          1           0      -17.134287   -2.335263   -0.149008
     55          1           0      -15.082664   -2.748520   -0.632786
     56          1           0      -14.931209   -1.669986   -1.973119
     57          1           0      -23.608325   -3.963602   -4.612149
     58          1           0      -22.391125   -2.781393   -5.111910
     59          1           0      -24.027123   -2.430493   -5.412335
     60          1           0      -27.618881   -1.765462   -1.579553
     61          1           0      -26.889474   -3.129848   -0.700448
     62          1           0      -27.810588   -3.527010   -2.049870
     63          1           0      -25.593378   -0.830712    2.434468
     64          1           0      -25.051637    2.139183    3.129880
     65          1           0      -27.654960   -0.053545    1.834949
     66          1           0      -26.942027    0.846115    0.451131
     67          1           0      -27.299328    1.546002    2.089014
     68          1           0      -23.770818   -0.320442    4.416441
     69          1           0      -25.492138   -0.046084    4.653155
     70          1           0      -24.832627    1.495145    6.508657
     71          1           0      -24.115564    2.433801    5.299837
     72          1           0      -23.202796    1.137671    6.049695
     73          1           0      -20.770730    3.668050    4.610253
     74          1           0      -19.164585    4.072819    3.862897
     75          1           0      -19.249767    2.638599    4.904493
     76          1           0      -16.681272   -0.037966    1.366036
     77          1           0      -15.151552    3.664648   -1.228112
     78          1           0      -16.155223    3.531070   -2.563658
     79          1           0      -15.089487    2.114850   -2.209690
     80         12           0       20.943185   -0.852437    0.024428
     81          6           0       21.685478    2.362979   -1.061847
     82          6           0       17.636914    0.183485    0.182909
     83          6           0       20.260361   -3.806367    1.565300
     84          6           0       24.313867   -1.620505   -0.042389
     85          7           0       19.808004    1.077881   -0.342253
     86          6           0       20.309680    2.277121   -0.824705
     87          6           0       19.231905    3.427557   -0.918350
     88          6           0       18.023483    2.722832   -0.188450
     89          6           0       18.510609    1.232416   -0.061106
     90          6           0       17.535788    3.207023    1.180206
     91          6           0       18.997772    3.843089   -2.382298
     92          6           0       19.546480    5.177861   -2.812952
     93          1           0       18.697597    5.988104   -3.808678
     94          7           0       19.197058   -1.808131    0.604358
     95          6           0       17.976577   -1.217414    0.498736
     96          6           0       17.016283   -2.201832    1.034600
     97          6           0       17.729085   -3.305269    1.529098
     98          6           0       19.088849   -3.047586    1.252544
     99          6           0       15.562424   -1.998123    0.892534
    100          6           0       17.241182   -4.529411    2.246988
    101          8           0       17.985030   -5.505723    2.542145
    102          6           0       15.897368   -4.705499    2.700444
    103          7           0       22.073275   -2.473278    0.581762
    104          6           0       21.575256   -3.592296    1.175327
    105          6           0       22.606218   -4.602208    1.494463
    106          6           0       23.916957   -3.946144    0.929336
    107          6           0       23.418660   -2.607554    0.532228
    108          6           0       22.835758   -5.164279    2.928311
    109          6           0       24.683894   -4.797253   -0.199317
    110          6           0       24.306537   -4.741498   -1.709493
    111          7           0       22.683568    0.112980   -0.399039
    112          6           0       23.975039   -0.328978   -0.421694
    113          6           0       24.802685    0.631672   -1.009371
    114          6           0       23.912101    1.758873   -1.191183
    115          6           0       22.638227    1.369097   -0.828540
    116          6           0       26.280887    0.504334   -1.372876
    117          6           0       23.878390    3.075318   -1.760678
    118          8           0       24.679029    3.768211   -2.355002
    119          6           0       22.430466    3.606636   -1.472858
    120          6           0       22.472780    4.625837   -0.405571
    121          8           0       21.994187    4.517775    0.744874
    122          8           0       23.123871    5.761079   -0.740790
    123          6           0       23.035688    6.962037    0.158221
    124          1           0       16.609237    0.534582    0.291505
    125          1           0       20.112246   -4.753136    2.089247
    126          1           0       25.362548   -1.841894   -0.253837
    127          1           0       19.421469    4.227110   -0.201427
    128          1           0       17.197121    2.756903   -0.898359
    129          1           0       17.777726    2.471122    1.947396
    130          1           0       16.448356    3.159741    1.145777
    131          1           0       17.894622    4.190096    1.486960
    132          1           0       17.914577    3.921034   -2.482744
    133          1           0       19.323252    3.023690   -3.023193
    134          1           0       20.514460    4.996064   -3.280669
    135          1           0       19.783649    5.871772   -2.006394
    136          1           0       15.226118   -2.826298    0.270071
    137          1           0       15.186443   -1.066065    0.468653
    138          1           0       15.085167   -2.087979    1.868335
    139          1           0       15.624614   -3.755400    3.159059
    140          1           0       15.797194   -5.631455    3.265250
    141          1           0       15.203900   -4.762086    1.861358
    142          1           0       22.258379   -5.410186    0.851480
    143          1           0       24.612702   -3.770111    1.748889
    144          1           0       22.591277   -6.224354    2.996506
    145          1           0       22.190788   -4.667731    3.654054
    146          1           0       23.845064   -4.995397    3.303480
    147          1           0       24.480330   -5.821047    0.115265
    148          1           0       25.716866   -4.524269    0.016963
    149          1           0       23.589363   -3.968330   -1.983914
    150          1           0       24.061868   -5.695324   -2.177746
    151          1           0       25.254115   -4.515692   -2.196818
    152          1           0       26.884851    1.279659   -0.900331
    153          1           0       26.368898    0.671971   -2.446183
    154          1           0       26.707855   -0.483337   -1.196814
    155          1           0       22.118727    4.182775   -2.344224
    156          1           0       23.410415    7.689660   -0.561809
    157          1           0       23.636192    6.905429    1.065531
    158          1           0       21.997340    7.130240    0.445626
 ---------------------------------------------------------------------

 SCF Done:  E(RCAM-B3LYP) =  -4069.80369234     A.U. after   19 cycles

 Excitation energies and oscillator strengths:

 Excited State   1:      Singlet-A      1.6891 eV  734.04 nm  f=0.3697  <S**2>=0.000
     309 -> 315       -0.16430
     311 -> 313        0.68767
     309 <- 315       -0.10169
 This state for optimization and/or second-order correction.
 Total Energy, E(TD-HF/TD-DFT) =  -4069.74161991
 Copying the excited state density for this state as the 1-particle RhoCI density.

 Excited State   2:      Singlet-A      1.7036 eV  727.79 nm  f=0.3782  <S**2>=0.000
     310 -> 316        0.17717
     312 -> 314        0.68449
     310 <- 316        0.10750

 Excited State   3:      Singlet-A      2.2075 eV  561.65 nm  f=0.1438  <S**2>=0.000
     310 -> 314        0.65079
     312 -> 316       -0.26113

 Excited State   4:      Singlet-A      2.2122 eV  560.46 nm  f=0.1048  <S**2>=0.000
     309 -> 313        0.64104
     311 -> 315        0.27959

 Excited State   5:      Singlet-A      3.1152 eV  398.00 nm  f=0.0000  <S**2>=0.000
     312 -> 313        0.70710

 The electronic state is 1-A.
 Alpha  occ. eigenvalues --  -46.89246 -46.87489 -19.25589 -19.24026 -19.19545
 Alpha  occ. eigenvalues --  -19.19071 -19.18221 -19.18185 -19.17925 -19.17908
 Alpha  occ. eigenvalues --  -14.42136 -14.41962 -14.41931 -14.41819 -14.40334
 Alpha  occ. eigenvalues --  -14.39491 -14.38613 -14.38319 -10.38690 -10.38500
 Alpha  occ. eigenvalues --  -10.35778 -10.34473 -10.34139 -10.34097 -10.32341
 Alpha  occ. eigenvalues --  -10.31977 -10.31743 -10.31733 -10.31007 -10.30916
 Alpha  occ. eigenvalues --  -10.30763 -10.30705 -10.30552 -10.30426 -10.30276
 Alpha  occ. eigenvalues --  -10.30084 -10.29994 -10.29984 -10.29396 -10.28864
 Alpha  occ. eigenvalues --  -10.28814 -10.28515 -10.28413 -10.28412 -10.28324
 Alpha  occ. eigenvalues --  -10.28251 -10.28236 -10.28183 -10.28105 -10.28061
 Alpha  occ. eigenvalues --  -10.27873 -10.27805 -10.27794 -10.27714 -10.27690
 Alpha  occ. eigenvalues --  -10.27624 -10.27606 -10.27595 -10.27462 -10.27339
 Alpha  occ. eigenvalues --  -10.27287 -10.27215 -10.27211 -10.27191 -10.27107
 Alpha  occ. eigenvalues --  -10.27053 -10.27016 -10.26863 -10.26834 -10.26708
 Alpha  occ. eigenvalues --  -10.26693 -10.26676 -10.26654 -10.26639 -10.26606
 Alpha  occ. eigenvalues --  -10.26299 -10.26278 -10.26244 -10.26244 -10.25954
 Alpha  occ. eigenvalues --  -10.25875 -10.25849 -10.25683 -10.25618 -10.24569
 Alpha  occ. eigenvalues --  -10.24457  -3.17819  -3.16204  -1.92707  -1.92289
 Alpha  occ. eigenvalues --   -1.92111  -1.91114  -1.90663  -1.90508  -1.15977
 Alpha  occ. eigenvalues --   -1.15096  -1.11979  -1.09487  -1.08132  -1.07906
 Alpha  occ. eigenvalues --   -1.07075  -1.06456  -1.05091  -1.04799  -1.04615
 Alpha  occ. eigenvalues --   -1.04045  -1.03961  -1.03197  -1.02852  -1.02186
 Alpha  occ. eigenvalues --   -0.93041  -0.92523  -0.89754  -0.88993  -0.88712
 Alpha  occ. eigenvalues --   -0.88408  -0.88285  -0.88258  -0.87532  -0.87324
 Alpha  occ. eigenvalues --   -0.86966  -0.86901  -0.86652  -0.86057  -0.84336
 Alpha  occ. eigenvalues --   -0.84324  -0.83828  -0.83605  -0.82761  -0.82421
 Alpha  occ. eigenvalues --   -0.82300  -0.81852  -0.80945  -0.80939  -0.80504
 Alpha  occ. eigenvalues --   -0.80372  -0.78513  -0.78447  -0.77865  -0.77469
 Alpha  occ. eigenvalues --   -0.76833  -0.76825  -0.76169  -0.75998  -0.75516
 Alpha  occ. eigenvalues --   -0.75254  -0.73071  -0.72715  -0.72247  -0.71292
 Alpha  occ. eigenvalues --   -0.70509  -0.70065  -0.69338  -0.68731  -0.68176
 Alpha  occ. eigenvalues --   -0.67960  -0.67775  -0.67056  -0.66846  -0.65384
 Alpha  occ. eigenvalues --   -0.65159  -0.65045  -0.64876  -0.64569  -0.64486
 Alpha  occ. eigenvalues --   -0.64323  -0.62447  -0.61451  -0.60539  -0.59916
 Alpha  occ. eigenvalues --   -0.59647  -0.59602  -0.59208  -0.59107  -0.58826
 Alpha  occ. eigenvalues --   -0.58551  -0.58000  -0.57754  -0.57262  -0.57021
 Alpha  occ. eigenvalues --   -0.56718  -0.56234  -0.56126  -0.55695  -0.55596
 Alpha  occ. eigenvalues --   -0.55067  -0.54852  -0.54402  -0.54167  -0.53785
 Alpha  occ. eigenvalues --   -0.53615  -0.53206  -0.52971  -0.52864  -0.52686
 Alpha  occ. eigenvalues --   -0.52484  -0.52416  -0.52396  -0.52035  -0.51999
 Alpha  occ. eigenvalues --   -0.51842  -0.51724  -0.51257  -0.51207  -0.51028
 Alpha  occ. eigenvalues --   -0.50796  -0.50675  -0.50433  -0.50307  -0.50237
 Alpha  occ. eigenvalues --   -0.50123  -0.49942  -0.49716  -0.49713  -0.49593
 Alpha  occ. eigenvalues --   -0.49382  -0.49165  -0.48962  -0.48898  -0.48764
 Alpha  occ. eigenvalues --   -0.48649  -0.48437  -0.48361  -0.48146  -0.47885
 Alpha  occ. eigenvalues --   -0.47795  -0.47722  -0.47706  -0.47431  -0.47184
 Alpha  occ. eigenvalues --   -0.46947  -0.46838  -0.46712  -0.46453  -0.46309
 Alpha  occ. eigenvalues --   -0.46247  -0.46206  -0.45948  -0.45852  -0.45835
 Alpha  occ. eigenvalues --   -0.45664  -0.45401  -0.45360  -0.45222  -0.45131
 Alpha  occ. eigenvalues --   -0.45128  -0.44760  -0.44691  -0.44441  -0.44320
 Alpha  occ. eigenvalues --   -0.44233  -0.44206  -0.44007  -0.43937  -0.43776
 Alpha  occ. eigenvalues --   -0.43750  -0.43402  -0.43372  -0.43186  -0.42940
 Alpha  occ. eigenvalues --   -0.42851  -0.42719  -0.42630  -0.42414  -0.42212
 Alpha  occ. eigenvalues --   -0.41983  -0.41922  -0.41559  -0.41477  -0.41441
 Alpha  occ. eigenvalues --   -0.41187  -0.41083  -0.40787  -0.40752  -0.40290
 Alpha  occ. eigenvalues --   -0.40096  -0.39934  -0.39663  -0.39640  -0.38880
 Alpha  occ. eigenvalues --   -0.38648  -0.38308  -0.38162  -0.37776  -0.37733
 Alpha  occ. eigenvalues --   -0.36869  -0.36841  -0.36730  -0.36513  -0.36463
 Alpha  occ. eigenvalues --   -0.36346  -0.35563  -0.34989  -0.34264  -0.33621
 Alpha  occ. eigenvalues --   -0.33410  -0.33146  -0.32840  -0.31929  -0.31402
 Alpha  occ. eigenvalues --   -0.30951  -0.30621  -0.30568  -0.30076  -0.29991
 Alpha  occ. eigenvalues --   -0.29853  -0.29277  -0.28981  -0.24206  -0.23598
 Alpha  occ. eigenvalues --   -0.21185  -0.21068
 Alpha virt. eigenvalues --   -0.08820  -0.08647  -0.01822  -0.01266   0.00182
 Alpha virt. eigenvalues --    0.00729   0.01642   0.02338   0.02405   0.03609
 Alpha virt. eigenvalues --    0.04601   0.05089   0.05684   0.05781   0.05816

 Mulliken charges:
               1
     1  Mg  11.999655
     2  C    5.982326
     3  C    6.014696
     4  C    6.023671
     5  C    5.993601
     6  N    6.991725
     7  C    6.036543
     8  C    5.988851
     9  C    6.014978
    10  C    5.965622
    11  C    6.003361
    12  C    6.000802
    13  C    5.997883
    14  H    1.009252
    15  N    7.009908
    16  C    5.956164
    17  C    5.978323
    18  C    5.985953
    19  C    5.960757
    20  C    6.005563
    21  C    5.991902
    22  O    7.981401
    23  C    6.002232
    24  N    7.000964
    25  C    5.965427
    26  C    6.010046
    27  C    5.989141
    28  C    6.033697
    29  C    6.002999
    30  C    5.992494
    31  C    5.998766
    32  N    6.998455
    33  C    6.032520
    34  C    6.032969
    35  C    6.000110
    36  C    6.028548
    37  C    5.998620
    38  C    6.014960
    39  O    8.030240
    40  C    5.999082
    41  C    6.004292
    42  O    8.006827
    43  O    7.998742
    44  C    5.998672
    45  H    0.989667
    46  H    0.994156
    47  H    1.008984
    48  H    0.997097
    49  H    0.993872
    50  H    0.996067
    51  H    0.983655
    52  H    1.000380
    53  H    1.011682
    54  H    0.994587
    55  H    0.997704
    56  H    0.999478
    57  H    0.980703
    58  H    0.980771
    59  H    0.981163
    60  H    0.989207
    61  H    0.988653
    62  H    0.988646
    63  H    1.000831
    64  H    1.001211
    65  H    0.999232
    66  H    1.005693
    67  H    0.989898
    68  H    1.002826
    69  H    1.012895
    70  H    1.006199
    71  H    0.998223
    72  H    0.995912
    73  H    1.019732
    74  H    1.017333
    75  H    1.019509
    76  H    1.008630
    77  H    0.999780
    78  H    1.006682
    79  H    1.006203
    80  Mg  12.000015
    81  C    5.999275
    82  C    6.000594
    83  C    6.000740
    84  C    5.999939
    85  N    6.999839
    86  C    6.000907
    87  C    5.999638
    88  C    6.000182
    89  C    5.999182
    90  C    6.000087
    91  C    5.999881
    92  C    5.999940
    93  H    1.000185
    94  N    7.000297
    95  C    5.998656
    96  C    5.999120
    97  C    5.999847
    98  C    5.998841
    99  C    6.000262
   100  C    5.999637
   101  O    7.999314
   102  C    6.000149
   103  N    7.000302
   104  C    5.998699
   105  C    6.000489
   106  C    5.999577
   107  C    6.000970
   108  C    5.999964
   109  C    5.999865
   110  C    5.999923
   111  N    6.999802
   112  C    6.000907
   113  C    6.000820
   114  C    6.000168
   115  C    6.000915
   116  C    5.999861
   117  C    6.000437
   118  O    8.000831
   119  C    6.000183
   120  C    5.999997
   121  O    8.000262
   122  O    7.999966
   123  C    5.999933
   124  H    0.999623
   125  H    0.999783
   126  H    1.000447
   127  H    1.000111
   128  H    0.999931
   129  H    1.000104
   130  H    0.999944
   131  H    0.999602
   132  H    1.000236
   133  H    1.000048
   134  H    0.999887
   135  H    0.999979
   136  H    0.999359
   137  H    0.999313
   138  H    0.999241
   139  H    0.999850
   140  H    0.999581
   141  H    0.999790
   142  H    1.000019
   143  H    1.000038
   144  H    1.000019
   145  H    1.000050
   146  H    0.999709
   147  H    1.000401
   148  H    0.999986
   149  H    0.999957
   150  H    1.000304
   151  H    0.999990
   152  H    1.000592
   153  H    1.000583
   154  H    1.000550
   155  H    1.000248
   156  H    1.000105
   157  H    1.000082
   158  H    1.000140
 Sum of Mulliken charges = 624.00000

 Dipole moment (field-independent basis, Debye):
    X=              5.9299    Y=              5.2805    Z=              7.2379  Tot=             10.7440
 Quadrupole moment (field-independent basis, Debye-Ang):
   XX=           -231.5204   YY=              1.4868   ZZ=             -2.0026
   XY=           -110.0093   XZ=           -162.2690   YZ=              0.3279

 Normal termination of Gaussian 16 at Thu Sep 23 02:46:44 2021.
