 Gaussian 16, Revision A.03,
 Gaussian 16:  ES64L-G16RevA.03 25-Dec-2016

 ----------------------------------------------------------
 #p cam-b3lyp/Def2SVP td=(nstates=5) density=(transition=1)
 ----------------------------------------------------------

 --------------------------------
 TDDFT excited states in gaussian
 --------------------------------
 Symbolic Z-matrix:
 Charge =  0 Multiplicity = 1

                         Standard orientation:
 ---------------------------------------------------------------------
 Center     Atomic      Atomic             Coordinates (Angstroms)
 Number     Number       Type             X           Y           Z
 ---------------------------------------------------------------------
      1         12           0       13.776135   -0.219495    0.204546
      2          6           0       11.240025   -1.498379   -1.666392
      3          6           0       14.808109    1.647140   -2.616658
      4          6           0       15.498509    1.765361    2.265604
      5          6           0       12.333722   -1.730050    3.150779
      6          7           0       13.095471   -0.013729   -1.851160
      7          6           0       12.084879   -0.569174   -2.433317
      8          6           0       12.080047   -0.372835   -3.991059
      9          6           0       13.415194    0.406491   -4.297986
     10          6           0       13.876364    0.704520   -2.829735
     11          6           0       14.383701   -0.261954   -5.274722
     12          6           0       10.700065    0.341918   -4.521802
     13          6           0        9.889947    1.179354   -3.545498
     14          1           0        8.876571    2.204237   -4.054961
     15          7           0       14.977560    1.478673   -0.143470
     16          6           0       15.335882    2.045678   -1.342844
     17          6           0       16.150793    3.158465   -1.112592
     18          6           0       16.354673    3.265786    0.317220
     19          6           0       15.557945    2.155638    0.902921
     20          6           0       16.798628    3.901427   -2.266597
     21          6           0       17.215923    4.350665    0.988865
     22          8           0       17.772047    5.193601    0.249553
     23          6           0       17.440039    4.487523    2.399002
     24          7           0       13.785585    0.102580    2.476019
     25          6           0       14.736119    0.845363    2.967962
     26          6           0       14.880356    0.706448    4.510256
     27          6           0       13.903155   -0.454072    4.798788
     28          6           0       13.259350   -0.788440    3.392745
     29          6           0       16.255714    0.390127    4.976134
     30          6           0       12.828587   -0.095167    5.930137
     31          6           0       12.977142   -0.869041    7.304239
     32          7           0       12.215522   -1.467798    0.710483
     33          6           0       11.748833   -2.038079    1.901440
     34          6           0       10.587374   -2.925436    1.582081
     35          6           0       10.361784   -2.686405    0.219042
     36          6           0       11.343451   -1.774366   -0.270248
     37          6           0        9.814947   -3.779073    2.464565
     38          6           0        9.466208   -3.016970   -0.792359
     39          8           0        8.477453   -3.762407   -0.853390
     40          6           0       10.035159   -2.348324   -2.075985
     41          6           0       10.269099   -3.455131   -3.131509
     42          8           0        9.845725   -3.492726   -4.274263
     43          8           0       11.059027   -4.476031   -2.648728
     44          6           0       11.325315   -5.610195   -3.541482
     45          1           0       15.018535    2.213797   -3.525921
     46          1           0       16.158513    2.271471    2.972918
     47          1           0       12.016082   -2.311823    4.018466
     48          1           0       12.253021   -1.360006   -4.420462
     49          1           0       13.226559    1.403231   -4.697976
     50          1           0       15.301078   -0.533309   -4.752700
     51          1           0       14.670158    0.402238   -6.090953
     52          1           0       13.996417   -1.132862   -5.803599
     53          1           0       10.161380   -0.516146   -4.924546
     54          1           0       10.833200    1.079345   -5.313661
     55          1           0       10.659782    1.689214   -2.966863
     56          1           0        9.421757    0.458754   -2.874709
     57          1           0       17.882980    4.009533   -2.302243
     58          1           0       16.317349    4.874632   -2.366051
     59          1           0       16.544247    3.395857   -3.197950
     60          1           0       17.935841    3.667270    2.917799
     61          1           0       16.490906    4.497471    2.933921
     62          1           0       17.898871    5.435137    2.679414
     63          1           0       14.634956    1.563469    5.137331
     64          1           0       14.406131   -1.388410    5.048334
     65          1           0       16.792734    1.223534    5.428791
     66          1           0       16.912906    0.193850    4.128222
     67          1           0       16.232442   -0.442840    5.678600
     68          1           0       11.845866   -0.399283    5.567211
     69          1           0       12.849561    0.943204    6.258189
     70          1           0       12.890212   -0.165091    8.130934
     71          1           0       14.001376   -1.236142    7.370927
     72          1           0       12.124344   -1.547446    7.334951
     73          1           0       10.528890   -4.094296    3.225859
     74          1           0        9.446115   -4.653887    1.927862
     75          1           0        8.954528   -3.189963    2.780561
     76          1           0        9.282523   -1.805002   -2.646870
     77          1           0       11.561716   -6.479925   -2.928176
     78          1           0       12.173409   -5.541274   -4.222527
     79          1           0       10.514645   -5.820837   -4.239630
     80         12           0      -13.223982    1.021412   -0.368362
     81          6           0      -13.765289   -2.491820    0.077748
     82          6           0       -9.815649    0.213390   -0.785415
     83          6           0      -12.439976    4.185382   -0.087654
     84          6           0      -16.485344    1.577435    0.417018
     85          7           0      -11.984826   -0.932283   -0.399799
     86          6           0      -12.498195   -2.181917   -0.298978
     87          6           0      -11.397400   -3.184645   -0.603321
     88          6           0      -10.098520   -2.390783   -0.919323
     89          6           0      -10.642284   -0.961640   -0.729452
     90          6           0       -8.837913   -2.789787    0.036557
     91          6           0      -11.753581   -4.137230   -1.823790
     92          6           0      -11.523097   -5.634074   -1.613358
     93          1           0      -10.338880   -6.156558   -0.704797
     94          7           0      -11.355869    2.060552   -0.376537
     95          6           0      -10.155086    1.561899   -0.581059
     96          6           0       -9.222729    2.652260   -0.523857
     97          6           0       -9.922634    3.884259   -0.469721
     98          6           0      -11.268532    3.414314   -0.270112
     99          6           0       -7.734099    2.482072   -0.822480
    100          6           0       -9.526882    5.340905   -0.653979
    101          8           0      -10.303794    6.264156   -0.492635
    102          6           0       -8.116821    5.589690   -1.114169
    103          7           0      -14.254062    2.593483    0.446754
    104          6           0      -13.759444    3.884309    0.251255
    105          6           0      -14.849901    4.981486    0.387666
    106          6           0      -16.130183    4.063770    0.382148
    107          6           0      -15.600883    2.630050    0.413986
    108          6           0      -14.628296    5.818650    1.655739
    109          6           0      -17.019989    4.213738   -0.941117
    110          6           0      -18.309107    4.959410   -0.850822
    111          7           0      -14.815178   -0.156336    0.024493
    112          6           0      -16.094923    0.227172    0.362897
    113          6           0      -16.946387   -0.901599    0.729148
    114          6           0      -16.058489   -2.031314    0.626386
    115          6           0      -14.776055   -1.515171    0.324989
    116          6           0      -18.417834   -0.812616    0.915863
    117          6           0      -15.970067   -3.483001    0.662792
    118          8           0      -16.896592   -4.286596    0.874009
    119          6           0      -14.418249   -3.866189    0.327490
    120          6           0      -13.937531   -4.546657    1.519556
    121          8           0      -13.964811   -4.060925    2.629180
    122          8           0      -13.455509   -5.761201    1.230582
    123          6           0      -12.951090   -6.692937    2.287551
    124          1           0       -8.762012    0.017027   -0.994152
    125          1           0      -12.360331    5.232526   -0.389163
    126          1           0      -17.541572    1.800130    0.580435
    127          1           0      -11.234506   -3.764010    0.305485
    128          1           0       -9.709640   -2.622728   -1.910970
    129          1           0       -8.968799   -3.787797    0.454934
    130          1           0       -8.815377   -2.014757    0.803103
    131          1           0       -7.912525   -2.739743   -0.537016
    132          1           0      -11.293603   -3.864566   -2.772632
    133          1           0      -12.820866   -4.065415   -2.032836
    134          1           0      -11.419109   -6.161613   -2.561743
    135          1           0      -12.482434   -5.968636   -1.218575
    136          1           0       -7.454115    2.722224   -1.848304
    137          1           0       -7.368191    1.506770   -0.500132
    138          1           0       -7.214740    3.172234   -0.158002
    139          1           0       -7.749936    4.905044   -1.879457
    140          1           0       -7.367123    5.565323   -0.324544
    141          1           0       -8.093991    6.512277   -1.694241
    142          1           0      -14.773994    5.622898   -0.489937
    143          1           0      -16.730986    4.325156    1.253346
    144          1           0      -13.671475    5.647513    2.148804
    145          1           0      -15.377294    5.601825    2.416565
    146          1           0      -14.711001    6.876732    1.405147
    147          1           0      -17.322598    3.271644   -1.398234
    148          1           0      -16.467039    4.654589   -1.769755
    149          1           0      -18.271025    5.853561   -1.471720
    150          1           0      -18.369868    5.212958    0.207699
    151          1           0      -19.135248    4.336720   -1.193981
    152          1           0      -18.917470   -1.716328    0.568565
    153          1           0      -18.728235    0.119566    0.444217
    154          1           0      -18.589159   -0.719228    1.989128
    155          1           0      -14.343746   -4.542061   -0.523354
    156          1           0      -13.693417   -6.773726    3.081823
    157          1           0      -12.018393   -6.351666    2.737345
    158          1           0      -12.637998   -7.663313    1.903255
 ---------------------------------------------------------------------

 SCF Done:  E(RCAM-B3LYP) =  -4069.77383462     A.U. after   19 cycles

 Excitation energies and oscillator strengths:

 Excited State   1:      Singlet-A      1.6833 eV  736.55 nm  f=0.4636  <S**2>=0.000
     310 -> 316       -0.17244
     312 -> 314        0.68536
     310 <- 316       -0.10686
 This state for optimization and/or second-order correction.
 Total Energy, E(TD-HF/TD-DFT) =  -4069.71197371
 Copying the excited state density for this state as the 1-particle RhoCI density.

 Excited State   2:      Singlet-A      1.7057 eV  726.89 nm  f=0.3777  <S**2>=0.000
     309 -> 315        0.16051
     311 -> 313        0.68709
     309 <- 315        0.10251

 Excited State   3:      Singlet-A      2.1994 eV  563.73 nm  f=0.1324  <S**2>=0.000
     310 -> 314        0.65031
     312 -> 316        0.26290

 Excited State   4:      Singlet-A      2.2508 eV  550.86 nm  f=0.1191  <S**2>=0.000
     309 -> 313        0.64225
     311 -> 315       -0.27236

 Excited State   5:      Singlet-A      2.7123 eV  457.11 nm  f=0.0000  <S**2>=0.000
     312 -> 313        0.70706

 The electronic state is 1-A.
 Alpha  occ. eigenvalues --  -46.90400 -46.88554 -19.25200 -19.24993 -19.20212
 Alpha  occ. eigenvalues --  -19.19461 -19.19064 -19.18949 -19.18457 -19.17501
 Alpha  occ. eigenvalues --  -14.43285 -14.42011 -14.41812 -14.41647 -14.40626
 Alpha  occ. eigenvalues --  -14.39908 -14.39309 -14.39021 -10.39819 -10.38440
 Alpha  occ. eigenvalues --  -10.35718 -10.35397 -10.34811 -10.34338 -10.33090
 Alpha  occ. eigenvalues --  -10.32480 -10.31856 -10.31602 -10.31350 -10.31263
 Alpha  occ. eigenvalues --  -10.30837 -10.30829 -10.30733 -10.30683 -10.30465
 Alpha  occ. eigenvalues --  -10.30453 -10.30198 -10.29723 -10.29586 -10.29517
 Alpha  occ. eigenvalues --  -10.29388 -10.29360 -10.29116 -10.29111 -10.28959
 Alpha  occ. eigenvalues --  -10.28902 -10.28669 -10.28547 -10.28529 -10.28501
 Alpha  occ. eigenvalues --  -10.28386 -10.28127 -10.28113 -10.27952 -10.27878
 Alpha  occ. eigenvalues --  -10.27800 -10.27741 -10.27660 -10.27647 -10.27541
 Alpha  occ. eigenvalues --  -10.27249 -10.27179 -10.27155 -10.27126 -10.27017
 Alpha  occ. eigenvalues --  -10.26996 -10.26936 -10.26929 -10.26793 -10.26575
 Alpha  occ. eigenvalues --  -10.26504 -10.26491 -10.26338 -10.26225 -10.26160
 Alpha  occ. eigenvalues --  -10.26080 -10.26010 -10.25981 -10.25753 -10.25724
 Alpha  occ. eigenvalues --  -10.25700 -10.25513 -10.25503 -10.25411 -10.24991
 Alpha  occ. eigenvalues --  -10.24973  -3.18807  -3.17182  -1.93685  -1.93296
 Alpha  occ. eigenvalues --   -1.93074  -1.92048  -1.91643  -1.91493  -1.16499
 Alpha  occ. eigenvalues --   -1.16238  -1.10777  -1.09151  -1.08376  -1.07694
 Alpha  occ. eigenvalues --   -1.07451  -1.07307  -1.05121  -1.04596  -1.04584
 Alpha  occ. eigenvalues --   -1.03729  -1.03444  -1.03077  -1.02337  -1.01819
 Alpha  occ. eigenvalues --   -0.93090  -0.92097  -0.89758  -0.89508  -0.89075
 Alpha  occ. eigenvalues --   -0.88577  -0.88413  -0.88201  -0.88024  -0.87893
 Alpha  occ. eigenvalues --   -0.87040  -0.86951  -0.86342  -0.85384  -0.84733
 Alpha  occ. eigenvalues --   -0.84272  -0.84159  -0.84066  -0.83043  -0.82598
 Alpha  occ. eigenvalues --   -0.82591  -0.81760  -0.81552  -0.81219  -0.80631
 Alpha  occ. eigenvalues --   -0.80361  -0.78566  -0.78194  -0.77615  -0.77484
 Alpha  occ. eigenvalues --   -0.77059  -0.76797  -0.76441  -0.76210  -0.75365
 Alpha  occ. eigenvalues --   -0.74774  -0.73488  -0.72420  -0.72041  -0.71348
 Alpha  occ. eigenvalues --   -0.69654  -0.68999  -0.68683  -0.68503  -0.67745
 Alpha  occ. eigenvalues --   -0.67585  -0.66927  -0.66901  -0.66115  -0.65748
 Alpha  occ. eigenvalues --   -0.65499  -0.65089  -0.64959  -0.64633  -0.64559
 Alpha  occ. eigenvalues --   -0.64434  -0.63431  -0.62361  -0.60987  -0.60434
 Alpha  occ. eigenvalues --   -0.60044  -0.59164  -0.59031  -0.58752  -0.58609
 Alpha  occ. eigenvalues --   -0.58425  -0.58112  -0.57979  -0.57406  -0.57344
 Alpha  occ. eigenvalues --   -0.56415  -0.56014  -0.55704  -0.55696  -0.55695
 Alpha  occ. eigenvalues --   -0.55095  -0.54907  -0.54636  -0.54305  -0.53954
 Alpha  occ. eigenvalues --   -0.53584  -0.53443  -0.53341  -0.53247  -0.52968
 Alpha  occ. eigenvalues --   -0.52923  -0.52846  -0.52685  -0.52551  -0.52324
 Alpha  occ. eigenvalues --   -0.52305  -0.52026  -0.51573  -0.51341  -0.51218
 Alpha  occ. eigenvalues --   -0.51132  -0.51017  -0.50764  -0.50520  -0.50461
 Alpha  occ. eigenvalues --   -0.50355  -0.50011  -0.49990  -0.49903  -0.49653
 Alpha  occ. eigenvalues --   -0.49305  -0.49203  -0.49083  -0.48961  -0.48909
 Alpha  occ. eigenvalues --   -0.48687  -0.48636  -0.48497  -0.48381  -0.48337
 Alpha  occ. eigenvalues --   -0.48065  -0.47743  -0.47654  -0.47486  -0.47359
 Alpha  occ. eigenvalues --   -0.47271  -0.46922  -0.46839  -0.46683  -0.46527
 Alpha  occ. eigenvalues --   -0.46268  -0.46132  -0.46053  -0.45968  -0.45825
 Alpha  occ. eigenvalues --   -0.45808  -0.45336  -0.45242  -0.45097  -0.45036
 Alpha  occ. eigenvalues --   -0.44952  -0.44685  -0.44539  -0.44446  -0.44176
 Alpha  occ. eigenvalues --   -0.43914  -0.43756  -0.43676  -0.43527  -0.43236
 Alpha  occ. eigenvalues --   -0.42947  -0.42776  -0.42755  -0.42690  -0.42542
 Alpha  occ. eigenvalues --   -0.42403  -0.42337  -0.42163  -0.42092  -0.41778
 Alpha  occ. eigenvalues --   -0.41570  -0.41442  -0.41345  -0.41224  -0.41037
 Alpha  occ. eigenvalues --   -0.40947  -0.40930  -0.40797  -0.40488  -0.40231
 Alpha  occ. eigenvalues --   -0.40060  -0.39910  -0.39664  -0.39248  -0.39145
 Alpha  occ. eigenvalues --   -0.38810  -0.38336  -0.38122  -0.37928  -0.37854
 Alpha  occ. eigenvalues --   -0.36955  -0.36907  -0.36612  -0.36489  -0.36484
 Alpha  occ. eigenvalues --   -0.36157  -0.36075  -0.34903  -0.34388  -0.34380
 Alpha  occ. eigenvalues --   -0.34123  -0.33701  -0.32945  -0.31694  -0.31626
 Alpha  occ. eigenvalues --   -0.31173  -0.31168  -0.31003  -0.30677  -0.30248
 Alpha  occ. eigenvalues --   -0.30019  -0.29330  -0.29099  -0.25020  -0.23767
 Alpha  occ. eigenvalues --   -0.21746  -0.20895
 Alpha virt. eigenvalues --   -0.09606  -0.08653  -0.01975  -0.01052  -0.00112
 Alpha virt. eigenvalues --    0.00183   0.00551   0.01844   0.02135   0.02141
 Alpha virt. eigenvalues --    0.04847   0.04918   0.05178   0.05339   0.05587

 Mulliken charges:
               1
     1  Mg  12.000195
     2  C    5.999077
     3  C    5.997148
     4  C    6.000549
     5  C    6.002628
     6  N    6.998354
     7  C    5.998267
     8  C    6.000491
     9  C    5.999070
    10  C    6.003436
    11  C    5.999995
    12  C    6.000085
    13  C    6.000827
    14  H    0.998396
    15  N    6.999864
    16  C    6.003994
    17  C    6.000471
    18  C    6.001649
    19  C    6.002128
    20  C    5.999458
    21  C    6.000904
    22  O    8.001992
    23  C    5.999361
    24  N    7.001714
    25  C    6.000781
    26  C    5.999242
    27  C    6.000574
    28  C    5.997045
    29  C    5.999804
    30  C    5.999973
    31  C    6.000041
    32  N    7.000150
    33  C    5.995971
    34  C    5.998623
    35  C    5.999076
    36  C    5.998601
    37  C    6.000138
    38  C    5.998613
    39  O    7.997218
    40  C    6.000508
    41  C    5.999660
    42  O    7.999021
    43  O    8.000344
    44  C    6.000267
    45  H    1.000370
    46  H    1.001247
    47  H    0.999837
    48  H    1.000080
    49  H    0.999902
    50  H    1.000021
    51  H    1.000075
    52  H    1.000867
    53  H    1.000178
    54  H    0.999276
    55  H    0.999327
    56  H    1.000720
    57  H    1.001427
    58  H    1.001301
    59  H    1.001601
    60  H    1.000999
    61  H    1.000610
    62  H    1.001226
    63  H    1.000269
    64  H    1.000269
    65  H    1.000058
    66  H    0.999828
    67  H    1.001071
    68  H    1.000247
    69  H    0.999370
    70  H    0.999825
    71  H    0.999905
    72  H    1.000284
    73  H    0.999017
    74  H    0.999148
    75  H    0.998316
    76  H    0.998626
    77  H    0.999908
    78  H    0.999480
    79  H    0.999615
    80  Mg  11.997505
    81  C    6.024388
    82  C    5.984218
    83  C    5.968027
    84  C    6.011301
    85  N    7.008144
    86  C    5.972492
    87  C    6.010821
    88  C    5.984733
    89  C    6.034041
    90  C    5.999252
    91  C    6.001227
    92  C    6.000815
    93  H    0.992421
    94  N    6.991511
    95  C    6.041378
    96  C    6.025426
    97  C    6.012508
    98  C    6.040662
    99  C    5.995565
   100  C    6.014026
   101  O    8.027021
   102  C    5.991665
   103  N    6.990572
   104  C    6.047647
   105  C    5.988465
   106  C    6.009144
   107  C    5.971938
   108  C    5.996126
   109  C    6.008688
   110  C    6.000479
   111  N    7.000217
   112  C    5.964415
   113  C    5.961521
   114  C    5.999707
   115  C    5.962234
   116  C    6.004963
   117  C    5.985665
   118  O    7.971420
   119  C    5.992533
   120  C    5.994808
   121  O    7.997837
   122  O    7.997959
   123  C    6.002581
   124  H    1.010438
   125  H    1.005278
   126  H    0.987780
   127  H    0.999928
   128  H    1.006165
   129  H    1.013903
   130  H    0.998203
   131  H    1.000449
   132  H    0.990925
   133  H    1.008187
   134  H    0.997610
   135  H    1.006324
   136  H    1.022875
   137  H    1.018900
   138  H    1.018072
   139  H    1.004992
   140  H    1.009923
   141  H    1.015034
   142  H    1.000287
   143  H    0.996735
   144  H    0.995416
   145  H    1.012803
   146  H    1.003227
   147  H    1.005732
   148  H    0.985950
   149  H    0.992676
   150  H    0.997316
   151  H    1.002140
   152  H    0.980724
   153  H    0.980511
   154  H    0.975199
   155  H    0.990675
   156  H    0.999401
   157  H    0.993186
   158  H    0.994971
 Sum of Mulliken charges = 624.00000

 Dipole moment (field-independent basis, Debye):
    X=             10.0732    Y=              6.4191    Z=             -1.6039  Tot=             12.0518
 Quadrupole moment (field-independent basis, Debye-Ang):
   XX=           -229.6881   YY=              9.3050   ZZ=             -0.4105
   XY=            -59.4339   XZ=             21.4598   YZ=              0.3421

 Normal termination of Gaussian 16 at Wed Sep 22 01:25:33 2021.
