 Gaussian 16, Revision A.03,
 Gaussian 16:  ES64L-G16RevA.03 25-Dec-2016

 ----------------------------------------------------------
 #p cam-b3lyp/Def2SVP td=(nstates=5) density=(transition=1)
 ----------------------------------------------------------

 --------------------------------
 TDDFT excited states in gaussian
 --------------------------------
 Symbolic Z-matrix:
 Charge =  0 Multiplicity = 1

                         Standard orientation:
 ---------------------------------------------------------------------
 Center     Atomic      Atomic             Coordinates (Angstroms)
 Number     Number       Type             X           Y           Z
 ---------------------------------------------------------------------
      1         12           0       17.881803   -0.099323    0.072317
      2          6           0       14.389159   -0.174821   -0.529736
      3          6           0       17.953970    2.941155   -1.436957
      4          6           0       20.995688    0.311567    1.373959
      5          6           0       17.502779   -2.940974    2.020162
      6          7           0       16.223722    1.220394   -0.712337
      7          6           0       14.898390    0.987775   -0.968199
      8          6           0       14.273623    2.100210   -1.725235
      9          6           0       15.534907    2.913643   -2.282165
     10          6           0       16.629438    2.356637   -1.437443
     11          6           0       15.731857    2.702177   -3.774639
     12          6           0       13.328769    2.834432   -0.760979
     13          6           0       11.818644    3.020081   -1.211503
     14          1           0       11.153801    4.428887   -1.255700
     15          7           0       19.335738    1.359568   -0.018583
     16          6           0       19.184599    2.521106   -0.788651
     17          6           0       20.452349    3.186268   -0.824954
     18          6           0       21.376864    2.474102    0.011535
     19          6           0       20.596073    1.281851    0.437497
     20          6           0       20.653770    4.436209   -1.671991
     21          6           0       22.811454    2.814488    0.348205
     22          8           0       23.257039    3.809065   -0.294250
     23          6           0       23.734173    2.181298    1.427775
     24          7           0       19.122675   -1.171235    1.510811
     25          6           0       20.380807   -0.812585    1.849015
     26          6           0       21.021666   -1.752841    2.903971
     27          6           0       19.924511   -2.866360    3.022288
     28          6           0       18.731910   -2.248447    2.151207
     29          6           0       22.363409   -2.250214    2.396735
     30          6           0       19.463529   -3.168881    4.415394
     31          6           0       19.860002   -4.535512    4.904325
     32          7           0       16.407589   -1.417255    0.521357
     33          6           0       16.353223   -2.588335    1.287766
     34          6           0       15.172523   -3.266776    1.109615
     35          6           0       14.372537   -2.373826    0.367802
     36          6           0       15.141068   -1.241717    0.106808
     37          6           0       14.956461   -4.703256    1.536454
     38          6           0       13.054541   -2.237682   -0.307393
     39          8           0       12.155038   -3.016991   -0.371060
     40          6           0       13.069615   -0.746440   -0.815574
     41          6           0       12.432693   -0.742046   -2.188146
     42          8           0       11.290636   -0.350380   -2.428459
     43          8           0       13.354451   -1.201975   -3.159782
     44          6           0       12.828527   -1.098084   -4.520607
     45          1           0       18.037542    3.802123   -2.103823
     46          1           0       22.025367    0.350829    1.737096
     47          1           0       17.255217   -3.692505    2.771887
     48          1           0       13.686116    1.693332   -2.548367
     49          1           0       15.355042    3.974889   -2.112476
     50          1           0       15.509918    1.686068   -4.097877
     51          1           0       16.790239    2.834972   -4.001371
     52          1           0       15.199834    3.423359   -4.395041
     53          1           0       13.760051    3.819044   -0.580905
     54          1           0       13.325167    2.425359    0.249343
     55          1           0       11.321726    2.430903   -0.440326
     56          1           0       11.609416    2.436830   -2.107469
     57          1           0       19.876331    5.173969   -1.473436
     58          1           0       20.555786    4.115830   -2.709156
     59          1           0       21.559095    5.020341   -1.501213
     60          1           0       23.931285    1.185960    1.030870
     61          1           0       23.183014    2.128266    2.366735
     62          1           0       24.640686    2.762866    1.597543
     63          1           0       21.213356   -1.277300    3.865521
     64          1           0       20.230073   -3.749037    2.461080
     65          1           0       22.940631   -1.380298    2.082971
     66          1           0       22.181570   -2.902583    1.542055
     67          1           0       22.966062   -2.902012    3.028114
     68          1           0       18.379640   -3.155760    4.529935
     69          1           0       19.779134   -2.478552    5.197413
     70          1           0       20.389105   -4.411710    5.848414
     71          1           0       20.579291   -5.026598    4.248916
     72          1           0       19.029995   -5.237272    4.992978
     73          1           0       14.088210   -5.054166    0.977759
     74          1           0       14.762341   -4.792841    2.605016
     75          1           0       15.881612   -5.212570    1.267566
     76          1           0       12.305725   -0.289494   -0.185408
     77          1           0       13.642654   -0.990741   -5.237514
     78          1           0       12.279297   -0.168734   -4.664634
     79          1           0       12.170287   -1.924832   -4.789058
     80         12           0      -17.796479    0.263899    0.365026
     81          6           0      -14.728837   -0.512751   -1.060022
     82          6           0      -19.031197   -2.711636   -0.632865
     83          6           0      -20.755051    1.200246    1.620011
     84          6           0      -16.471761    3.391583    1.216314
     85          7           0      -16.887474   -1.409613   -0.711332
     86          6           0      -15.647117   -1.566965   -1.107574
     87          6           0      -15.526561   -3.028377   -1.742563
     88          6           0      -16.961054   -3.179571   -2.202811
     89          6           0      -17.722990   -2.408399   -1.078501
     90          6           0      -17.123879   -2.631500   -3.636972
     91          6           0      -14.874626   -4.039019   -0.703891
     92          6           0      -14.280677   -5.303758   -1.331609
     93          1           0      -14.564695   -5.597648   -2.794533
     94          7           0      -19.562685   -0.685550    0.634495
     95          6           0      -19.849837   -1.978738    0.203978
     96          6           0      -21.165641   -2.367219    0.794654
     97          6           0      -21.732182   -1.177859    1.423126
     98          6           0      -20.679662   -0.163399    1.150175
     99          6           0      -21.751491   -3.751628    0.648297
    100          6           0      -23.084373   -0.961094    2.247056
    101          8           0      -23.393453    0.105269    2.789479
    102          6           0      -24.003258   -2.159398    2.362497
    103          7           0      -18.528203    2.028144    1.161188
    104          6           0      -19.775704    2.185932    1.595454
    105          6           0      -20.075008    3.645336    2.057911
    106          6           0      -18.645427    4.200131    2.135626
    107          6           0      -17.790313    3.136238    1.522277
    108          6           0      -21.025052    4.441662    1.120376
    109          6           0      -18.138650    4.799376    3.522317
    110          6           0      -17.208683    3.960641    4.335903
    111          7           0      -16.060539    1.359547   -0.028893
    112          6           0      -15.635250    2.563607    0.421976
    113          6           0      -14.329880    2.898416   -0.023950
    114          6           0      -13.900805    1.678053   -0.634451
    115          6           0      -14.989905    0.838621   -0.578437
    116          6           0      -13.481856    4.141465    0.052865
    117          6           0      -12.837025    0.970352   -1.282475
    118          8           0      -11.707586    1.296561   -1.577841
    119          6           0      -13.245877   -0.527119   -1.456502
    120          6           0      -13.000978   -0.945384   -2.840049
    121          8           0      -13.565528   -0.426283   -3.790940
    122          8           0      -11.930414   -1.865142   -2.980463
    123          6           0      -11.566379   -2.226446   -4.359503
    124          1           0      -19.411601   -3.653828   -1.030096
    125          1           0      -21.743354    1.489330    1.981416
    126          1           0      -16.110005    4.393695    1.454369
    127          1           0      -14.814388   -3.013911   -2.566509
    128          1           0      -17.345315   -4.197909   -2.149852
    129          1           0      -17.338949   -3.537843   -4.204003
    130          1           0      -16.220828   -2.149755   -4.014138
    131          1           0      -18.030593   -2.027101   -3.623396
    132          1           0      -15.620934   -4.363095    0.021987
    133          1           0      -14.038071   -3.491077   -0.269630
    134          1           0      -14.626146   -6.141293   -0.726347
    135          1           0      -13.201895   -5.247661   -1.188141
    136          1           0      -20.972177   -4.514375    0.631244
    137          1           0      -22.401180   -3.928347   -0.208280
    138          1           0      -22.333092   -3.973387    1.542970
    139          1           0      -24.126117   -2.483528    1.329353
    140          1           0      -25.001398   -1.932249    2.735836
    141          1           0      -23.562082   -2.900129    3.029620
    142          1           0      -20.548946    3.661745    3.039225
    143          1           0      -18.590610    4.961372    1.358276
    144          1           0      -20.578188    5.433128    1.042905
    145          1           0      -22.068308    4.517778    1.422903
    146          1           0      -21.068030    3.914730    0.167135
    147          1           0      -19.008110    5.126875    4.092420
    148          1           0      -17.526060    5.678239    3.322531
    149          1           0      -16.238010    4.457078    4.333764
    150          1           0      -16.919377    3.002829    3.901714
    151          1           0      -17.495840    3.849814    5.381599
    152          1           0      -14.020029    4.986080    0.484537
    153          1           0      -13.049490    4.335483   -0.929154
    154          1           0      -12.639939    4.113921    0.744950
    155          1           0      -12.679403   -1.181028   -0.793999
    156          1           0      -10.867138   -3.057426   -4.449099
    157          1           0      -11.121403   -1.308158   -4.743670
    158          1           0      -12.513276   -2.386696   -4.873727
 ---------------------------------------------------------------------

 SCF Done:  E(RCAM-B3LYP) =  -4069.81843392     A.U. after   19 cycles

 Excitation energies and oscillator strengths:

 Excited State   1:      Singlet-A      1.6837 eV  736.39 nm  f=0.3687  <S**2>=0.000
     309 -> 315       -0.17389
     311 -> 313        0.68682
     309 <- 315       -0.10792
 This state for optimization and/or second-order correction.
 Total Energy, E(TD-HF/TD-DFT) =  -4069.75655958
 Copying the excited state density for this state as the 1-particle RhoCI density.

 Excited State   2:      Singlet-A      1.7354 eV  714.46 nm  f=0.3885  <S**2>=0.000
     310 -> 316        0.17785
     312 -> 314        0.68644
     310 <- 316        0.10693

 Excited State   3:      Singlet-A      2.2151 eV  559.71 nm  f=0.1590  <S**2>=0.000
     310 -> 314        0.65368
     312 -> 316       -0.25690

 Excited State   4:      Singlet-A      2.2195 eV  558.62 nm  f=0.1516  <S**2>=0.000
     309 -> 313        0.64740
     311 -> 315        0.26624

 Excited State   5:      Singlet-A      3.0076 eV  412.23 nm  f=0.0000  <S**2>=0.000
     312 -> 313        0.70709

 The electronic state is 1-A.
 Alpha  occ. eigenvalues --  -46.88987 -46.87721 -19.25597 -19.23856 -19.20976
 Alpha  occ. eigenvalues --  -19.20440 -19.19828 -19.19434 -19.18286 -19.17852
 Alpha  occ. eigenvalues --  -14.42348 -14.42210 -14.41969 -14.41417 -14.40068
 Alpha  occ. eigenvalues --  -14.40067 -14.38977 -14.38588 -10.40322 -10.38820
 Alpha  occ. eigenvalues --  -10.37198 -10.35646 -10.35454 -10.34056 -10.31963
 Alpha  occ. eigenvalues --  -10.31631 -10.31284 -10.31104 -10.31095 -10.31003
 Alpha  occ. eigenvalues --  -10.30953 -10.30836 -10.30647 -10.30614 -10.30549
 Alpha  occ. eigenvalues --  -10.30527 -10.30411 -10.30265 -10.29810 -10.29038
 Alpha  occ. eigenvalues --  -10.28973 -10.28843 -10.28778 -10.28619 -10.28527
 Alpha  occ. eigenvalues --  -10.28518 -10.28513 -10.28389 -10.28299 -10.28298
 Alpha  occ. eigenvalues --  -10.28174 -10.28075 -10.28051 -10.27971 -10.27914
 Alpha  occ. eigenvalues --  -10.27902 -10.27707 -10.27577 -10.27552 -10.27504
 Alpha  occ. eigenvalues --  -10.27456 -10.27357 -10.27279 -10.27249 -10.27203
 Alpha  occ. eigenvalues --  -10.27128 -10.27013 -10.27013 -10.26936 -10.26739
 Alpha  occ. eigenvalues --  -10.26723 -10.26559 -10.26478 -10.26292 -10.26274
 Alpha  occ. eigenvalues --  -10.25939 -10.25851 -10.25716 -10.25706 -10.25626
 Alpha  occ. eigenvalues --  -10.25537 -10.25348 -10.25191 -10.25062 -10.24481
 Alpha  occ. eigenvalues --  -10.24138  -3.17550  -3.16486  -1.92431  -1.92011
 Alpha  occ. eigenvalues --   -1.91856  -1.91397  -1.90906  -1.90833  -1.15558
 Alpha  occ. eigenvalues --   -1.14442  -1.12016  -1.10447  -1.09524  -1.07920
 Alpha  occ. eigenvalues --   -1.07612  -1.06688  -1.05540  -1.05235  -1.04683
 Alpha  occ. eigenvalues --   -1.04252  -1.04105  -1.03336  -1.03119  -1.02732
 Alpha  occ. eigenvalues --   -0.93294  -0.92084  -0.89921  -0.89303  -0.89167
 Alpha  occ. eigenvalues --   -0.89036  -0.88534  -0.88242  -0.87842  -0.87254
 Alpha  occ. eigenvalues --   -0.87079  -0.86993  -0.86217  -0.85935  -0.84821
 Alpha  occ. eigenvalues --   -0.84287  -0.84260  -0.83623  -0.82718  -0.82612
 Alpha  occ. eigenvalues --   -0.82527  -0.81934  -0.80908  -0.80684  -0.80473
 Alpha  occ. eigenvalues --   -0.80022  -0.78546  -0.77796  -0.77444  -0.77201
 Alpha  occ. eigenvalues --   -0.76874  -0.76614  -0.76477  -0.75810  -0.75492
 Alpha  occ. eigenvalues --   -0.75027  -0.73509  -0.72773  -0.72207  -0.71133
 Alpha  occ. eigenvalues --   -0.69395  -0.69211  -0.68975  -0.68708  -0.67886
 Alpha  occ. eigenvalues --   -0.67688  -0.67219  -0.66574  -0.66339  -0.65676
 Alpha  occ. eigenvalues --   -0.65334  -0.65009  -0.64914  -0.64622  -0.64146
 Alpha  occ. eigenvalues --   -0.63958  -0.63099  -0.61198  -0.60595  -0.60515
 Alpha  occ. eigenvalues --   -0.60074  -0.59581  -0.59543  -0.59084  -0.58945
 Alpha  occ. eigenvalues --   -0.58042  -0.57972  -0.57933  -0.57572  -0.56869
 Alpha  occ. eigenvalues --   -0.56214  -0.55808  -0.55760  -0.55627  -0.55612
 Alpha  occ. eigenvalues --   -0.55395  -0.54929  -0.54742  -0.54330  -0.53942
 Alpha  occ. eigenvalues --   -0.53882  -0.53635  -0.53577  -0.53321  -0.53187
 Alpha  occ. eigenvalues --   -0.52949  -0.52683  -0.52618  -0.52295  -0.52271
 Alpha  occ. eigenvalues --   -0.52091  -0.52031  -0.51749  -0.51701  -0.51162
 Alpha  occ. eigenvalues --   -0.51102  -0.50856  -0.50684  -0.50654  -0.50533
 Alpha  occ. eigenvalues --   -0.50299  -0.50276  -0.50025  -0.49848  -0.49846
 Alpha  occ. eigenvalues --   -0.49640  -0.49464  -0.49184  -0.48966  -0.48900
 Alpha  occ. eigenvalues --   -0.48762  -0.48628  -0.48503  -0.48455  -0.48327
 Alpha  occ. eigenvalues --   -0.47974  -0.47718  -0.47714  -0.47332  -0.47198
 Alpha  occ. eigenvalues --   -0.46873  -0.46832  -0.46591  -0.46445  -0.46411
 Alpha  occ. eigenvalues --   -0.46244  -0.46002  -0.45977  -0.45891  -0.45745
 Alpha  occ. eigenvalues --   -0.45727  -0.45525  -0.45473  -0.45287  -0.45136
 Alpha  occ. eigenvalues --   -0.44894  -0.44864  -0.44600  -0.44280  -0.44037
 Alpha  occ. eigenvalues --   -0.43967  -0.43955  -0.43904  -0.43642  -0.43401
 Alpha  occ. eigenvalues --   -0.43278  -0.43253  -0.43180  -0.42934  -0.42634
 Alpha  occ. eigenvalues --   -0.42480  -0.42433  -0.42415  -0.42397  -0.42060
 Alpha  occ. eigenvalues --   -0.42018  -0.41745  -0.41714  -0.41564  -0.41380
 Alpha  occ. eigenvalues --   -0.41365  -0.41086  -0.40978  -0.40920  -0.40484
 Alpha  occ. eigenvalues --   -0.40169  -0.40116  -0.39933  -0.39140  -0.39019
 Alpha  occ. eigenvalues --   -0.38753  -0.38206  -0.38148  -0.38011  -0.37785
 Alpha  occ. eigenvalues --   -0.37523  -0.37309  -0.37227  -0.36577  -0.36397
 Alpha  occ. eigenvalues --   -0.36106  -0.35567  -0.35385  -0.34681  -0.34394
 Alpha  occ. eigenvalues --   -0.33883  -0.33207  -0.33170  -0.32156  -0.31728
 Alpha  occ. eigenvalues --   -0.31110  -0.31100  -0.30567  -0.30461  -0.30131
 Alpha  occ. eigenvalues --   -0.29999  -0.29770  -0.29514  -0.24392  -0.23851
 Alpha  occ. eigenvalues --   -0.21624  -0.21347
 Alpha virt. eigenvalues --   -0.09308  -0.08791  -0.01814  -0.01211   0.00025
 Alpha virt. eigenvalues --    0.00248   0.01818   0.02428   0.02521   0.03550
 Alpha virt. eigenvalues --    0.04177   0.04847   0.05053   0.05369   0.05738

 Mulliken charges:
               1
     1  Mg  11.998432
     2  C    6.026773
     3  C    5.998527
     4  C    5.960793
     5  C    5.987069
     6  N    7.027674
     7  C    5.969921
     8  C    6.010150
     9  C    5.983211
    10  C    6.025996
    11  C    5.994865
    12  C    6.005467
    13  C    5.999428
    14  H    0.994390
    15  N    6.989774
    16  C    6.043082
    17  C    6.019704
    18  C    6.008904
    19  C    6.048762
    20  C    5.996068
    21  C    6.010918
    22  O    8.019657
    23  C    6.001859
    24  N    6.981543
    25  C    6.041648
    26  C    5.988197
    27  C    6.006760
    28  C    5.981024
    29  C    5.996075
    30  C    6.005384
    31  C    6.002194
    32  N    7.001191
    33  C    5.970668
    34  C    5.971309
    35  C    5.994938
    36  C    5.961730
    37  C    6.000585
    38  C    5.981930
    39  O    7.973484
    40  C    5.996516
    41  C    5.996579
    42  O    7.993662
    43  O    8.002036
    44  C    6.003355
    45  H    1.015419
    46  H    1.000814
    47  H    0.984215
    48  H    1.001602
    49  H    1.005561
    50  H    1.015510
    51  H    0.995088
    52  H    1.010913
    53  H    0.988798
    54  H    1.003740
    55  H    1.004778
    56  H    1.001579
    57  H    1.018021
    58  H    1.018612
    59  H    1.015656
    60  H    1.009970
    61  H    1.010079
    62  H    1.010773
    63  H    1.001041
    64  H    0.997992
    65  H    0.991877
    66  H    1.005232
    67  H    1.006852
    68  H    1.005410
    69  H    0.988894
    70  H    0.992740
    71  H    0.994594
    72  H    1.002250
    73  H    0.984700
    74  H    0.979004
    75  H    0.983482
    76  H    0.995382
    77  H    0.992977
    78  H    0.994374
    79  H    0.999836
    80  Mg  12.000018
    81  C    5.999799
    82  C    6.000188
    83  C    6.000155
    84  C    5.999882
    85  N    6.999938
    86  C    6.000348
    87  C    5.999974
    88  C    6.000017
    89  C    5.999730
    90  C    5.999971
    91  C    5.999982
    92  C    5.999960
    93  H    1.000012
    94  N    7.000060
    95  C    5.999539
    96  C    5.999853
    97  C    5.999717
    98  C    5.999717
    99  C    6.000076
   100  C    5.999825
   101  O    7.999664
   102  C    6.000079
   103  N    7.000012
   104  C    5.999703
   105  C    6.000112
   106  C    5.999929
   107  C    6.000236
   108  C    6.000044
   109  C    6.000012
   110  C    5.999972
   111  N    7.000068
   112  C    6.000314
   113  C    6.000270
   114  C    6.000104
   115  C    6.000234
   116  C    5.999924
   117  C    6.000170
   118  O    8.000435
   119  C    6.000026
   120  C    6.000070
   121  O    7.999970
   122  O    8.000095
   123  C    5.999978
   124  H    0.999883
   125  H    0.999866
   126  H    1.000064
   127  H    1.000032
   128  H    1.000024
   129  H    0.999969
   130  H    0.999870
   131  H    0.999960
   132  H    1.000104
   133  H    0.999991
   134  H    1.000076
   135  H    1.000125
   136  H    0.999872
   137  H    0.999733
   138  H    0.999823
   139  H    0.999935
   140  H    0.999778
   141  H    0.999926
   142  H    0.999965
   143  H    0.999959
   144  H    0.999815
   145  H    0.999949
   146  H    0.999993
   147  H    1.000027
   148  H    0.999944
   149  H    0.999996
   150  H    1.000048
   151  H    1.000071
   152  H    1.000118
   153  H    1.000162
   154  H    1.000307
   155  H    1.000233
   156  H    1.000226
   157  H    1.000004
   158  H    0.999973
 Sum of Mulliken charges = 624.00000

 Dipole moment (field-independent basis, Debye):
    X=              6.7276    Y=              7.9906    Z=             -2.5234  Tot=             10.7461
 Quadrupole moment (field-independent basis, Debye-Ang):
   XX=            231.3471   YY=             -1.1112   ZZ=             -1.7804
   XY=            141.5901   XZ=            -44.0699   YZ=              1.4534

 Normal termination of Gaussian 16 at Wed Sep 22 20:03:00 2021.
