 Gaussian 16, Revision A.03,
 Gaussian 16:  ES64L-G16RevA.03 25-Dec-2016

 ----------------------------------------------------------
 #p cam-b3lyp/Def2SVP td=(nstates=5) density=(transition=1)
 ----------------------------------------------------------

 --------------------------------
 TDDFT excited states in gaussian
 --------------------------------
 Symbolic Z-matrix:
 Charge =  0 Multiplicity = 1

                         Standard orientation:
 ---------------------------------------------------------------------
 Center     Atomic      Atomic             Coordinates (Angstroms)
 Number     Number       Type             X           Y           Z
 ---------------------------------------------------------------------
      1         12           0        5.521661   -0.552436   -0.226105
      2          6           0        3.464769    1.996590   -1.485759
      3          6           0        8.218071    1.390181   -0.503809
      4          6           0        7.265159   -3.046862    0.874656
      5          6           0        2.767506   -2.781945   -0.955894
      6          7           0        5.768634    1.433071   -1.025513
      7          6           0        4.839256    2.350908   -1.319862
      8          6           0        5.453600    3.651354   -1.769591
      9          6           0        6.992250    3.293049   -1.839838
     10          6           0        7.014801    1.984152   -1.074413
     11          6           0        7.669178    3.186918   -3.244850
     12          6           0        5.209680    4.803471   -0.666614
     13          6           0        4.684979    6.145512   -1.274367
     14          1           0        4.161386    7.159544   -0.119388
     15          7           0        7.370105   -0.708563    0.355332
     16          6           0        8.378995    0.227813    0.206669
     17          6           0        9.514857   -0.200851    0.975515
     18          6           0        9.292842   -1.551503    1.468538
     19          6           0        7.875146   -1.817146    1.011460
     20          6           0       10.784239    0.698078    1.006095
     21          6           0       10.095890   -2.567501    2.272763
     22          8           0        9.691021   -3.669771    2.684279
     23          6           0       11.444729   -2.062527    2.645527
     24          7           0        5.063412   -2.607164   -0.242938
     25          6           0        6.039740   -3.408007    0.296207
     26          6           0        5.655715   -4.884413    0.191699
     27          6           0        4.132598   -4.783781   -0.084685
     28          6           0        3.960676   -3.326183   -0.516605
     29          6           0        6.573927   -5.607760   -0.871693
     30          6           0        3.177172   -5.167651    1.123774
     31          6           0        1.756050   -5.628901    0.762857
     32          7           0        3.496920   -0.460098   -1.014866
     33          6           0        2.563571   -1.429028   -1.227083
     34          6           0        1.302825   -0.858048   -1.645175
     35          6           0        1.624370    0.511110   -1.683048
     36          6           0        2.974825    0.702580   -1.357749
     37          6           0       -0.065456   -1.496462   -1.977479
     38          6           0        1.054414    1.804525   -1.938390
     39          8           0       -0.072600    2.195785   -2.094416
     40          6           0        2.314348    2.815836   -1.976678
     41          6           0        1.780091    3.945088   -1.210886
     42          8           0        1.723947    4.100878    0.035158
     43          8           0        1.329845    4.809257   -2.136816
     44          6           0        0.691241    6.044241   -1.679592
     45          1           0        9.089464    2.048527   -0.505593
     46          1           0        7.824049   -3.875456    1.315026
     47          1           0        1.941172   -3.487168   -1.066744
     48          1           0        5.064555    4.048948   -2.707373
     49          1           0        7.660978    3.939895   -1.271639
     50          1           0        7.904392    2.137136   -3.420069
     51          1           0        8.588244    3.766376   -3.159163
     52          1           0        7.109463    3.512888   -4.120827
     53          1           0        6.055752    5.025875   -0.015311
     54          1           0        4.526979    4.377115    0.068481
     55          1           0        3.860274    5.957511   -1.961529
     56          1           0        5.433880    6.745263   -1.791057
     57          1           0       10.690888    1.379231    1.850797
     58          1           0       10.813021    1.442527    0.209491
     59          1           0       11.744836    0.205418    0.857449
     60          1           0       11.439090   -1.169943    3.270118
     61          1           0       11.907568   -1.916282    1.668807
     62          1           0       12.065532   -2.802747    3.151074
     63          1           0        5.871751   -5.305193    1.173813
     64          1           0        3.866473   -5.479601   -0.880317
     65          1           0        6.005172   -5.823104   -1.776174
     66          1           0        7.025724   -6.563927   -0.608911
     67          1           0        7.396908   -5.025059   -1.286058
     68          1           0        3.023858   -4.208247    1.618622
     69          1           0        3.545268   -5.895432    1.847242
     70          1           0        0.996211   -4.925906    1.106704
     71          1           0        1.409178   -6.602835    1.108765
     72          1           0        1.699817   -5.558492   -0.322507
     73          1           0        0.153043   -2.522016   -2.275139
     74          1           0       -0.567075   -0.954744   -2.780456
     75          1           0       -0.636083   -1.494728   -1.048840
     76          1           0        2.483068    3.150400   -3.000404
     77          1           0        1.347630    6.880704   -1.918919
     78          1           0        0.368335    5.981950   -0.640930
     79          1           0       -0.191336    6.217316   -2.295262
     80         12           0       -5.207207   -0.779707    0.283241
     81          6           0       -3.870174    2.506118    1.057634
     82          6           0       -8.160983    0.785624   -0.152462
     83          6           0       -6.375442   -3.687426   -0.335775
     84          6           0       -2.064080   -2.172680    1.130148
     85          7           0       -5.917861    1.517875    0.423372
     86          6           0       -5.185926    2.621735    0.652755
     87          6           0       -6.036140    3.884051    0.413444
     88          6           0       -7.471689    3.183199    0.494301
     89          6           0       -7.184822    1.774605    0.182642
     90          6           0       -8.376476    3.524752    1.666338
     91          6           0       -5.641307    4.496477   -0.941531
     92          6           0       -5.923384    6.025845   -1.019636
     93          1           0       -6.286412    6.914532    0.258393
     94          7           0       -7.050240   -1.409062   -0.240040
     95          6           0       -8.196251   -0.639012   -0.293142
     96          6           0       -9.317568   -1.523512   -0.595033
     97          6           0       -8.795862   -2.833891   -0.728978
     98          6           0       -7.347028   -2.666704   -0.422013
     99          6           0      -10.707671   -1.081587   -0.718578
    100          6           0       -9.535545   -4.210449   -1.146130
    101          8           0       -8.914512   -5.209816   -1.384844
    102          6           0      -11.020605   -4.234913   -1.550168
    103          7           0       -4.388849   -2.682785    0.653341
    104          6           0       -5.048407   -3.723043    0.150015
    105          6           0       -4.282994   -5.018583    0.181514
    106          6           0       -2.845340   -4.449377    0.260475
    107          6           0       -3.145653   -3.037270    0.871153
    108          6           0       -4.619364   -5.951719    1.436199
    109          6           0       -2.028173   -4.421886   -1.098846
    110          6           0       -2.311948   -5.487839   -2.196908
    111          7           0       -3.388087   -0.065007    1.053242
    112          6           0       -2.203509   -0.681399    1.289015
    113          6           0       -1.190742    0.231334    1.572442
    114          6           0       -1.819238    1.443331    1.538888
    115          6           0       -3.146431    1.262738    1.203027
    116          6           0        0.282977   -0.100345    1.790397
    117          6           0       -1.532272    2.877113    1.695900
    118          8           0       -0.570331    3.492418    2.130768
    119          6           0       -2.888746    3.605067    1.294431
    120          6           0       -3.220952    4.528331    2.365319
    121          8           0       -3.726611    4.249254    3.457079
    122          8           0       -2.637591    5.706543    2.061460
    123          6           0       -2.562472    6.601000    3.202682
    124          1           0       -9.140059    1.267680   -0.111950
    125          1           0       -6.818573   -4.668692   -0.514920
    126          1           0       -1.089964   -2.639965    1.287723
    127          1           0       -5.969770    4.577636    1.251771
    128          1           0       -8.033100    3.570131   -0.355015
    129          1           0       -9.258946    4.082510    1.354346
    130          1           0       -7.830928    4.112656    2.404235
    131          1           0       -8.706581    2.658963    2.240438
    132          1           0       -6.298743    4.062663   -1.695309
    133          1           0       -4.622404    4.267187   -1.253021
    134          1           0       -6.634746    6.265134   -1.810735
    135          1           0       -5.033992    6.386514   -1.536170
    136          1           0      -10.774738   -0.024915   -0.976644
    137          1           0      -11.154710   -1.279779    0.255728
    138          1           0      -11.274124   -1.605170   -1.489015
    139          1           0      -11.236039   -3.690078   -2.469291
    140          1           0      -11.551779   -3.926726   -0.649360
    141          1           0      -11.354166   -5.266219   -1.668196
    142          1           0       -4.586893   -5.499032   -0.748188
    143          1           0       -2.211955   -4.984746    0.967376
    144          1           0       -4.732643   -6.924517    0.958278
    145          1           0       -5.544304   -5.695061    1.953835
    146          1           0       -3.833261   -6.040572    2.185061
    147          1           0       -0.964803   -4.416315   -0.863693
    148          1           0       -2.400533   -3.494161   -1.533694
    149          1           0       -3.127890   -5.161246   -2.841182
    150          1           0       -2.477433   -6.399621   -1.621941
    151          1           0       -1.432629   -5.697026   -2.805137
    152          1           0        0.450911   -0.997080    1.193466
    153          1           0        0.514005   -0.377105    2.818637
    154          1           0        0.877200    0.745108    1.444151
    155          1           0       -2.685849    4.139580    0.365553
    156          1           0       -2.073045    7.548339    2.978416
    157          1           0       -2.225256    6.165540    4.143444
    158          1           0       -3.559389    6.944450    3.481049
 ---------------------------------------------------------------------

 SCF Done:  E(RCAM-B3LYP) =  -4069.77796076     A.U. after   18 cycles

 Excitation energies and oscillator strengths:

 Excited State   1:      Singlet-A      1.7056 eV  726.92 nm  f=0.6799  <S**2>=0.000
     309 -> 315       -0.18284
     311 -> 313        0.62667
     312 -> 313       -0.17924
     312 -> 314       -0.19926
     309 <- 315       -0.10453
 This state for optimization and/or second-order correction.
 Total Energy, E(TD-HF/TD-DFT) =  -4069.71528111
 Copying the excited state density for this state as the 1-particle RhoCI density.

 Excited State   2:      Singlet-A      1.8281 eV  678.23 nm  f=0.2054  <S**2>=0.000
     310 -> 316       -0.18003
     311 -> 313        0.18699
     311 -> 314        0.16930
     312 -> 314        0.62793

 Excited State   3:      Singlet-A      2.2310 eV  555.73 nm  f=0.0362  <S**2>=0.000
     309 -> 313       -0.35167
     310 -> 314        0.53646
     311 -> 315       -0.17728
     312 -> 316        0.19899

 Excited State   4:      Singlet-A      2.2555 eV  549.70 nm  f=0.1434  <S**2>=0.000
     309 -> 313        0.50580
     310 -> 314        0.36599
     311 -> 315        0.26951
     312 -> 316        0.14045

 Excited State   5:      Singlet-A      2.4226 eV  511.77 nm  f=0.0013  <S**2>=0.000
     311 -> 313        0.19642
     312 -> 313        0.67286

 The electronic state is 1-A.
 Alpha  occ. eigenvalues --  -46.88837 -46.87375 -19.24353 -19.24330 -19.20114
 Alpha  occ. eigenvalues --  -19.19495 -19.18846 -19.18139 -19.17794 -19.17793
 Alpha  occ. eigenvalues --  -14.42388 -14.41568 -14.40982 -14.40673 -14.39459
 Alpha  occ. eigenvalues --  -14.39264 -14.38216 -14.38023 -10.37922 -10.37572
 Alpha  occ. eigenvalues --  -10.36571 -10.35821 -10.34428 -10.33734 -10.31497
 Alpha  occ. eigenvalues --  -10.30976 -10.30664 -10.30623 -10.30534 -10.30414
 Alpha  occ. eigenvalues --  -10.30216 -10.30204 -10.30156 -10.30151 -10.30052
 Alpha  occ. eigenvalues --  -10.29908 -10.29844 -10.29280 -10.29111 -10.29052
 Alpha  occ. eigenvalues --  -10.29029 -10.28919 -10.28795 -10.28456 -10.28345
 Alpha  occ. eigenvalues --  -10.28142 -10.27986 -10.27927 -10.27715 -10.27631
 Alpha  occ. eigenvalues --  -10.27628 -10.27611 -10.27515 -10.27497 -10.27447
 Alpha  occ. eigenvalues --  -10.27413 -10.27374 -10.27077 -10.27050 -10.27049
 Alpha  occ. eigenvalues --  -10.26982 -10.26973 -10.26970 -10.26957 -10.26885
 Alpha  occ. eigenvalues --  -10.26780 -10.26506 -10.26456 -10.26316 -10.26286
 Alpha  occ. eigenvalues --  -10.26147 -10.26119 -10.26117 -10.26039 -10.25902
 Alpha  occ. eigenvalues --  -10.25798 -10.25733 -10.25648 -10.25647 -10.25644
 Alpha  occ. eigenvalues --  -10.25482 -10.24876 -10.24795 -10.24291 -10.24184
 Alpha  occ. eigenvalues --  -10.22981  -3.17336  -3.16217  -1.92237  -1.91811
 Alpha  occ. eigenvalues --   -1.91620  -1.91101  -1.90685  -1.90532  -1.15890
 Alpha  occ. eigenvalues --   -1.15407  -1.12205  -1.10544  -1.09219  -1.08297
 Alpha  occ. eigenvalues --   -1.06024  -1.05338  -1.05060  -1.04815  -1.04686
 Alpha  occ. eigenvalues --   -1.04120  -1.04114  -1.03417  -1.02788  -1.02220
 Alpha  occ. eigenvalues --   -0.92453  -0.91638  -0.88940  -0.88684  -0.88236
 Alpha  occ. eigenvalues --   -0.88047  -0.87998  -0.87866  -0.87272  -0.86980
 Alpha  occ. eigenvalues --   -0.86778  -0.86490  -0.86017  -0.84903  -0.84265
 Alpha  occ. eigenvalues --   -0.83891  -0.83651  -0.82614  -0.82380  -0.82054
 Alpha  occ. eigenvalues --   -0.82035  -0.81576  -0.81004  -0.80233  -0.80070
 Alpha  occ. eigenvalues --   -0.79594  -0.78125  -0.78003  -0.77212  -0.76647
 Alpha  occ. eigenvalues --   -0.76352  -0.76213  -0.75621  -0.75221  -0.75154
 Alpha  occ. eigenvalues --   -0.74798  -0.72575  -0.72151  -0.71920  -0.71187
 Alpha  occ. eigenvalues --   -0.69359  -0.69122  -0.68750  -0.68334  -0.67638
 Alpha  occ. eigenvalues --   -0.67010  -0.66955  -0.66275  -0.65799  -0.65464
 Alpha  occ. eigenvalues --   -0.64897  -0.64659  -0.64640  -0.64298  -0.64230
 Alpha  occ. eigenvalues --   -0.63193  -0.61384  -0.61256  -0.60364  -0.60058
 Alpha  occ. eigenvalues --   -0.59600  -0.58963  -0.58939  -0.58668  -0.58424
 Alpha  occ. eigenvalues --   -0.58016  -0.57801  -0.57175  -0.56828  -0.56759
 Alpha  occ. eigenvalues --   -0.56139  -0.56092  -0.55609  -0.55204  -0.54930
 Alpha  occ. eigenvalues --   -0.54650  -0.54455  -0.54117  -0.53745  -0.53526
 Alpha  occ. eigenvalues --   -0.53358  -0.53197  -0.53043  -0.52950  -0.52531
 Alpha  occ. eigenvalues --   -0.52497  -0.52355  -0.52264  -0.51982  -0.51763
 Alpha  occ. eigenvalues --   -0.51614  -0.51272  -0.51217  -0.51070  -0.50868
 Alpha  occ. eigenvalues --   -0.50672  -0.50548  -0.50228  -0.50210  -0.50139
 Alpha  occ. eigenvalues --   -0.49874  -0.49788  -0.49463  -0.49219  -0.49145
 Alpha  occ. eigenvalues --   -0.48855  -0.48711  -0.48626  -0.48554  -0.48251
 Alpha  occ. eigenvalues --   -0.48189  -0.47940  -0.47806  -0.47743  -0.47599
 Alpha  occ. eigenvalues --   -0.47407  -0.47165  -0.47085  -0.47065  -0.46916
 Alpha  occ. eigenvalues --   -0.46618  -0.46466  -0.46425  -0.46219  -0.46105
 Alpha  occ. eigenvalues --   -0.45785  -0.45717  -0.45521  -0.45315  -0.45168
 Alpha  occ. eigenvalues --   -0.44948  -0.44776  -0.44607  -0.44257  -0.44189
 Alpha  occ. eigenvalues --   -0.43975  -0.43916  -0.43807  -0.43602  -0.43512
 Alpha  occ. eigenvalues --   -0.43424  -0.43357  -0.43246  -0.43112  -0.42926
 Alpha  occ. eigenvalues --   -0.42814  -0.42758  -0.42676  -0.42623  -0.42556
 Alpha  occ. eigenvalues --   -0.42395  -0.42229  -0.41964  -0.41930  -0.41837
 Alpha  occ. eigenvalues --   -0.41684  -0.41568  -0.41400  -0.41234  -0.40874
 Alpha  occ. eigenvalues --   -0.40808  -0.40746  -0.40646  -0.40502  -0.40189
 Alpha  occ. eigenvalues --   -0.40070  -0.39480  -0.39390  -0.38871  -0.38800
 Alpha  occ. eigenvalues --   -0.38169  -0.37764  -0.37670  -0.37574  -0.37200
 Alpha  occ. eigenvalues --   -0.37093  -0.36819  -0.36129  -0.35352  -0.35207
 Alpha  occ. eigenvalues --   -0.34952  -0.34852  -0.33771  -0.33681  -0.33621
 Alpha  occ. eigenvalues --   -0.33094  -0.32400  -0.31928  -0.31552  -0.31519
 Alpha  occ. eigenvalues --   -0.31112  -0.31040  -0.30313  -0.30139  -0.30061
 Alpha  occ. eigenvalues --   -0.29385  -0.29279  -0.28655  -0.23998  -0.22873
 Alpha  occ. eigenvalues --   -0.20928  -0.20809
 Alpha virt. eigenvalues --   -0.08245  -0.07723  -0.02131  -0.00647  -0.00093
 Alpha virt. eigenvalues --    0.01137   0.02602   0.03002   0.03382   0.03497
 Alpha virt. eigenvalues --    0.04611   0.05145   0.05314   0.06111   0.06403

 Mulliken charges:
               1
     1  Mg  11.997771
     2  C    6.020035
     3  C    5.981549
     4  C    5.987290
     5  C    6.022398
     6  N    7.004560
     7  C    5.963777
     8  C    6.012568
     9  C    5.991526
    10  C    6.037408
    11  C    5.997513
    12  C    6.002523
    13  C    6.001018
    14  H    0.997463
    15  N    6.990746
    16  C    6.039232
    17  C    6.018970
    18  C    6.023028
    19  C    6.024709
    20  C    5.995936
    21  C    6.012646
    22  O    8.030835
    23  C    5.993730
    24  N    7.005355
    25  C    6.026782
    26  C    5.993788
    27  C    6.007503
    28  C    5.966105
    29  C    5.994093
    30  C    6.003356
    31  C    6.001060
    32  N    7.005333
    33  C    5.956673
    34  C    5.968376
    35  C    5.996228
    36  C    5.965498
    37  C    5.999513
    38  C    5.983849
    39  O    7.970883
    40  C    5.997477
    41  C    5.997546
    42  O    7.990916
    43  O    8.000410
    44  C    6.002263
    45  H    1.008344
    46  H    1.006472
    47  H    0.991780
    48  H    0.998516
    49  H    0.998754
    50  H    0.999974
    51  H    1.002425
    52  H    1.014334
    53  H    0.987640
    54  H    1.002258
    55  H    1.004265
    56  H    0.995192
    57  H    1.019331
    58  H    1.018635
    59  H    1.016933
    60  H    1.008740
    61  H    1.005903
    62  H    1.015995
    63  H    0.999033
    64  H    0.997179
    65  H    1.013366
    66  H    1.003724
    67  H    0.995489
    68  H    0.997159
    69  H    0.989414
    70  H    1.000614
    71  H    0.996672
    72  H    1.003134
    73  H    0.987600
    74  H    0.988341
    75  H    0.978406
    76  H    0.994231
    77  H    0.995062
    78  H    0.996683
    79  H    0.998498
    80  Mg  12.001683
    81  C    5.992615
    82  C    6.000636
    83  C    6.008293
    84  C    6.004816
    85  N    6.995724
    86  C    6.009180
    87  C    5.997060
    88  C    6.003183
    89  C    5.991805
    90  C    6.001957
    91  C    5.998036
    92  C    6.001024
    93  H    0.997647
    94  N    7.004555
    95  C    5.986124
    96  C    5.995243
    97  C    5.992984
    98  C    5.989099
    99  C    6.002100
   100  C    5.995142
   101  O    7.991693
   102  C    6.002027
   103  N    7.001933
   104  C    5.987908
   105  C    6.003689
   106  C    5.998629
   107  C    6.004646
   108  C    6.000116
   109  C    6.002227
   110  C    6.000549
   111  N    6.998106
   112  C    6.010005
   113  C    6.016094
   114  C    6.000152
   115  C    6.012266
   116  C    6.001961
   117  C    6.008927
   118  O    8.006667
   119  C    5.999792
   120  C    6.000782
   121  O    7.999963
   122  O    8.000937
   123  C    6.000334
   124  H    0.993853
   125  H    0.997789
   126  H    1.003099
   127  H    0.998547
   128  H    0.998365
   129  H    0.997319
   130  H    0.994686
   131  H    0.999653
   132  H    1.003289
   133  H    1.000868
   134  H    0.999929
   135  H    0.999673
   136  H    0.994538
   137  H    0.992857
   138  H    0.993459
   139  H    0.996959
   140  H    0.997278
   141  H    0.994062
   142  H    0.999684
   143  H    0.997345
   144  H    0.997411
   145  H    0.999315
   146  H    0.994923
   147  H    1.002046
   148  H    1.004463
   149  H    1.001026
   150  H    0.997367
   151  H    0.999690
   152  H    1.014247
   153  H    0.996767
   154  H    1.007926
   155  H    1.003936
   156  H    0.999817
   157  H    0.998666
   158  H    1.000508
 Sum of Mulliken charges = 624.00000

 Dipole moment (field-independent basis, Debye):
    X=             14.0633    Y=             -0.1901    Z=              3.5236  Tot=             14.4992
 Quadrupole moment (field-independent basis, Debye-Ang):
   XX=             72.5495   YY=             -5.6365   ZZ=              0.9888
   XY=            -19.2075   XZ=             12.8621   YZ=             -3.4478

 Normal termination of Gaussian 16 at Wed Sep 22 15:03:23 2021.
