 Gaussian 16, Revision A.03,
 Gaussian 16:  ES64L-G16RevA.03 25-Dec-2016

 ----------------------------------------------------------
 #p cam-b3lyp/Def2SVP td=(nstates=5) density=(transition=1)
 ----------------------------------------------------------

 --------------------------------
 TDDFT excited states in gaussian
 --------------------------------
 Symbolic Z-matrix:
 Charge =  0 Multiplicity = 1

                         Standard orientation:
 ---------------------------------------------------------------------
 Center     Atomic      Atomic             Coordinates (Angstroms)
 Number     Number       Type             X           Y           Z
 ---------------------------------------------------------------------
      1         12           0      -25.465555   -0.318390    0.312324
      2          6           0      -22.093335   -0.332719   -0.901898
      3          6           0      -24.212384    1.153771    3.275663
      4          6           0      -28.623125    0.421050    1.174455
      5          6           0      -26.520696   -1.123002   -2.873999
      6          7           0      -23.377390    0.339379    1.128808
      7          6           0      -22.231042    0.233166    0.392070
      8          6           0      -21.117290    1.019036    1.065726
      9          6           0      -21.788028    1.204388    2.490907
     10          6           0      -23.231067    0.899272    2.354672
     11          6           0      -21.189246    0.378003    3.678254
     12          6           0      -20.757993    2.278967    0.214480
     13          6           0      -19.239931    2.647949   -0.046515
     14          1           0      -18.680539    3.985850    0.469695
     15          7           0      -26.315447    0.444434    1.991047
     16          6           0      -25.655955    0.990224    3.123814
     17          6           0      -26.622704    1.404408    4.123815
     18          6           0      -27.912326    1.189807    3.487117
     19          6           0      -27.629273    0.655165    2.168339
     20          6           0      -26.209930    2.042142    5.384401
     21          6           0      -29.248243    1.484577    4.191239
     22          8           0      -29.171849    2.028311    5.331583
     23          6           0      -30.648934    1.171805    3.623323
     24          7           0      -27.365605   -0.072644   -0.753868
     25          6           0      -28.529827    0.061884   -0.148217
     26          6           0      -29.610874   -0.001490   -1.178342
     27          6           0      -28.899272   -0.556788   -2.441034
     28          6           0      -27.457105   -0.511056   -2.039236
     29          6           0      -30.959169   -0.781438   -0.866788
     30          6           0      -29.186449    0.254359   -3.807966
     31          6           0      -29.937495   -0.469088   -4.952519
     32          7           0      -24.567829   -0.846603   -1.440790
     33          6           0      -25.102749   -1.144541   -2.636900
     34          6           0      -24.102217   -1.437583   -3.596559
     35          6           0      -22.903577   -1.171654   -2.930523
     36          6           0      -23.230523   -0.765943   -1.611900
     37          6           0      -24.204981   -1.913603   -4.989790
     38          6           0      -21.492905   -1.143816   -3.165676
     39          8           0      -20.896611   -1.357044   -4.197428
     40          6           0      -20.870969   -0.510916   -1.765842
     41          6           0      -19.926365   -1.460588   -1.165757
     42          8           0      -20.101550   -2.681294   -1.062292
     43          8           0      -18.848587   -0.721351   -0.727072
     44          6           0      -17.765090   -1.467955   -0.089954
     45          1           0      -23.888053    1.606344    4.213972
     46          1           0      -29.651843    0.736468    1.358843
     47          1           0      -26.793132   -1.598353   -3.818797
     48          1           0      -20.297731    0.316139    1.217449
     49          1           0      -21.700089    2.289625    2.554221
     50          1           0      -22.001375   -0.213347    4.103579
     51          1           0      -20.793973    0.986352    4.491447
     52          1           0      -20.434352   -0.360076    3.405476
     53          1           0      -21.222725    3.045807    0.833822
     54          1           0      -21.243102    2.350877   -0.758707
     55          1           0      -19.124083    2.583809   -1.128287
     56          1           0      -18.628853    1.804025    0.272159
     57          1           0      -25.555990    2.869520    5.107885
     58          1           0      -25.592376    1.355785    5.963376
     59          1           0      -26.988805    2.320830    6.094664
     60          1           0      -30.845783    1.872462    2.811717
     61          1           0      -31.273368    1.057439    4.508774
     62          1           0      -30.521224    0.168648    3.215150
     63          1           0      -29.946686    1.022445   -1.337580
     64          1           0      -29.169581   -1.612026   -2.400218
     65          1           0      -31.709948   -0.270993   -1.470531
     66          1           0      -31.150405   -0.725584    0.204738
     67          1           0      -30.814858   -1.800808   -1.225206
     68          1           0      -28.193915    0.569232   -4.129774
     69          1           0      -29.666701    1.193559   -3.533754
     70          1           0      -29.438233   -0.367867   -5.915231
     71          1           0      -30.947586   -0.063307   -5.014665
     72          1           0      -30.113886   -1.527582   -4.760360
     73          1           0      -23.267989   -2.346335   -5.338912
     74          1           0      -24.428388   -0.952266   -5.452779
     75          1           0      -25.161758   -2.423794   -5.100350
     76          1           0      -20.488759    0.497105   -1.922773
     77          1           0      -17.434350   -2.304400   -0.706061
     78          1           0      -18.086898   -1.818835    0.891675
     79          1           0      -16.911023   -0.802380    0.035487
     80         12           0       25.355299    0.503309   -0.106903
     81          6           0       22.458814   -1.645898   -0.073769
     82          6           0       27.137068   -2.180805    1.278075
     83          6           0       28.030568    2.402113   -0.238707
     84          6           0       23.331173    3.138464   -1.193180
     85          7           0       24.779504   -1.691650    0.546943
     86          6           0       23.640795   -2.379816    0.269420
     87          6           0       23.815296   -3.875781    0.474561
     88          6           0       25.239840   -4.001327    1.255613
     89          6           0       25.748846   -2.545893    1.045942
     90          6           0       25.141948   -4.498013    2.719824
     91          6           0       23.767230   -4.680105   -0.868322
     92          6           0       22.682869   -5.788155   -0.900861
     93          1           0       23.291583   -7.301565   -1.025587
     94          7           0       27.254171    0.165094    0.421438
     95          6           0       27.865214   -0.989170    1.018478
     96          6           0       29.319568   -0.829535    1.254893
     97          6           0       29.549258    0.491471    0.748236
     98          6           0       28.270869    1.060066    0.289100
     99          6           0       30.224513   -1.879172    1.903207
    100          6           0       30.808052    1.272281    0.750276
    101          8           0       31.015804    2.294232    0.105132
    102          6           0       32.014375    0.692285    1.514541
    103          7           0       25.642771    2.396385   -0.795135
    104          6           0       26.853592    2.994668   -0.720958
    105          6           0       26.795237    4.473262   -0.986814
    106          6           0       25.312333    4.740852   -1.343748
    107          6           0       24.697544    3.334651   -1.162891
    108          6           0       27.372054    5.338701    0.113836
    109          6           0       25.174058    5.248932   -2.897389
    110          6           0       24.371364    6.644419   -3.113185
    111          7           0       23.260759    0.814329   -0.300149
    112          6           0       22.616249    1.952572   -0.841680
    113          6           0       21.192286    1.630263   -0.988616
    114          6           0       21.157865    0.219958   -0.828812
    115          6           0       22.383445   -0.192517   -0.303655
    116          6           0       20.010568    2.539147   -1.313125
    117          6           0       20.185529   -0.904415   -0.723363
    118          8           0       18.935279   -1.026854   -0.847172
    119          6           0       21.059883   -2.163031   -0.348819
    120          6           0       20.448890   -2.825691    0.850518
    121          8           0       20.051685   -2.239301    1.817351
    122          8           0       20.312292   -4.165141    0.612491
    123          6           0       19.417566   -4.828534    1.594291
    124          1           0       27.610518   -2.995304    1.829871
    125          1           0       28.880967    3.084377   -0.304916
    126          1           0       22.686227    3.935691   -1.567946
    127          1           0       23.027953   -4.176939    1.165619
    128          1           0       25.950718   -4.637674    0.727847
    129          1           0       25.450824   -3.717787    3.416104
    130          1           0       25.757304   -5.387276    2.862453
    131          1           0       24.165736   -4.868908    3.032241
    132          1           0       24.715541   -5.176659   -1.075480
    133          1           0       23.549761   -4.031740   -1.717522
    134          1           0       22.082899   -5.773268   -1.811132
    135          1           0       21.942717   -5.737513   -0.102911
    136          1           0       29.852181   -2.903592    1.935329
    137          1           0       30.581487   -1.637234    2.904225
    138          1           0       31.116781   -1.900903    1.276707
    139          1           0       31.781596    0.597301    2.575115
    140          1           0       32.922565    1.276070    1.360820
    141          1           0       32.215015   -0.301225    1.113596
    142          1           0       27.463185    4.689521   -1.821685
    143          1           0       24.853811    5.432133   -0.637261
    144          1           0       28.328553    5.792905   -0.146285
    145          1           0       27.618603    4.811605    1.035439
    146          1           0       26.632701    6.100636    0.361506
    147          1           0       24.686686    4.531072   -3.556316
    148          1           0       26.142059    5.417990   -3.368346
    149          1           0       24.412541    7.153788   -2.150202
    150          1           0       23.340786    6.475734   -3.428226
    151          1           0       24.914207    7.316159   -3.777645
    152          1           0       19.235583    2.021034   -1.877642
    153          1           0       20.365874    3.292254   -2.017429
    154          1           0       19.773855    2.996813   -0.352491
    155          1           0       20.927342   -2.865482   -1.171286
    156          1           0       19.798092   -4.595141    2.588504
    157          1           0       19.605622   -5.889297    1.429134
    158          1           0       18.359148   -4.568738    1.611102
 ---------------------------------------------------------------------

 SCF Done:  E(RCAM-B3LYP) =  -4069.78420221     A.U. after   17 cycles

 Excitation energies and oscillator strengths:

 Excited State   1:      Singlet-A      1.6722 eV  741.46 nm  f=0.3755  <S**2>=0.000
     310 -> 315        0.18800
     311 -> 313        0.68423
     310 <- 315        0.11182
 This state for optimization and/or second-order correction.
 Total Energy, E(TD-HF/TD-DFT) =  -4069.72275108
 Copying the excited state density for this state as the 1-particle RhoCI density.

 Excited State   2:      Singlet-A      1.6989 eV  729.77 nm  f=0.3877  <S**2>=0.000
     309 -> 316       -0.18529
     312 -> 314        0.68532
     309 <- 316       -0.11147

 Excited State   3:      Singlet-A      2.1741 eV  570.29 nm  f=0.1343  <S**2>=0.000
     310 -> 313        0.64729
     311 -> 315       -0.27760

 Excited State   4:      Singlet-A      2.2522 eV  550.50 nm  f=0.1329  <S**2>=0.000
     309 -> 314        0.64094
     312 -> 316        0.28918

 Excited State   5:      Singlet-A      3.1666 eV  391.54 nm  f=0.0000  <S**2>=0.000
     312 -> 313        0.70710

 The electronic state is 1-A.
 Alpha  occ. eigenvalues --  -46.88893 -46.88531 -19.26258 -19.25647 -19.20543
 Alpha  occ. eigenvalues --  -19.19745 -19.19726 -19.18953 -19.18685 -19.18120
 Alpha  occ. eigenvalues --  -14.42607 -14.41936 -14.41919 -14.41387 -14.40716
 Alpha  occ. eigenvalues --  -14.39919 -14.39812 -14.39250 -10.40080 -10.38819
 Alpha  occ. eigenvalues --  -10.35433 -10.35233 -10.35142 -10.35124 -10.32434
 Alpha  occ. eigenvalues --  -10.31925 -10.31829 -10.31578 -10.31489 -10.31289
 Alpha  occ. eigenvalues --  -10.31176 -10.30867 -10.30799 -10.30761 -10.30668
 Alpha  occ. eigenvalues --  -10.30623 -10.30386 -10.30313 -10.30296 -10.29979
 Alpha  occ. eigenvalues --  -10.29743 -10.29100 -10.29068 -10.29040 -10.28994
 Alpha  occ. eigenvalues --  -10.28930 -10.28906 -10.28716 -10.28629 -10.28547
 Alpha  occ. eigenvalues --  -10.28531 -10.28451 -10.28240 -10.28088 -10.28083
 Alpha  occ. eigenvalues --  -10.27962 -10.27830 -10.27763 -10.27610 -10.27579
 Alpha  occ. eigenvalues --  -10.27505 -10.27475 -10.27457 -10.27438 -10.27328
 Alpha  occ. eigenvalues --  -10.27240 -10.27220 -10.27184 -10.27145 -10.26983
 Alpha  occ. eigenvalues --  -10.26774 -10.26758 -10.26665 -10.26595 -10.26422
 Alpha  occ. eigenvalues --  -10.26389 -10.26221 -10.26125 -10.26112 -10.26063
 Alpha  occ. eigenvalues --  -10.26056 -10.25915 -10.25492 -10.25189 -10.25035
 Alpha  occ. eigenvalues --  -10.24548  -3.17447  -3.17174  -1.92337  -1.92072
 Alpha  occ. eigenvalues --   -1.91891  -1.91764  -1.91629  -1.91495  -1.16962
 Alpha  occ. eigenvalues --   -1.16528  -1.10806  -1.09969  -1.08686  -1.08153
 Alpha  occ. eigenvalues --   -1.07229  -1.07065  -1.05438  -1.04712  -1.04000
 Alpha  occ. eigenvalues --   -1.03728  -1.03267  -1.02584  -1.02326  -1.02016
 Alpha  occ. eigenvalues --   -0.93167  -0.91576  -0.89314  -0.88642  -0.88497
 Alpha  occ. eigenvalues --   -0.88271  -0.88127  -0.88118  -0.87958  -0.87461
 Alpha  occ. eigenvalues --   -0.87413  -0.86995  -0.85993  -0.85636  -0.84622
 Alpha  occ. eigenvalues --   -0.84022  -0.83846  -0.83171  -0.82715  -0.82003
 Alpha  occ. eigenvalues --   -0.81817  -0.81394  -0.81352  -0.80675  -0.80472
 Alpha  occ. eigenvalues --   -0.79760  -0.79096  -0.78209  -0.77633  -0.77098
 Alpha  occ. eigenvalues --   -0.76864  -0.76786  -0.76285  -0.76035  -0.75331
 Alpha  occ. eigenvalues --   -0.75227  -0.73183  -0.72557  -0.72200  -0.71419
 Alpha  occ. eigenvalues --   -0.69801  -0.69374  -0.69176  -0.68747  -0.68468
 Alpha  occ. eigenvalues --   -0.67594  -0.67090  -0.66736  -0.66142  -0.65921
 Alpha  occ. eigenvalues --   -0.65634  -0.65620  -0.65104  -0.64752  -0.64386
 Alpha  occ. eigenvalues --   -0.63997  -0.62944  -0.62367  -0.60802  -0.60131
 Alpha  occ. eigenvalues --   -0.59890  -0.59532  -0.59263  -0.58903  -0.58737
 Alpha  occ. eigenvalues --   -0.58417  -0.58347  -0.57958  -0.57581  -0.57138
 Alpha  occ. eigenvalues --   -0.56225  -0.56138  -0.55969  -0.55634  -0.55277
 Alpha  occ. eigenvalues --   -0.55063  -0.54847  -0.54497  -0.54490  -0.53779
 Alpha  occ. eigenvalues --   -0.53680  -0.53394  -0.53279  -0.52923  -0.52667
 Alpha  occ. eigenvalues --   -0.52622  -0.52563  -0.52155  -0.52082  -0.51754
 Alpha  occ. eigenvalues --   -0.51654  -0.51451  -0.51400  -0.51376  -0.51215
 Alpha  occ. eigenvalues --   -0.50848  -0.50566  -0.50461  -0.50325  -0.50064
 Alpha  occ. eigenvalues --   -0.50016  -0.49969  -0.49957  -0.49802  -0.49552
 Alpha  occ. eigenvalues --   -0.49427  -0.49395  -0.49210  -0.48785  -0.48774
 Alpha  occ. eigenvalues --   -0.48451  -0.48245  -0.48114  -0.48006  -0.47923
 Alpha  occ. eigenvalues --   -0.47731  -0.47641  -0.47579  -0.47565  -0.47468
 Alpha  occ. eigenvalues --   -0.47436  -0.47047  -0.47018  -0.46842  -0.46632
 Alpha  occ. eigenvalues --   -0.46567  -0.46439  -0.46202  -0.46112  -0.45945
 Alpha  occ. eigenvalues --   -0.45921  -0.45607  -0.45574  -0.45360  -0.44987
 Alpha  occ. eigenvalues --   -0.44968  -0.44814  -0.44774  -0.44523  -0.44375
 Alpha  occ. eigenvalues --   -0.44099  -0.43883  -0.43787  -0.43761  -0.43642
 Alpha  occ. eigenvalues --   -0.43543  -0.43319  -0.43262  -0.43071  -0.42930
 Alpha  occ. eigenvalues --   -0.42861  -0.42793  -0.42608  -0.42311  -0.42217
 Alpha  occ. eigenvalues --   -0.42035  -0.41544  -0.41512  -0.41312  -0.41215
 Alpha  occ. eigenvalues --   -0.41090  -0.40838  -0.40793  -0.40695  -0.40434
 Alpha  occ. eigenvalues --   -0.40319  -0.40215  -0.40179  -0.39378  -0.38911
 Alpha  occ. eigenvalues --   -0.38731  -0.38599  -0.38233  -0.38233  -0.37705
 Alpha  occ. eigenvalues --   -0.37623  -0.37489  -0.37341  -0.36431  -0.36379
 Alpha  occ. eigenvalues --   -0.35837  -0.35502  -0.35172  -0.34639  -0.34421
 Alpha  occ. eigenvalues --   -0.34097  -0.33019  -0.33002  -0.31633  -0.31316
 Alpha  occ. eigenvalues --   -0.31110  -0.30992  -0.30596  -0.30320  -0.30272
 Alpha  occ. eigenvalues --   -0.30095  -0.29384  -0.29355  -0.24155  -0.23906
 Alpha  occ. eigenvalues --   -0.21306  -0.21297
 Alpha virt. eigenvalues --   -0.08981  -0.08913  -0.01835  -0.01717   0.00131
 Alpha virt. eigenvalues --    0.00297   0.02056   0.02314   0.02440   0.03557
 Alpha virt. eigenvalues --    0.04229   0.04266   0.05027   0.05215   0.05699

 Mulliken charges:
               1
     1  Mg  12.000012
     2  C    6.000259
     3  C    5.999619
     4  C    5.999712
     5  C    6.000399
     6  N    6.999940
     7  C    5.999635
     8  C    6.000067
     9  C    5.999905
    10  C    6.000395
    11  C    5.999963
    12  C    6.000116
    13  C    6.000035
    14  H    0.999806
    15  N    6.999942
    16  C    6.000645
    17  C    6.000292
    18  C    6.000123
    19  C    6.000457
    20  C    5.999864
    21  C    6.000172
    22  O    8.000298
    23  C    6.000019
    24  N    7.000028
    25  C    6.000435
    26  C    5.999824
    27  C    6.000157
    28  C    5.999539
    29  C    5.999986
    30  C    6.000010
    31  C    6.000013
    32  N    7.000007
    33  C    5.999461
    34  C    5.999732
    35  C    5.999914
    36  C    5.999590
    37  C    6.000024
    38  C    5.999765
    39  O    7.999630
    40  C    5.999964
    41  C    5.999935
    42  O    7.999944
    43  O    7.999962
    44  C    6.000065
    45  H    1.000101
    46  H    1.000152
    47  H    0.999943
    48  H    0.999958
    49  H    1.000020
    50  H    0.999974
    51  H    1.000001
    52  H    1.000117
    53  H    0.999857
    54  H    1.000077
    55  H    1.000016
    56  H    0.999963
    57  H    1.000238
    58  H    1.000261
    59  H    1.000213
    60  H    1.000136
    61  H    1.000183
    62  H    1.000093
    63  H    1.000048
    64  H    0.999983
    65  H    1.000099
    66  H    0.999929
    67  H    1.000109
    68  H    1.000049
    69  H    0.999902
    70  H    1.000018
    71  H    0.999967
    72  H    1.000000
    73  H    0.999812
    74  H    0.999763
    75  H    0.999787
    76  H    0.999835
    77  H    0.999942
    78  H    0.999939
    79  H    0.999857
    80  Mg  12.004475
    81  C    5.971501
    82  C    6.006709
    83  C    6.034382
    84  C    5.988830
    85  N    6.982978
    86  C    6.036053
    87  C    5.989428
    88  C    6.012662
    89  C    5.968364
    90  C    6.002937
    91  C    5.998164
    92  C    5.997894
    93  H    1.007333
    94  N    7.006908
    95  C    5.960286
    96  C    5.975728
    97  C    5.985461
    98  C    5.967572
    99  C    6.004957
   100  C    5.988523
   101  O    7.968077
   102  C    6.004417
   103  N    7.007932
   104  C    5.959602
   105  C    6.010596
   106  C    5.987687
   107  C    6.031737
   108  C    6.000820
   109  C    5.994908
   110  C    5.999062
   111  N    6.995230
   112  C    6.046560
   113  C    6.030310
   114  C    6.004749
   115  C    6.033530
   116  C    6.000198
   117  C    6.009571
   118  O    8.031092
   119  C    6.004771
   120  C    6.006795
   121  O    8.000272
   122  O    8.001913
   123  C    5.997816
   124  H    0.986456
   125  H    0.998927
   126  H    1.012792
   127  H    0.997625
   128  H    0.998748
   129  H    1.000494
   130  H    0.996012
   131  H    0.985637
   132  H    1.009292
   133  H    0.994987
   134  H    0.996939
   135  H    0.998016
   136  H    0.983184
   137  H    0.979640
   138  H    0.983278
   139  H    0.992207
   140  H    0.984953
   141  H    0.994675
   142  H    1.001120
   143  H    1.003975
   144  H    1.002354
   145  H    1.005373
   146  H    0.989915
   147  H    0.998960
   148  H    1.012781
   149  H    1.004049
   150  H    0.997101
   151  H    1.006504
   152  H    1.015831
   153  H    1.017050
   154  H    1.017526
   155  H    1.004768
   156  H    1.004666
   157  H    1.005239
   158  H    1.000134
 Sum of Mulliken charges = 624.00000

 Dipole moment (field-independent basis, Debye):
    X=            -10.1755    Y=              2.6106    Z=             -2.8417  Tot=             10.8826
 Quadrupole moment (field-independent basis, Debye-Ang):
   XX=           -507.4810   YY=              4.8057   ZZ=             -0.4654
   XY=             60.6821   XZ=            -78.6157   YZ=             -0.8639

 Normal termination of Gaussian 16 at Wed Sep 22 06:53:11 2021.
