 Gaussian 16, Revision A.03,
 Gaussian 16:  ES64L-G16RevA.03 25-Dec-2016

 -----------------------------------
 #p cam-b3lyp/Def2SVP td=(nstates=5)
 -----------------------------------

 --------------------------------
 TDDFT excited states in gaussian
 --------------------------------
 Symbolic Z-matrix:
 Charge =  0 Multiplicity = 1

                         Standard orientation:
 ---------------------------------------------------------------------
 Center     Atomic      Atomic             Coordinates (Angstroms)
 Number     Number       Type             X           Y           Z
 ---------------------------------------------------------------------
      1         12           0      -11.357149    0.200463   -0.574580
      2          6           0       -8.462793   -1.740987   -0.123281
      3          6           0      -13.246925   -2.599255    0.067661
      4          6           0      -13.954939    2.225468   -0.264103
      5          6           0       -9.290552    3.063584   -0.961314
      6          7           0      -10.899580   -1.833117    0.156775
      7          6           0       -9.622319   -2.440012    0.272480
      8          6           0       -9.692263   -3.909258    0.352782
      9          6           0      -11.259195   -4.173640    0.312411
     10          6           0      -11.858362   -2.787880    0.131440
     11          6           0      -11.653447   -5.251526   -0.726215
     12          6           0       -9.173935   -4.492042    1.632088
     13          6           0       -9.454933   -3.698774    2.916972
     14          1           0       -9.749316   -4.427510    4.285720
     15          7           0      -13.374307   -0.114004   -0.187795
     16          6           0      -13.935529   -1.333681   -0.082546
     17          6           0      -15.366489   -1.172177   -0.017480
     18          6           0      -15.617595    0.211933   -0.185508
     19          6           0      -14.298142    0.860356   -0.253652
     20          6           0      -16.369322   -2.269527    0.217919
     21          6           0      -16.997506    0.864315   -0.264567
     22          8           0      -18.011305    0.200137   -0.172145
     23          6           0      -17.310228    2.329412   -0.340902
     24          7           0      -11.569817    2.333441   -0.350474
     25          6           0      -12.791829    2.947999   -0.284425
     26          6           0      -12.674815    4.485134   -0.549035
     27          6           0      -11.136137    4.715067   -0.452923
     28          6           0      -10.626720    3.299688   -0.615407
     29          6           0      -13.217318    4.968550   -1.915677
     30          6           0      -10.582212    5.180633    0.975650
     31          6           0       -9.615809    6.309182    0.985162
     32          7           0       -9.379235    0.614719   -0.657585
     33          6           0       -8.742426    1.743173   -0.998586
     34          6           0       -7.324843    1.431556   -1.420758
     35          6           0       -7.227890    0.034978   -1.123075
     36          6           0       -8.453223   -0.377455   -0.527146
     37          6           0       -6.234388    2.338918   -1.972000
     38          6           0       -6.282600   -1.040798   -1.040345
     39          8           0       -5.090959   -1.074121   -1.303833
     40          6           0       -7.074441   -2.255703   -0.408144
     41          6           0       -6.462686   -2.520283    0.951956
     42          8           0       -6.512002   -1.830553    1.916233
     43          8           0       -5.912286   -3.784124    0.929807
     44          6           0       -5.539391   -4.287793    2.255549
     45          1           0      -13.833835   -3.519888    0.074632
     46          1           0      -14.813802    2.894248   -0.341353
     47          1           0       -8.735483    3.967326   -1.221270
     48          1           0       -9.122414   -4.312408   -0.484376
     49          1           0      -11.724781   -4.436582    1.262194
     50          1           0      -12.309274   -5.876682   -0.120007
     51          1           0      -10.732058   -5.743341   -1.038291
     52          1           0      -12.238514   -4.852092   -1.554857
     53          1           0       -8.138593   -4.829417    1.576845
     54          1           0       -9.594876   -5.462887    1.894486
     55          1           0      -10.288134   -3.043214    2.661496
     56          1           0       -8.573030   -3.061595    2.985246
     57          1           0      -17.103914   -1.974384    0.967896
     58          1           0      -15.851986   -3.195780    0.467661
     59          1           0      -16.866227   -2.382192   -0.745962
     60          1           0      -17.041410    2.912591    0.539272
     61          1           0      -18.399747    2.309983   -0.310959
     62          1           0      -17.088436    2.765852   -1.315362
     63          1           0      -13.236513    4.998421    0.231330
     64          1           0      -10.743822    5.357786   -1.241447
     65          1           0      -12.376487    5.304467   -2.522258
     66          1           0      -14.083000    5.620524   -1.800099
     67          1           0      -13.633848    4.111485   -2.443656
     68          1           0      -10.157638    4.339850    1.523730
     69          1           0      -11.480921    5.480935    1.514661
     70          1           0       -9.935510    7.138977    1.615166
     71          1           0       -9.383820    6.692423   -0.008789
     72          1           0       -8.655292    6.015080    1.407395
     73          1           0       -5.395255    2.264987   -1.280250
     74          1           0       -6.681638    3.314451   -2.166740
     75          1           0       -5.892861    1.856969   -2.887981
     76          1           0       -7.048529   -3.141567   -1.042315
     77          1           0       -6.166515   -3.891582    3.054075
     78          1           0       -4.511090   -3.946254    2.374486
     79          1           0       -5.469663   -5.370115    2.150265
     80         12           0       10.631088    0.683936   -0.307940
     81          6           0       10.938885   -2.680788    0.081544
     82          6           0        7.223460    0.395200    0.593833
     83          6           0       10.625283    3.958248    0.350114
     84          6           0       14.213696    0.945380   -0.681015
     85          7           0        9.303110   -0.953414    0.227904
     86          6           0        9.569714   -2.211724    0.347486
     87          6           0        8.288338   -3.107293    0.492950
     88          6           0        7.082494   -2.101124    0.359778
     89          6           0        7.879669   -0.751401    0.355545
     90          6           0        6.076102   -2.389415   -0.755076
     91          6           0        8.314814   -4.009664    1.864787
     92          6           0        9.177924   -3.545638    3.026889
     93          1           0        8.919951   -4.062983    4.442047
     94          7           0        9.122685    1.983902    0.387129
     95          6           0        7.798456    1.709716    0.631322
     96          6           0        7.152373    2.867322    1.076198
     97          6           0        8.120967    3.943941    1.063339
     98          6           0        9.391390    3.311992    0.619586
     99          6           0        5.651145    2.884733    1.298507
    100          6           0        7.804848    5.396348    1.463838
    101          8           0        6.635977    5.659748    1.825446
    102          6           0        8.736949    6.486593    1.463291
    103          7           0       12.274091    2.259725   -0.023620
    104          6           0       11.898853    3.505491    0.043567
    105          6           0       13.076062    4.505988   -0.135206
    106          6           0       14.225842    3.549428   -0.519884
    107          6           0       13.583442    2.105774   -0.439704
    108          6           0       12.854628    5.540369   -1.179107
    109          6           0       15.520586    3.730418    0.404422
    110          6           0       16.798847    4.347897   -0.298341
    111          7           0       12.279385   -0.548449   -0.426644
    112          6           0       13.653456   -0.350421   -0.611335
    113          6           0       14.323611   -1.686607   -0.673609
    114          6           0       13.290332   -2.582395   -0.364092
    115          6           0       12.073741   -1.858755   -0.187622
    116          6           0       15.717916   -2.003310   -0.918008
    117          6           0       13.081650   -3.937621   -0.131550
    118          8           0       13.812451   -4.938204   -0.173972
    119          6           0       11.547178   -4.084994    0.073789
    120          6           0       11.015149   -5.086743   -0.978507
    121          8           0       10.355869   -6.092798   -0.779134
    122          8           0       11.364686   -4.727559   -2.262294
    123          6           0       10.952857   -5.618347   -3.353688
    124          1           0        6.200292    0.208455    0.926087
    125          1           0       10.652722    5.048865    0.393094
    126          1           0       15.264697    1.030642   -0.964500
    127          1           0        8.230193   -3.701798   -0.419188
    128          1           0        6.500064   -2.033725    1.279180
    129          1           0        6.114965   -1.593306   -1.498327
    130          1           0        5.050616   -2.425958   -0.385635
    131          1           0        6.183030   -3.354076   -1.251239
    132          1           0        8.592198   -4.986374    1.467602
    133          1           0        7.359361   -4.096808    2.382552
    134          1           0        9.047980   -2.463884    3.008331
    135          1           0       10.203632   -3.741812    2.714058
    136          1           0        5.031406    3.604677    0.763362
    137          1           0        5.460137    2.943170    2.370305
    138          1           0        5.242721    1.913394    1.020265
    139          1           0        9.190307    6.768492    0.513141
    140          1           0        9.632602    6.219150    2.023085
    141          1           0        8.372079    7.374756    1.978234
    142          1           0       13.372794    5.120928    0.714341
    143          1           0       14.508203    3.616371   -1.570615
    144          1           0       12.625997    6.536508   -0.800566
    145          1           0       11.932901    5.341877   -1.727197
    146          1           0       13.719832    5.599567   -1.839221
    147          1           0       15.850853    2.738611    0.716171
    148          1           0       15.382276    4.408052    1.245823
    149          1           0       17.226553    5.122305    0.337179
    150          1           0       16.464474    4.884040   -1.186603
    151          1           0       17.507058    3.521639   -0.362989
    152          1           0       16.062624   -1.206488   -1.577477
    153          1           0       15.810801   -2.962791   -1.428062
    154          1           0       16.184651   -2.096058    0.062186
    155          1           0       11.286174   -4.686316    0.944339
    156          1           0       11.630044   -5.465050   -4.194152
    157          1           0        9.965938   -5.472687   -3.792563
    158          1           0       10.900353   -6.669397   -3.068201
 ---------------------------------------------------------------------

 SCF Done:  E(RCAM-B3LYP) =  -4069.76903461     A.U. after   19 cycles

 Excitation energies and oscillator strengths:

 Excited State   1:      Singlet-A      1.6642 eV  744.99 nm  f=0.4377  <S**2>=0.000
     310 -> 316        0.17108
     312 -> 314        0.68312
     310 <- 316        0.10698
 This state for optimization and/or second-order correction.
 Total Energy, E(TD-HF/TD-DFT) =  -4069.70787504
 Copying the excited state density for this state as the 1-particle RhoCI density.

 Excited State   2:      Singlet-A      1.7057 eV  726.86 nm  f=0.3838  <S**2>=0.000
     309 -> 315       -0.15981
     311 -> 313        0.68402
     309 <- 315       -0.10204

 Excited State   3:      Singlet-A      2.2504 eV  550.94 nm  f=0.1128  <S**2>=0.000
     309 -> 313        0.64126
     311 -> 315        0.27174

 Excited State   4:      Singlet-A      2.2661 eV  547.12 nm  f=0.1063  <S**2>=0.000
     310 -> 314        0.62826
     312 -> 316       -0.30963

 Excited State   5:      Singlet-A      2.7286 eV  454.39 nm  f=0.0000  <S**2>=0.000
     312 -> 313        0.70703

 The electronic state is 1-A.
 Alpha  occ. eigenvalues --  -46.90229 -46.88567 -19.24822 -19.24609 -19.20426
 Alpha  occ. eigenvalues --  -19.20037 -19.19125 -19.18892 -19.18237 -19.17339
 Alpha  occ. eigenvalues --  -14.43107 -14.42362 -14.41871 -14.41847 -14.40457
 Alpha  occ. eigenvalues --  -14.39736 -14.39582 -14.39521 -10.39645 -10.39244
 Alpha  occ. eigenvalues --  -10.34992 -10.34639 -10.34592 -10.34178 -10.32908
 Alpha  occ. eigenvalues --  -10.31687 -10.31444 -10.31436 -10.31199 -10.31189
 Alpha  occ. eigenvalues --  -10.30930 -10.30806 -10.30678 -10.30642 -10.30640
 Alpha  occ. eigenvalues --  -10.30568 -10.30566 -10.30455 -10.30292 -10.29936
 Alpha  occ. eigenvalues --  -10.29552 -10.29307 -10.29217 -10.29161 -10.28940
 Alpha  occ. eigenvalues --  -10.28727 -10.28704 -10.28505 -10.28496 -10.28407
 Alpha  occ. eigenvalues --  -10.28335 -10.28324 -10.28276 -10.28173 -10.28117
 Alpha  occ. eigenvalues --  -10.28023 -10.27812 -10.27731 -10.27660 -10.27484
 Alpha  occ. eigenvalues --  -10.27422 -10.27122 -10.27024 -10.27016 -10.26966
 Alpha  occ. eigenvalues --  -10.26949 -10.26840 -10.26738 -10.26738 -10.26621
 Alpha  occ. eigenvalues --  -10.26603 -10.26544 -10.26494 -10.26482 -10.26356
 Alpha  occ. eigenvalues --  -10.26247 -10.26111 -10.25994 -10.25951 -10.25582
 Alpha  occ. eigenvalues --  -10.25530 -10.25501 -10.25476 -10.25324 -10.25118
 Alpha  occ. eigenvalues --  -10.24779  -3.18636  -3.17212  -1.93515  -1.93125
 Alpha  occ. eigenvalues --   -1.92903  -1.92074  -1.91672  -1.91531  -1.17267
 Alpha  occ. eigenvalues --   -1.16066  -1.10397  -1.09952  -1.08979  -1.08963
 Alpha  occ. eigenvalues --   -1.07534  -1.07278  -1.04951  -1.04570  -1.04425
 Alpha  occ. eigenvalues --   -1.03982  -1.03557  -1.03324  -1.02615  -1.02164
 Alpha  occ. eigenvalues --   -0.93176  -0.92918  -0.89859  -0.89582  -0.89408
 Alpha  occ. eigenvalues --   -0.89368  -0.88894  -0.88370  -0.88245  -0.87704
 Alpha  occ. eigenvalues --   -0.87514  -0.86322  -0.85793  -0.85200  -0.84730
 Alpha  occ. eigenvalues --   -0.84566  -0.84148  -0.84130  -0.82854  -0.82704
 Alpha  occ. eigenvalues --   -0.82437  -0.81679  -0.81385  -0.80867  -0.80505
 Alpha  occ. eigenvalues --   -0.80189  -0.78406  -0.77929  -0.77495  -0.77319
 Alpha  occ. eigenvalues --   -0.76849  -0.76838  -0.76283  -0.76040  -0.75183
 Alpha  occ. eigenvalues --   -0.75123  -0.73312  -0.72691  -0.71867  -0.71680
 Alpha  occ. eigenvalues --   -0.69619  -0.69483  -0.68864  -0.68801  -0.68653
 Alpha  occ. eigenvalues --   -0.68313  -0.67074  -0.66758  -0.65971  -0.65847
 Alpha  occ. eigenvalues --   -0.65566  -0.65069  -0.64777  -0.64531  -0.64458
 Alpha  occ. eigenvalues --   -0.64368  -0.63261  -0.62101  -0.60824  -0.59993
 Alpha  occ. eigenvalues --   -0.59874  -0.59404  -0.59064  -0.58930  -0.58867
 Alpha  occ. eigenvalues --   -0.58441  -0.58127  -0.57930  -0.57370  -0.57177
 Alpha  occ. eigenvalues --   -0.56549  -0.56243  -0.56099  -0.55529  -0.55523
 Alpha  occ. eigenvalues --   -0.55411  -0.55095  -0.54711  -0.54592  -0.54467
 Alpha  occ. eigenvalues --   -0.54061  -0.53795  -0.53450  -0.53182  -0.53035
 Alpha  occ. eigenvalues --   -0.52840  -0.52794  -0.52516  -0.52360  -0.52274
 Alpha  occ. eigenvalues --   -0.52145  -0.52100  -0.51600  -0.51416  -0.51408
 Alpha  occ. eigenvalues --   -0.51176  -0.51139  -0.50922  -0.50858  -0.50616
 Alpha  occ. eigenvalues --   -0.50178  -0.50120  -0.49817  -0.49598  -0.49460
 Alpha  occ. eigenvalues --   -0.49400  -0.49243  -0.49157  -0.48930  -0.48912
 Alpha  occ. eigenvalues --   -0.48753  -0.48723  -0.48584  -0.48466  -0.48353
 Alpha  occ. eigenvalues --   -0.48200  -0.47566  -0.47542  -0.47339  -0.47187
 Alpha  occ. eigenvalues --   -0.47093  -0.47090  -0.46889  -0.46768  -0.46751
 Alpha  occ. eigenvalues --   -0.46680  -0.46367  -0.46082  -0.45994  -0.45872
 Alpha  occ. eigenvalues --   -0.45799  -0.45634  -0.45491  -0.45223  -0.45151
 Alpha  occ. eigenvalues --   -0.44917  -0.44790  -0.44654  -0.44513  -0.44375
 Alpha  occ. eigenvalues --   -0.44352  -0.44038  -0.43896  -0.43727  -0.43592
 Alpha  occ. eigenvalues --   -0.43500  -0.43220  -0.42794  -0.42606  -0.42574
 Alpha  occ. eigenvalues --   -0.42514  -0.42373  -0.42180  -0.42153  -0.42117
 Alpha  occ. eigenvalues --   -0.41992  -0.41917  -0.41883  -0.41399  -0.41103
 Alpha  occ. eigenvalues --   -0.40868  -0.40769  -0.40755  -0.40616  -0.40390
 Alpha  occ. eigenvalues --   -0.39906  -0.39800  -0.39767  -0.39129  -0.39004
 Alpha  occ. eigenvalues --   -0.38634  -0.38445  -0.37942  -0.37865  -0.37756
 Alpha  occ. eigenvalues --   -0.37326  -0.37025  -0.36767  -0.36435  -0.36435
 Alpha  occ. eigenvalues --   -0.36309  -0.35756  -0.35103  -0.34730  -0.34217
 Alpha  occ. eigenvalues --   -0.34214  -0.33948  -0.33012  -0.31521  -0.31368
 Alpha  occ. eigenvalues --   -0.31100  -0.30995  -0.30835  -0.30525  -0.30086
 Alpha  occ. eigenvalues --   -0.29892  -0.29644  -0.28925  -0.24848  -0.24297
 Alpha  occ. eigenvalues --   -0.21574  -0.21034
 Alpha virt. eigenvalues --   -0.09436  -0.08768  -0.01806  -0.01777   0.00061
 Alpha virt. eigenvalues --    0.00225   0.00719   0.01387   0.02302   0.02534
 Alpha virt. eigenvalues --    0.05065   0.05099   0.05355   0.05442   0.05527

 Mulliken charges:
               1
     1  Mg   0.832670
     2  C   -0.065664
     3  C   -0.082044
     4  C   -0.051793
     5  C   -0.084023
     6  N   -0.298321
     7  C   -0.025742
     8  C    0.018484
     9  C   -0.084321
    10  C    0.035900
    11  C    0.085087
    12  C    0.008045
    13  C   -0.055388
    14  H    0.025607
    15  N   -0.351555
    16  C    0.137600
    17  C   -0.183560
    18  C   -0.001202
    19  C    0.138255
    20  C    0.160168
    21  C   -0.032206
    22  O   -0.208009
    23  C    0.057952
    24  N   -0.289605
    25  C    0.015938
    26  C   -0.027207
    27  C   -0.062444
    28  C    0.016048
    29  C    0.089662
    30  C    0.056692
    31  C    0.010048
    32  N   -0.344920
    33  C    0.137324
    34  C   -0.195230
    35  C   -0.004561
    36  C    0.133964
    37  C    0.146314
    38  C    0.051150
    39  O   -0.170179
    40  C    0.007114
    41  C    0.186982
    42  O   -0.180851
    43  O   -0.345810
    44  C    0.175728
    45  H   -0.026768
    46  H   -0.055769
    47  H   -0.024595
    48  H    0.014511
    49  H    0.028531
    50  H    0.016119
    51  H    0.023350
    52  H    0.024267
    53  H   -0.007045
    54  H   -0.001136
    55  H    0.031197
    56  H    0.037589
    57  H    0.042162
    58  H   -0.001157
    59  H    0.032033
    60  H    0.043791
    61  H    0.018223
    62  H    0.031543
    63  H    0.006981
    64  H    0.007302
    65  H    0.018880
    66  H    0.023714
    67  H    0.006499
    68  H    0.033442
    69  H   -0.000388
    70  H    0.016224
    71  H    0.005076
    72  H    0.014072
    73  H    0.046704
    74  H    0.016334
    75  H    0.034076
    76  H    0.033936
    77  H    0.056583
    78  H    0.035114
    79  H    0.036506
    80  Mg   0.825742
    81  C    0.014996
    82  C   -0.063877
    83  C   -0.034221
    84  C   -0.085350
    85  N   -0.280218
    86  C   -0.033856
    87  C   -0.003228
    88  C   -0.057125
    89  C    0.023953
    90  C    0.072824
    91  C    0.009599
    92  C   -0.045309
    93  H    0.044343
    94  N   -0.376631
    95  C    0.139194
    96  C   -0.133828
    97  C   -0.051401
    98  C    0.179068
    99  C    0.139778
   100  C    0.018649
   101  O   -0.238568
   102  C    0.063278
   103  N   -0.229404
   104  C   -0.016336
   105  C   -0.028406
   106  C    0.002427
   107  C    0.020897
   108  C    0.047900
   109  C    0.001443
   110  C   -0.010159
   111  N   -0.376933
   112  C    0.118693
   113  C   -0.164266
   114  C    0.035731
   115  C    0.123809
   116  C    0.127121
   117  C    0.044446
   118  O   -0.184637
   119  C   -0.043085
   120  C    0.174940
   121  O   -0.212642
   122  O   -0.339373
   123  C    0.178599
   124  H   -0.010750
   125  H   -0.063769
   126  H   -0.026760
   127  H    0.025715
   128  H    0.012677
   129  H    0.017974
   130  H    0.013822
   131  H    0.020185
   132  H    0.032660
   133  H    0.017015
   134  H    0.030250
   135  H    0.015992
   136  H    0.037334
   137  H    0.022783
   138  H   -0.020560
   139  H    0.042047
   140  H    0.019784
   141  H    0.027508
   142  H    0.019074
   143  H    0.008022
   144  H    0.006125
   145  H    0.010320
   146  H    0.018157
   147  H    0.012610
   148  H    0.017109
   149  H    0.010562
   150  H    0.016141
   151  H    0.026447
   152  H    0.022171
   153  H    0.042421
   154  H    0.050407
   155  H    0.029672
   156  H    0.033781
   157  H    0.019902
   158  H    0.044596
 Sum of Mulliken charges =  -0.00000

 Dipole moment (field-independent basis, Debye):
    X=              1.1000    Y=              4.1994    Z=             -4.9588  Tot=              6.5905
 Quadrupole moment (field-independent basis, Debye-Ang):
   XX=           -494.2480   YY=           -499.3764   ZZ=           -507.2776
   XY=             57.7364   XZ=            -11.7252   YZ=             -8.6409

 Normal termination of Gaussian 16 at Tue Sep 14 17:47:54 2021.
