 Gaussian 16, Revision A.03,
 Gaussian 16:  ES64L-G16RevA.03 25-Dec-2016

 ----------------------------------------------------------
 #p cam-b3lyp/Def2SVP td=(nstates=5) density=(transition=1)
 ----------------------------------------------------------

 --------------------------------
 TDDFT excited states in gaussian
 --------------------------------
 Symbolic Z-matrix:
 Charge =  0 Multiplicity = 1

                         Standard orientation:
 ---------------------------------------------------------------------
 Center     Atomic      Atomic             Coordinates (Angstroms)
 Number     Number       Type             X           Y           Z
 ---------------------------------------------------------------------
      1         12           0      -33.193931   -0.031348   -0.382045
      2          6           0      -29.954521    1.172104   -0.025585
      3          6           0      -31.779300   -3.293868    0.025795
      4          6           0      -36.229527   -1.280374   -0.207761
      5          6           0      -34.375324    3.261420   -0.036056
      6          7           0      -31.127505   -0.915851    0.079312
      7          6           0      -29.961380   -0.183779    0.078644
      8          6           0      -28.763277   -1.101368    0.337191
      9          6           0      -29.374795   -2.503376    0.063974
     10          6           0      -30.860263   -2.256840    0.094133
     11          6           0      -28.977278   -3.253048   -1.267847
     12          6           0      -28.183136   -0.951606    1.753178
     13          6           0      -26.922277   -1.684563    2.010387
     14          1           0      -26.024082   -1.173059    3.200642
     15          7           0      -33.938364   -2.032840   -0.111983
     16          6           0      -33.203486   -3.222764    0.006903
     17          6           0      -34.134315   -4.310871    0.119523
     18          6           0      -35.452604   -3.726913    0.191761
     19          6           0      -35.241842   -2.262190   -0.075717
     20          6           0      -33.689280   -5.787467    0.307957
     21          6           0      -36.717644   -4.563456    0.408243
     22          8           0      -36.696366   -5.782878    0.384437
     23          6           0      -38.004917   -3.870246    0.644625
     24          7           0      -35.039937    0.896058   -0.376329
     25          6           0      -36.144298    0.142485   -0.344875
     26          6           0      -37.416594    1.067017   -0.170931
     27          6           0      -36.867069    2.540664   -0.054362
     28          6           0      -35.274061    2.222202   -0.107735
     29          6           0      -38.572964    0.895142   -1.190696
     30          6           0      -37.282363    3.160530    1.297044
     31          6           0      -37.456161    4.684161    1.290850
     32          7           0      -32.399919    1.890533   -0.089710
     33          6           0      -32.971445    3.132087   -0.095208
     34          6           0      -31.900428    4.135753   -0.102274
     35          6           0      -30.739268    3.413485   -0.168724
     36          6           0      -31.057202    2.076414   -0.092530
     37          6           0      -32.087569    5.654474   -0.178546
     38          6           0      -29.312045    3.527599   -0.194137
     39          8           0      -28.577298    4.483168   -0.243284
     40          6           0      -28.741974    2.071885   -0.116949
     41          6           0      -28.015551    1.806799   -1.389145
     42          8           0      -28.413822    1.994780   -2.505162
     43          8           0      -26.808465    1.153456   -1.085807
     44          6           0      -26.019047    0.752416   -2.215377
     45          1           0      -31.246296   -4.245806    0.061163
     46          1           0      -37.288554   -1.546950   -0.179998
     47          1           0      -34.706445    4.301452    0.001335
     48          1           0      -28.049825   -0.887315   -0.457437
     49          1           0      -29.228750   -3.247273    0.846385
     50          1           0      -28.661790   -4.239380   -0.928341
     51          1           0      -28.424765   -2.692845   -2.022647
     52          1           0      -29.909434   -3.445989   -1.798643
     53          1           0      -28.801396   -1.346434    2.559841
     54          1           0      -28.037753    0.104013    1.982862
     55          1           0      -26.350165   -1.654019    1.083104
     56          1           0      -27.153997   -2.737763    2.168105
     57          1           0      -33.927882   -5.862783    1.369331
     58          1           0      -32.615386   -5.971547    0.270835
     59          1           0      -34.123043   -6.622049   -0.243188
     60          1           0      -37.783707   -3.142980    1.425801
     61          1           0      -38.712536   -4.590905    1.054854
     62          1           0      -38.237362   -3.432762   -0.326603
     63          1           0      -37.858804    0.771838    0.781024
     64          1           0      -37.131322    3.201201   -0.879560
     65          1           0      -39.392258    0.381930   -0.686232
     66          1           0      -38.182633    0.393036   -2.075305
     67          1           0      -38.989042    1.870671   -1.442252
     68          1           0      -36.497352    2.862322    1.991511
     69          1           0      -38.172042    2.710685    1.738193
     70          1           0      -38.485213    4.811551    1.628638
     71          1           0      -37.237779    5.162275    0.335876
     72          1           0      -36.820098    5.139992    2.049724
     73          1           0      -31.467723    6.252943    0.488261
     74          1           0      -33.151650    5.757452    0.035440
     75          1           0      -32.041956    5.907712   -1.237857
     76          1           0      -28.066337    2.054376    0.738302
     77          1           0      -25.145598    1.404467   -2.225548
     78          1           0      -26.466985    0.752359   -3.209374
     79          1           0      -25.718827   -0.281635   -2.048124
     80         12           0       33.018726    0.304517   -0.361417
     81          6           0       30.238457   -1.186847    1.120303
     82          6           0       32.302051    3.223048    1.327705
     83          6           0       35.734267    1.474133   -1.784841
     84          6           0       34.224826   -3.033911   -1.187709
     85          7           0       31.325481    0.932588    1.065143
     86          6           0       30.315410    0.154972    1.557785
     87          6           0       29.411974    0.948417    2.433563
     88          6           0       30.110983    2.362900    2.530353
     89          6           0       31.357108    2.212600    1.573065
     90          6           0       29.169463    3.569167    2.286819
     91          6           0       29.208010    0.311700    3.829781
     92          6           0       27.720729    0.182936    4.154238
     93          1           0       27.224557    0.783054    5.504304
     94          7           0       33.882221    2.124867   -0.265817
     95          6           0       33.433933    3.237319    0.444827
     96          6           0       34.347232    4.316590    0.091991
     97          6           0       35.359995    3.836457   -0.861900
     98          6           0       34.986370    2.403896   -1.084263
     99          6           0       34.330217    5.602590    0.753623
    100          6           0       36.513403    4.657580   -1.266442
    101          8           0       36.692708    5.804281   -0.913092
    102          6           0       37.651625    4.146968   -2.079209
    103          7           0       34.679838   -0.637287   -1.265669
    104          6           0       35.534040    0.118292   -2.028228
    105          6           0       36.562725   -0.770834   -2.694473
    106          6           0       36.339881   -2.104835   -2.086195
    107          6           0       35.064740   -1.942113   -1.420525
    108          6           0       36.576536   -0.713812   -4.276995
    109          6           0       37.384920   -2.458217   -0.972903
    110          6           0       37.693041   -3.872069   -0.788837
    111          7           0       32.385722   -1.735896   -0.136516
    112          6           0       32.923047   -2.956005   -0.567234
    113          6           0       31.932820   -3.976911   -0.425551
    114          6           0       30.888994   -3.365998    0.259244
    115          6           0       31.227059   -1.979617    0.456252
    116          6           0       32.112685   -5.375852   -0.887511
    117          6           0       29.639254   -3.592566    0.868680
    118          8           0       28.986753   -4.608837    0.955080
    119          6           0       29.148557   -2.222782    1.388214
    120          6           0       27.839522   -1.922096    0.786986
    121          8           0       27.656709   -1.376689   -0.314427
    122          8           0       26.842162   -2.479123    1.554103
    123          6           0       25.445662   -2.239894    1.228024
    124          1           0       31.979580    4.129207    1.843692
    125          1           0       36.688468    1.712224   -2.261469
    126          1           0       34.614101   -4.011983   -1.478122
    127          1           0       28.552771    1.168435    1.799328
    128          1           0       30.504215    2.587351    3.521386
    129          1           0       28.184235    3.128586    2.444232
    130          1           0       29.290497    4.101217    1.343164
    131          1           0       29.326859    4.322623    3.058206
    132          1           0       29.576059    0.921884    4.654388
    133          1           0       29.713624   -0.653291    3.799472
    134          1           0       27.665553   -0.897353    4.287702
    135          1           0       27.169028    0.512581    3.275098
    136          1           0       33.500381    5.605929    1.460672
    137          1           0       34.124359    6.464546    0.118285
    138          1           0       35.253956    5.729090    1.319344
    139          1           0       37.088473    3.648636   -2.868296
    140          1           0       38.212841    3.429427   -1.480068
    141          1           0       38.256921    4.964784   -2.470826
    142          1           0       37.506932   -0.326732   -2.381434
    143          1           0       36.172987   -2.949136   -2.755156
    144          1           0       35.954820    0.107030   -4.634959
    145          1           0       36.384947   -1.665761   -4.773390
    146          1           0       37.528208   -0.374511   -4.685073
    147          1           0       37.056630   -2.029652   -0.025903
    148          1           0       38.342214   -1.979861   -1.179342
    149          1           0       38.491950   -4.146462   -1.478572
    150          1           0       36.814631   -4.506697   -0.910639
    151          1           0       38.214289   -4.012816    0.158598
    152          1           0       32.645079   -5.411577   -1.837879
    153          1           0       31.184298   -5.943471   -0.952806
    154          1           0       32.812643   -5.794163   -0.164140
    155          1           0       28.884199   -2.240350    2.445609
    156          1           0       25.014674   -2.725950    0.352693
    157          1           0       25.263607   -1.166658    1.175957
    158          1           0       24.902849   -2.692148    2.057208
 ---------------------------------------------------------------------

 SCF Done:  E(RCAM-B3LYP) =  -4069.78602465     A.U. after   18 cycles

 Excitation energies and oscillator strengths:

 Excited State   1:      Singlet-A      1.6751 eV  740.15 nm  f=0.3675  <S**2>=0.000
     310 -> 315       -0.18827
     312 -> 313        0.68340
     310 <- 315       -0.11090
 This state for optimization and/or second-order correction.
 Total Energy, E(TD-HF/TD-DFT) =  -4069.72446502
 Copying the excited state density for this state as the 1-particle RhoCI density.

 Excited State   2:      Singlet-A      1.7655 eV  702.26 nm  f=0.3960  <S**2>=0.000
     309 -> 316       -0.17238
     311 -> 314        0.68748
     309 <- 316       -0.10344

 Excited State   3:      Singlet-A      2.1859 eV  567.20 nm  f=0.1027  <S**2>=0.000
     310 -> 313        0.63557
     312 -> 315        0.29758

 Excited State   4:      Singlet-A      2.2943 eV  540.41 nm  f=0.1179  <S**2>=0.000
     309 -> 314        0.63740
     311 -> 316        0.29060

 Excited State   5:      Singlet-A      3.2586 eV  380.48 nm  f=0.0000  <S**2>=0.000
     311 -> 313        0.70711

 The electronic state is 1-A.
 Alpha  occ. eigenvalues --  -46.89665 -46.88951 -19.24949 -19.24879 -19.20501
 Alpha  occ. eigenvalues --  -19.19373 -19.18695 -19.18532 -19.18365 -19.17388
 Alpha  occ. eigenvalues --  -14.42661 -14.42349 -14.42334 -14.41939 -14.40276
 Alpha  occ. eigenvalues --  -14.40231 -14.39177 -14.39099 -10.39510 -10.39099
 Alpha  occ. eigenvalues --  -10.34864 -10.34218 -10.34158 -10.33712 -10.32365
 Alpha  occ. eigenvalues --  -10.31687 -10.31629 -10.31598 -10.31580 -10.31577
 Alpha  occ. eigenvalues --  -10.31228 -10.31181 -10.31123 -10.31081 -10.31071
 Alpha  occ. eigenvalues --  -10.31059 -10.30566 -10.30482 -10.29874 -10.29546
 Alpha  occ. eigenvalues --  -10.29237 -10.29101 -10.28994 -10.28592 -10.28563
 Alpha  occ. eigenvalues --  -10.28555 -10.28380 -10.28352 -10.28325 -10.28253
 Alpha  occ. eigenvalues --  -10.28234 -10.28227 -10.28191 -10.28173 -10.28132
 Alpha  occ. eigenvalues --  -10.27977 -10.27907 -10.27819 -10.27792 -10.27750
 Alpha  occ. eigenvalues --  -10.27747 -10.27529 -10.27416 -10.27369 -10.27303
 Alpha  occ. eigenvalues --  -10.27216 -10.27184 -10.27149 -10.26925 -10.26803
 Alpha  occ. eigenvalues --  -10.26803 -10.26540 -10.26503 -10.26475 -10.26449
 Alpha  occ. eigenvalues --  -10.26409 -10.26245 -10.26231 -10.26080 -10.26063
 Alpha  occ. eigenvalues --  -10.25630 -10.25559 -10.25194 -10.24872 -10.24731
 Alpha  occ. eigenvalues --  -10.23988  -3.18086  -3.17441  -1.92993  -1.92544
 Alpha  occ. eigenvalues --   -1.92374  -1.92344  -1.91905  -1.91731  -1.16623
 Alpha  occ. eigenvalues --   -1.15458  -1.10342  -1.10122  -1.10065  -1.09851
 Alpha  occ. eigenvalues --   -1.08833  -1.06718  -1.04993  -1.04598  -1.03810
 Alpha  occ. eigenvalues --   -1.03794  -1.03726  -1.02996  -1.02828  -1.01580
 Alpha  occ. eigenvalues --   -0.93270  -0.92661  -0.90773  -0.89601  -0.89420
 Alpha  occ. eigenvalues --   -0.89238  -0.89058  -0.88843  -0.88098  -0.87717
 Alpha  occ. eigenvalues --   -0.87250  -0.86464  -0.86304  -0.85953  -0.85271
 Alpha  occ. eigenvalues --   -0.85218  -0.84551  -0.84053  -0.83464  -0.83168
 Alpha  occ. eigenvalues --   -0.82592  -0.82580  -0.81418  -0.81305  -0.80857
 Alpha  occ. eigenvalues --   -0.80832  -0.78678  -0.77984  -0.77765  -0.77357
 Alpha  occ. eigenvalues --   -0.77128  -0.77117  -0.76315  -0.76210  -0.75531
 Alpha  occ. eigenvalues --   -0.75391  -0.73417  -0.73252  -0.72051  -0.72041
 Alpha  occ. eigenvalues --   -0.69345  -0.69341  -0.69116  -0.69077  -0.68001
 Alpha  occ. eigenvalues --   -0.67794  -0.67524  -0.66771  -0.66475  -0.66103
 Alpha  occ. eigenvalues --   -0.65938  -0.65585  -0.65282  -0.64985  -0.64691
 Alpha  occ. eigenvalues --   -0.64620  -0.62702  -0.62041  -0.60747  -0.60245
 Alpha  occ. eigenvalues --   -0.59903  -0.59504  -0.59472  -0.59318  -0.58969
 Alpha  occ. eigenvalues --   -0.58860  -0.58464  -0.57924  -0.57578  -0.57420
 Alpha  occ. eigenvalues --   -0.56510  -0.56413  -0.55908  -0.55906  -0.55489
 Alpha  occ. eigenvalues --   -0.55482  -0.55152  -0.54935  -0.54441  -0.54394
 Alpha  occ. eigenvalues --   -0.54250  -0.54032  -0.53578  -0.53324  -0.53201
 Alpha  occ. eigenvalues --   -0.53155  -0.52839  -0.52651  -0.52556  -0.52298
 Alpha  occ. eigenvalues --   -0.52103  -0.51911  -0.51749  -0.51729  -0.51689
 Alpha  occ. eigenvalues --   -0.51662  -0.51292  -0.51238  -0.50847  -0.50742
 Alpha  occ. eigenvalues --   -0.50421  -0.50372  -0.50292  -0.50015  -0.49882
 Alpha  occ. eigenvalues --   -0.49664  -0.49394  -0.49323  -0.49126  -0.49052
 Alpha  occ. eigenvalues --   -0.48864  -0.48857  -0.48569  -0.48516  -0.48303
 Alpha  occ. eigenvalues --   -0.48108  -0.47628  -0.47545  -0.47385  -0.47160
 Alpha  occ. eigenvalues --   -0.47141  -0.47100  -0.47007  -0.46797  -0.46607
 Alpha  occ. eigenvalues --   -0.46472  -0.46408  -0.46322  -0.46216  -0.46154
 Alpha  occ. eigenvalues --   -0.45813  -0.45746  -0.45332  -0.45313  -0.45137
 Alpha  occ. eigenvalues --   -0.44941  -0.44680  -0.44593  -0.44486  -0.44173
 Alpha  occ. eigenvalues --   -0.44055  -0.43919  -0.43699  -0.43691  -0.43435
 Alpha  occ. eigenvalues --   -0.43324  -0.43242  -0.43238  -0.43070  -0.42974
 Alpha  occ. eigenvalues --   -0.42962  -0.42721  -0.42572  -0.42387  -0.42300
 Alpha  occ. eigenvalues --   -0.42092  -0.42039  -0.41868  -0.41671  -0.41591
 Alpha  occ. eigenvalues --   -0.41546  -0.41341  -0.41176  -0.40680  -0.40615
 Alpha  occ. eigenvalues --   -0.40271  -0.40269  -0.39924  -0.39720  -0.39219
 Alpha  occ. eigenvalues --   -0.38824  -0.38493  -0.38052  -0.37744  -0.37680
 Alpha  occ. eigenvalues --   -0.37339  -0.36979  -0.36912  -0.36525  -0.36392
 Alpha  occ. eigenvalues --   -0.36327  -0.36095  -0.35253  -0.34355  -0.34251
 Alpha  occ. eigenvalues --   -0.33729  -0.33721  -0.33036  -0.31770  -0.31390
 Alpha  occ. eigenvalues --   -0.31041  -0.30686  -0.30661  -0.30128  -0.29953
 Alpha  occ. eigenvalues --   -0.29888  -0.29664  -0.29448  -0.24673  -0.24316
 Alpha  occ. eigenvalues --   -0.21668  -0.21582
 Alpha virt. eigenvalues --   -0.09171  -0.09037  -0.02519  -0.01944   0.00242
 Alpha virt. eigenvalues --    0.00914   0.02029   0.02341   0.02666   0.02724
 Alpha virt. eigenvalues --    0.04078   0.04410   0.04986   0.05395   0.05451

 Mulliken charges:
               1
     1  Mg  11.999992
     2  C    6.000009
     3  C    6.000025
     4  C    6.000000
     5  C    5.999967
     6  N    6.999992
     7  C    5.999973
     8  C    6.000020
     9  C    5.999991
    10  C    6.000001
    11  C    6.000002
    12  C    6.000000
    13  C    5.999990
    14  H    1.000017
    15  N    6.999984
    16  C    5.999984
    17  C    6.000013
    18  C    5.999970
    19  C    6.000019
    20  C    6.000007
    21  C    6.000027
    22  O    8.000009
    23  C    6.000001
    24  N    7.000017
    25  C    6.000006
    26  C    5.999988
    27  C    5.999996
    28  C    6.000004
    29  C    5.999997
    30  C    6.000005
    31  C    6.000005
    32  N    7.000012
    33  C    6.000021
    34  C    5.999954
    35  C    6.000053
    36  C    6.000008
    37  C    5.999991
    38  C    5.999953
    39  O    7.999986
    40  C    6.000002
    41  C    5.999992
    42  O    7.999996
    43  O    8.000005
    44  C    6.000000
    45  H    1.000031
    46  H    0.999994
    47  H    0.999974
    48  H    1.000008
    49  H    1.000013
    50  H    1.000018
    51  H    1.000019
    52  H    0.999993
    53  H    0.999993
    54  H    1.000001
    55  H    1.000010
    56  H    1.000003
    57  H    1.000016
    58  H    1.000026
    59  H    1.000023
    60  H    1.000006
    61  H    1.000011
    62  H    1.000002
    63  H    0.999997
    64  H    0.999988
    65  H    0.999995
    66  H    1.000001
    67  H    0.999998
    68  H    1.000005
    69  H    0.999982
    70  H    0.999986
    71  H    0.999998
    72  H    0.999999
    73  H    0.999977
    74  H    0.999975
    75  H    0.999973
    76  H    0.999999
    77  H    0.999998
    78  H    0.999995
    79  H    1.000010
    80  Mg  12.001303
    81  C    6.017975
    82  C    5.979229
    83  C    5.975441
    84  C    6.023878
    85  N    7.004607
    86  C    5.965945
    87  C    6.014202
    88  C    5.990984
    89  C    6.029877
    90  C    5.996885
    91  C    6.001076
    92  C    6.001153
    93  H    0.991885
    94  N    6.985791
    95  C    6.050829
    96  C    6.020510
    97  C    6.012751
    98  C    6.044734
    99  C    5.987885
   100  C    6.006762
   101  O    8.018373
   102  C    5.998806
   103  N    7.007561
   104  C    6.034738
   105  C    5.992088
   106  C    6.007730
   107  C    5.961000
   108  C    5.998811
   109  C    6.008239
   110  C    6.000834
   111  N    7.005895
   112  C    5.951312
   113  C    5.976001
   114  C    5.994897
   115  C    5.963718
   116  C    6.001997
   117  C    5.982606
   118  O    7.967166
   119  C    6.002679
   120  C    5.995044
   121  O    7.991941
   122  O    8.000452
   123  C    6.003750
   124  H    1.009812
   125  H    1.011088
   126  H    0.991071
   127  H    0.995943
   128  H    1.000947
   129  H    1.012392
   130  H    0.997256
   131  H    0.999910
   132  H    0.991876
   133  H    1.007404
   134  H    1.004241
   135  H    0.999344
   136  H    1.020790
   137  H    1.023223
   138  H    1.021249
   139  H    1.005885
   140  H    1.010701
   141  H    1.012486
   142  H    0.999657
   143  H    1.002218
   144  H    0.997458
   145  H    1.013025
   146  H    1.002114
   147  H    0.994328
   148  H    0.985150
   149  H    0.994534
   150  H    1.006217
   151  H    0.996197
   152  H    0.980370
   153  H    0.985617
   154  H    0.980944
   155  H    0.990548
   156  H    0.997052
   157  H    0.993634
   158  H    0.995982
 Sum of Mulliken charges = 624.00000

 Dipole moment (field-independent basis, Debye):
    X=              4.3763    Y=              9.7946    Z=             -0.7767  Tot=             10.7559
 Quadrupole moment (field-independent basis, Debye-Ang):
   XX=            284.4129   YY=              4.0208   ZZ=              1.7122
   XY=            326.3460   XZ=            -26.6778   YZ=             -1.2188

 Normal termination of Gaussian 16 at Thu Sep 23 12:11:22 2021.
