 Gaussian 16, Revision A.03,
 Gaussian 16:  ES64L-G16RevA.03 25-Dec-2016

 -----------------------------------
 #p cam-b3lyp/Def2SVP td=(nstates=5)
 -----------------------------------

 --------------------------------
 TDDFT excited states in gaussian
 --------------------------------
 Symbolic Z-matrix:
 Charge =  0 Multiplicity = 1

                         Standard orientation:
 ---------------------------------------------------------------------
 Center     Atomic      Atomic             Coordinates (Angstroms)
 Number     Number       Type             X           Y           Z
 ---------------------------------------------------------------------
      1         12           0      -20.279529    0.702536    0.206038
      2          6           0      -19.292443   -1.885694   -1.783026
      3          6           0      -20.599878   -1.587519    2.883154
      4          6           0      -21.474080    3.168586    2.130844
      5          6           0      -19.868714    2.843383   -2.448539
      6          7           0      -20.291127   -1.506523    0.449975
      7          6           0      -19.729075   -2.352880   -0.514306
      8          6           0      -19.652028   -3.825645   -0.021374
      9          6           0      -20.149759   -3.619898    1.434005
     10          6           0      -20.436321   -2.139491    1.608949
     11          6           0      -21.337580   -4.484639    2.036768
     12          6           0      -18.226052   -4.530384   -0.088358
     13          6           0      -18.268869   -5.980740    0.463112
     14          1           0      -18.141577   -7.045495   -0.627273
     15          7           0      -20.912391    0.778966    2.291422
     16          6           0      -20.729415   -0.215600    3.227952
     17          6           0      -21.276470    0.309543    4.473486
     18          6           0      -21.535406    1.698008    4.237131
     19          6           0      -21.293597    1.962262    2.853672
     20          6           0      -21.379693   -0.543280    5.678748
     21          6           0      -22.144052    2.652384    5.323088
     22          8           0      -22.570374    3.798602    5.075375
     23          6           0      -22.308969    2.170002    6.740691
     24          7           0      -20.631084    2.601401   -0.101064
     25          6           0      -21.162580    3.497397    0.868721
     26          6           0      -21.582259    4.801059    0.228233
     27          6           0      -20.660413    4.803041   -0.989710
     28          6           0      -20.300948    3.338707   -1.197622
     29          6           0      -23.099838    4.833571   -0.155365
     30          6           0      -19.350027    5.584868   -0.746973
     31          6           0      -19.349312    7.072299   -0.977265
     32          7           0      -19.740398    0.609641   -1.781732
     33          6           0      -19.465306    1.547484   -2.702531
     34          6           0      -19.049601    0.912447   -3.918162
     35          6           0      -18.941125   -0.429575   -3.621458
     36          6           0      -19.334178   -0.568053   -2.281205
     37          6           0      -18.722457    1.679288   -5.151803
     38          6           0      -18.583501   -1.669106   -4.166634
     39          8           0      -18.158279   -1.978632   -5.262881
     40          6           0      -18.798505   -2.703771   -2.964642
     41          6           0      -19.749163   -3.750212   -3.427716
     42          8           0      -20.920734   -3.610496   -3.682041
     43          8           0      -19.186254   -4.961908   -3.399334
     44          6           0      -20.071043   -6.123208   -3.799076
     45          1           0      -20.523612   -2.318221    3.690881
     46          1           0      -21.855889    3.984207    2.748189
     47          1           0      -19.593501    3.473466   -3.296477
     48          1           0      -20.377362   -4.414977   -0.582428
     49          1           0      -19.326379   -3.796792    2.126646
     50          1           0      -21.248347   -4.762057    3.087427
     51          1           0      -21.581680   -5.300877    1.356630
     52          1           0      -22.183827   -3.797826    2.045496
     53          1           0      -17.581675   -3.843617    0.459113
     54          1           0      -17.898591   -4.536776   -1.127906
     55          1           0      -19.138452   -6.107665    1.107953
     56          1           0      -17.384401   -6.098058    1.088565
     57          1           0      -22.437808   -0.716801    5.875603
     58          1           0      -20.783304   -0.046848    6.444254
     59          1           0      -20.876303   -1.497398    5.522013
     60          1           0      -22.686878    2.979061    7.365765
     61          1           0      -21.285096    2.007830    7.080356
     62          1           0      -22.897553    1.265391    6.891230
     63          1           0      -21.398720    5.644527    0.894375
     64          1           0      -21.136787    5.183806   -1.892908
     65          1           0      -23.296235    4.218243   -1.032513
     66          1           0      -23.424387    5.860010   -0.328270
     67          1           0      -23.624605    4.447157    0.717670
     68          1           0      -18.503241    5.173922   -1.295214
     69          1           0      -19.006768    5.409003    0.272606
     70          1           0      -19.078770    7.533014   -0.027615
     71          1           0      -20.407463    7.299333   -1.108077
     72          1           0      -18.756394    7.399063   -1.831688
     73          1           0      -17.647293    1.838191   -5.225024
     74          1           0      -19.288238    2.586954   -5.364124
     75          1           0      -18.971581    1.008209   -5.973991
     76          1           0      -17.835041   -3.155389   -2.727142
     77          1           0      -20.986930   -6.040392   -3.213519
     78          1           0      -19.638166   -7.095325   -3.561609
     79          1           0      -20.274486   -6.032717   -4.866319
     80         12           0       20.647316    0.551051   -0.462515
     81          6           0       18.364975   -2.067080   -0.094689
     82          6           0       23.070187   -1.613957    0.855384
     83          6           0       22.812568    3.091801   -0.227452
     84          6           0       18.002845    2.737262   -0.728138
     85          7           0       20.758774   -1.687690    0.219420
     86          6           0       19.640667   -2.456628    0.303080
     87          6           0       19.991486   -3.883301    0.884749
     88          6           0       21.486515   -3.617809    1.424676
     89          6           0       21.802862   -2.223449    0.858193
     90          6           0       21.403298   -3.496052    2.987766
     91          6           0       19.997568   -4.892523   -0.321684
     92          6           0       20.447248   -6.350466   -0.031855
     93          1           0       21.365726   -7.229719   -0.827258
     94          7           0       22.679433    0.645028    0.024397
     95          6           0       23.548157   -0.344904    0.513317
     96          6           0       24.804008    0.246619    0.712967
     97          6           0       24.802345    1.548939    0.231505
     98          6           0       23.395728    1.811804   -0.024036
     99          6           0       25.955899   -0.578698    1.185187
    100          6           0       25.948536    2.609845    0.142572
    101          8           0       25.824982    3.737994   -0.322137
    102          6           0       27.408395    2.255777    0.438862
    103          7           0       20.397280    2.607765   -0.360798
    104          6           0       21.466036    3.433796   -0.412493
    105          6           0       21.098370    4.903158   -0.697391
    106          6           0       19.547203    4.812435   -0.717773
    107          6           0       19.269002    3.319990   -0.720734
    108          6           0       21.781370    5.940764    0.254188
    109          6           0       18.804558    5.587170   -1.840740
    110          6           0       18.854652    4.999455   -3.187019
    111          7           0       18.600506    0.416489   -0.521181
    112          6           0       17.676119    1.342286   -0.630730
    113          6           0       16.333001    0.765457   -0.748779
    114          6           0       16.610187   -0.623233   -0.539030
    115          6           0       17.971750   -0.781753   -0.369739
    116          6           0       15.135863    1.338238   -1.350324
    117          6           0       15.967460   -1.924361   -0.479138
    118          8           0       14.820828   -2.248840   -0.689873
    119          6           0       17.105410   -2.884678   -0.112419
    120          6           0       16.802143   -3.660246    1.173830
    121          8           0       16.916671   -3.207032    2.282896
    122          8           0       16.315575   -4.904315    0.850429
    123          6           0       16.006089   -5.720759    2.046765
    124          1           0       23.840261   -2.331969    1.142071
    125          1           0       23.515571    3.915345   -0.370758
    126          1           0       17.380381    3.603334   -0.959593
    127          1           0       19.351285   -4.162608    1.721935
    128          1           0       22.213596   -4.380612    1.143354
    129          1           0       21.498271   -2.493683    3.404074
    130          1           0       22.293735   -3.903034    3.467549
    131          1           0       20.503476   -3.934850    3.418425
    132          1           0       20.620325   -4.456676   -1.102440
    133          1           0       18.994164   -4.880790   -0.748153
    134          1           0       19.510590   -6.876532    0.154929
    135          1           0       20.998551   -6.202914    0.895975
    136          1           0       25.728176   -1.619435    1.417187
    137          1           0       26.465146   -0.020290    1.971842
    138          1           0       26.618058   -0.610239    0.319504
    139          1           0       27.599171    2.017411    1.485288
    140          1           0       28.136105    2.976815    0.066174
    141          1           0       27.639905    1.385294   -0.175234
    142          1           0       21.536074    4.962565   -1.693488
    143          1           0       19.250015    5.182620    0.263424
    144          1           0       22.746725    5.574722    0.602196
    145          1           0       21.144554    6.102223    1.124352
    146          1           0       21.987203    6.892212   -0.236638
    147          1           0       19.331607    6.540629   -1.824965
    148          1           0       17.784587    5.805159   -1.523541
    149          1           0       18.080803    4.237518   -3.278990
    150          1           0       19.850064    4.616765   -3.411573
    151          1           0       18.593297    5.725199   -3.957716
    152          1           0       15.509460    2.087002   -2.049208
    153          1           0       14.442884    1.914599   -0.737186
    154          1           0       14.603959    0.513668   -1.823763
    155          1           0       17.232762   -3.578389   -0.944125
    156          1           0       15.135054   -6.337075    1.824958
    157          1           0       15.630689   -5.178086    2.914596
    158          1           0       16.826337   -6.399107    2.279320
 ---------------------------------------------------------------------

 SCF Done:  E(RCAM-B3LYP) =  -4069.84769226     A.U. after   18 cycles

 Excitation energies and oscillator strengths:

 Excited State   1:      Singlet-A      1.6534 eV  749.86 nm  f=0.3910  <S**2>=0.000
     309 -> 315       -0.16013
     311 -> 313        0.69079
     309 <- 315       -0.10388
 This state for optimization and/or second-order correction.
 Total Energy, E(TD-HF/TD-DFT) =  -4069.78692938
 Copying the excited state density for this state as the 1-particle RhoCI density.

 Excited State   2:      Singlet-A      1.7451 eV  710.48 nm  f=0.3907  <S**2>=0.000
     310 -> 316       -0.18611
     312 -> 314        0.68383
     310 <- 316       -0.10700

 Excited State   3:      Singlet-A      2.2510 eV  550.79 nm  f=0.1055  <S**2>=0.000
     309 -> 313        0.63835
     311 -> 315        0.28834

 Excited State   4:      Singlet-A      2.2617 eV  548.19 nm  f=0.1177  <S**2>=0.000
     310 -> 314        0.64500
     312 -> 316        0.27670

 Excited State   5:      Singlet-A      3.0411 eV  407.70 nm  f=0.0000  <S**2>=0.000
     312 -> 313        0.70710

 The electronic state is 1-A.
 Alpha  occ. eigenvalues --  -46.88718 -46.87489 -19.25800 -19.24902 -19.20428
 Alpha  occ. eigenvalues --  -19.19443 -19.19361 -19.18847 -19.18725 -19.18541
 Alpha  occ. eigenvalues --  -14.42706 -14.42256 -14.41728 -14.41072 -14.39157
 Alpha  occ. eigenvalues --  -14.39149 -14.38852 -14.38837 -10.39795 -10.38514
 Alpha  occ. eigenvalues --  -10.36178 -10.35202 -10.34926 -10.34522 -10.32278
 Alpha  occ. eigenvalues --  -10.32041 -10.31830 -10.31344 -10.31089 -10.30642
 Alpha  occ. eigenvalues --  -10.30587 -10.30551 -10.30371 -10.29997 -10.29972
 Alpha  occ. eigenvalues --  -10.29661 -10.29629 -10.29548 -10.29455 -10.29253
 Alpha  occ. eigenvalues --  -10.28980 -10.28968 -10.28710 -10.28688 -10.28587
 Alpha  occ. eigenvalues --  -10.28570 -10.28466 -10.28406 -10.28083 -10.28043
 Alpha  occ. eigenvalues --  -10.27975 -10.27774 -10.27750 -10.27744 -10.27655
 Alpha  occ. eigenvalues --  -10.27610 -10.27517 -10.27442 -10.27436 -10.27356
 Alpha  occ. eigenvalues --  -10.27352 -10.27286 -10.27112 -10.27105 -10.27046
 Alpha  occ. eigenvalues --  -10.26972 -10.26752 -10.26658 -10.26519 -10.26361
 Alpha  occ. eigenvalues --  -10.26338 -10.26203 -10.26151 -10.26002 -10.26001
 Alpha  occ. eigenvalues --  -10.25847 -10.25823 -10.25726 -10.25563 -10.25514
 Alpha  occ. eigenvalues --  -10.25301 -10.25283 -10.25139 -10.25087 -10.25003
 Alpha  occ. eigenvalues --  -10.24307  -3.17281  -3.16269  -1.92168  -1.91750
 Alpha  occ. eigenvalues --   -1.91569  -1.91171  -1.90740  -1.90568  -1.16898
 Alpha  occ. eigenvalues --   -1.16847  -1.10424  -1.10409  -1.10312  -1.08784
 Alpha  occ. eigenvalues --   -1.08268  -1.07128  -1.05427  -1.04982  -1.03909
 Alpha  occ. eigenvalues --   -1.03794  -1.03360  -1.03088  -1.02452  -1.01948
 Alpha  occ. eigenvalues --   -0.93834  -0.93321  -0.89446  -0.89070  -0.88766
 Alpha  occ. eigenvalues --   -0.88649  -0.88576  -0.88259  -0.87893  -0.87496
 Alpha  occ. eigenvalues --   -0.87233  -0.87159  -0.86556  -0.86211  -0.84314
 Alpha  occ. eigenvalues --   -0.84079  -0.83957  -0.83637  -0.82516  -0.82417
 Alpha  occ. eigenvalues --   -0.81569  -0.81549  -0.81201  -0.80938  -0.80624
 Alpha  occ. eigenvalues --   -0.80424  -0.78523  -0.78374  -0.77607  -0.77544
 Alpha  occ. eigenvalues --   -0.77204  -0.76597  -0.76199  -0.76165  -0.75190
 Alpha  occ. eigenvalues --   -0.74874  -0.73207  -0.72494  -0.71812  -0.71797
 Alpha  occ. eigenvalues --   -0.70062  -0.69433  -0.69175  -0.68943  -0.68368
 Alpha  occ. eigenvalues --   -0.68305  -0.67017  -0.66070  -0.65787  -0.65384
 Alpha  occ. eigenvalues --   -0.64942  -0.64839  -0.64610  -0.64453  -0.64173
 Alpha  occ. eigenvalues --   -0.64022  -0.62503  -0.62070  -0.60240  -0.60082
 Alpha  occ. eigenvalues --   -0.59980  -0.59460  -0.59390  -0.59104  -0.58868
 Alpha  occ. eigenvalues --   -0.58648  -0.58313  -0.58254  -0.58006  -0.57361
 Alpha  occ. eigenvalues --   -0.56564  -0.56538  -0.56070  -0.55742  -0.55517
 Alpha  occ. eigenvalues --   -0.55246  -0.55012  -0.54743  -0.54611  -0.54235
 Alpha  occ. eigenvalues --   -0.54026  -0.53453  -0.53338  -0.53260  -0.53152
 Alpha  occ. eigenvalues --   -0.52926  -0.52702  -0.52701  -0.52557  -0.52274
 Alpha  occ. eigenvalues --   -0.52107  -0.51751  -0.51657  -0.51315  -0.51145
 Alpha  occ. eigenvalues --   -0.51027  -0.50612  -0.50359  -0.50296  -0.50239
 Alpha  occ. eigenvalues --   -0.49974  -0.49935  -0.49889  -0.49720  -0.49639
 Alpha  occ. eigenvalues --   -0.49466  -0.49261  -0.49231  -0.48985  -0.48933
 Alpha  occ. eigenvalues --   -0.48834  -0.48748  -0.48507  -0.48249  -0.48071
 Alpha  occ. eigenvalues --   -0.47914  -0.47728  -0.47512  -0.47489  -0.47109
 Alpha  occ. eigenvalues --   -0.47107  -0.46914  -0.46671  -0.46508  -0.46442
 Alpha  occ. eigenvalues --   -0.46128  -0.46021  -0.46012  -0.45841  -0.45749
 Alpha  occ. eigenvalues --   -0.45486  -0.45380  -0.45260  -0.45087  -0.44982
 Alpha  occ. eigenvalues --   -0.44746  -0.44682  -0.44438  -0.44221  -0.44214
 Alpha  occ. eigenvalues --   -0.44091  -0.43866  -0.43740  -0.43701  -0.43678
 Alpha  occ. eigenvalues --   -0.43543  -0.43349  -0.43324  -0.43256  -0.42914
 Alpha  occ. eigenvalues --   -0.42834  -0.42588  -0.42417  -0.42402  -0.41993
 Alpha  occ. eigenvalues --   -0.41859  -0.41796  -0.41670  -0.41614  -0.41539
 Alpha  occ. eigenvalues --   -0.41113  -0.40866  -0.40783  -0.40626  -0.40399
 Alpha  occ. eigenvalues --   -0.40266  -0.40031  -0.39809  -0.39621  -0.38852
 Alpha  occ. eigenvalues --   -0.38488  -0.38426  -0.38046  -0.37859  -0.37759
 Alpha  occ. eigenvalues --   -0.37465  -0.37341  -0.36921  -0.36726  -0.36652
 Alpha  occ. eigenvalues --   -0.36554  -0.36368  -0.34941  -0.34281  -0.34204
 Alpha  occ. eigenvalues --   -0.33996  -0.33265  -0.33174  -0.31453  -0.31447
 Alpha  occ. eigenvalues --   -0.31231  -0.31101  -0.30820  -0.30638  -0.30465
 Alpha  occ. eigenvalues --   -0.30063  -0.29193  -0.29084  -0.24594  -0.23803
 Alpha  occ. eigenvalues --   -0.21102  -0.21085
 Alpha virt. eigenvalues --   -0.09057  -0.08395  -0.01532  -0.01341   0.00421
 Alpha virt. eigenvalues --    0.00424   0.01889   0.02371   0.02546   0.03430
 Alpha virt. eigenvalues --    0.04673   0.05136   0.05377   0.05532   0.06234

 Mulliken charges:
               1
     1  Mg   0.828541
     2  C    0.007467
     3  C   -0.059496
     4  C   -0.069224
     5  C   -0.093591
     6  N   -0.267907
     7  C   -0.051174
     8  C    0.020226
     9  C   -0.103962
    10  C    0.038304
    11  C    0.063736
    12  C    0.034960
    13  C   -0.056575
    14  H    0.031816
    15  N   -0.358575
    16  C    0.139194
    17  C   -0.203033
    18  C   -0.035934
    19  C    0.110405
    20  C    0.139558
    21  C    0.019202
    22  O   -0.225635
    23  C    0.056040
    24  N   -0.391513
    25  C    0.083604
    26  C   -0.019360
    27  C   -0.020622
    28  C    0.118464
    29  C    0.088231
    30  C   -0.004945
    31  C    0.053339
    32  N   -0.339584
    33  C    0.089658
    34  C   -0.168129
    35  C    0.069289
    36  C    0.103923
    37  C    0.107997
    38  C    0.017663
    39  O   -0.153752
    40  C   -0.052443
    41  C    0.180650
    42  O   -0.217075
    43  O   -0.331539
    44  C    0.179200
    45  H   -0.027511
    46  H   -0.006611
    47  H   -0.026941
    48  H    0.017564
    49  H    0.009482
    50  H    0.020276
    51  H    0.021731
    52  H    0.015368
    53  H    0.011005
    54  H    0.033027
    55  H    0.029987
    56  H    0.029364
    57  H    0.042887
    58  H    0.027705
    59  H    0.001105
    60  H    0.024383
    61  H    0.024871
    62  H    0.039960
    63  H    0.000230
    64  H   -0.003841
    65  H    0.020439
    66  H    0.019213
    67  H    0.019141
    68  H   -0.002490
    69  H   -0.003857
    70  H    0.012711
    71  H   -0.002515
    72  H    0.028767
    73  H    0.038390
    74  H    0.023648
    75  H    0.027412
    76  H    0.043241
    77  H    0.041459
    78  H    0.041647
    79  H    0.051355
    80  Mg   0.838678
    81  C    0.003024
    82  C   -0.061082
    83  C   -0.104764
    84  C   -0.054746
    85  N   -0.218647
    86  C   -0.092758
    87  C   -0.042337
    88  C   -0.061310
    89  C    0.010989
    90  C    0.050377
    91  C    0.024640
    92  C   -0.040719
    93  H    0.041635
    94  N   -0.391182
    95  C    0.155176
    96  C   -0.142614
    97  C   -0.042391
    98  C    0.127188
    99  C    0.119213
   100  C    0.040023
   101  O   -0.203564
   102  C    0.039537
   103  N   -0.333311
   104  C    0.048225
   105  C   -0.057755
   106  C    0.015413
   107  C   -0.039417
   108  C    0.082144
   109  C    0.031345
   110  C    0.039673
   111  N   -0.320479
   112  C    0.146486
   113  C   -0.155204
   114  C   -0.024239
   115  C    0.123376
   116  C    0.118390
   117  C    0.036022
   118  O   -0.149066
   119  C   -0.004664
   120  C    0.202105
   121  O   -0.198451
   122  O   -0.329891
   123  C    0.164278
   124  H   -0.038342
   125  H   -0.000479
   126  H   -0.043699
   127  H    0.025002
   128  H    0.023767
   129  H    0.021433
   130  H    0.003553
   131  H    0.029294
   132  H    0.011293
   133  H    0.008512
   134  H    0.027367
   135  H    0.016219
   136  H    0.020646
   137  H    0.026116
   138  H    0.028303
   139  H    0.036701
   140  H    0.028233
   141  H    0.021119
   142  H    0.014665
   143  H    0.014994
   144  H    0.028223
   145  H    0.010033
   146  H    0.017442
   147  H   -0.003780
   148  H    0.009884
   149  H    0.011554
   150  H    0.012337
   151  H    0.011299
   152  H    0.009276
   153  H    0.018000
   154  H    0.040676
   155  H    0.048864
   156  H    0.031845
   157  H    0.052066
   158  H    0.038236
 Sum of Mulliken charges =  -0.00000

 Dipole moment (field-independent basis, Debye):
    X=              5.3913    Y=             -2.7691    Z=              3.3768  Tot=              6.9380
 Quadrupole moment (field-independent basis, Debye-Ang):
   XX=           -434.8500   YY=           -466.9338   ZZ=           -521.1982
   XY=              0.1242   XZ=            -45.4058   YZ=            -40.3981

 Normal termination of Gaussian 16 at Thu Sep  2 08:15:22 2021.
