 Gaussian 16, Revision A.03,
 Gaussian 16:  ES64L-G16RevA.03 25-Dec-2016

 -----------------------------------
 #p cam-b3lyp/Def2SVP td=(nstates=5)
 -----------------------------------

 --------------------------------
 TDDFT excited states in gaussian
 --------------------------------
 Symbolic Z-matrix:
 Charge =  0 Multiplicity = 1

                         Standard orientation:
 ---------------------------------------------------------------------
 Center     Atomic      Atomic             Coordinates (Angstroms)
 Number     Number       Type             X           Y           Z
 ---------------------------------------------------------------------
      1         12           0       -5.008801    0.631323   -0.328012
      2          6           0       -2.871721   -1.992960   -1.127662
      3          6           0       -7.511580   -1.640489    0.235758
      4          6           0       -7.133404    3.256236    0.130387
      5          6           0       -2.339011    2.804731   -1.212230
      6          7           0       -5.183412   -1.550123   -0.466419
      7          6           0       -4.131454   -2.397209   -0.695789
      8          6           0       -4.674795   -3.818212   -0.526908
      9          6           0       -6.180633   -3.671699   -0.399402
     10          6           0       -6.296314   -2.171326   -0.155534
     11          6           0       -7.078631   -4.172887   -1.498445
     12          6           0       -3.990650   -4.685468    0.634151
     13          6           0       -4.678696   -6.049584    0.961919
     14          1           0       -4.197378   -7.321381    0.215641
     15          7           0       -6.994441    0.756837    0.262163
     16          6           0       -7.861213   -0.275401    0.412949
     17          6           0       -9.140291    0.303703    0.731802
     18          6           0       -9.021041    1.724072    0.692551
     19          6           0       -7.699762    1.981297    0.331431
     20          6           0      -10.319773   -0.573992    1.016849
     21          6           0      -10.180067    2.751370    0.847396
     22          8           0      -10.072158    3.902953    0.465581
     23          6           0      -11.503787    2.402822    1.337450
     24          7           0       -4.760607    2.603193   -0.505390
     25          6           0       -5.759920    3.534433   -0.224507
     26          6           0       -5.268957    4.985894   -0.363896
     27          6           0       -3.721750    4.783123   -0.502614
     28          6           0       -3.599445    3.282388   -0.709252
     29          6           0       -5.995292    5.840785   -1.318099
     30          6           0       -2.733247    5.366651    0.651718
     31          6           0       -1.648964    6.391311    0.304941
     32          7           0       -2.960402    0.474525   -1.103582
     33          6           0       -2.053107    1.449262   -1.411054
     34          6           0       -0.825612    0.886803   -1.863897
     35          6           0       -1.067568   -0.530558   -1.699557
     36          6           0       -2.425717   -0.711112   -1.314853
     37          6           0        0.362711    1.679748   -2.255293
     38          6           0       -0.429283   -1.825736   -1.751676
     39          8           0        0.707708   -2.200338   -1.961520
     40          6           0       -1.645084   -2.859188   -1.372719
     41          6           0       -1.760690   -3.953219   -2.370482
     42          8           0       -2.103867   -3.782109   -3.519691
     43          8           0       -1.456096   -5.156431   -1.853427
     44          6           0       -1.781616   -6.372920   -2.692681
     45          1           0       -8.297984   -2.361810    0.468719
     46          1           0       -7.836621    4.078631    0.276192
     47          1           0       -1.647378    3.626639   -1.409541
     48          1           0       -4.392808   -4.239754   -1.491633
     49          1           0       -6.524873   -4.237670    0.465846
     50          1           0       -7.377206   -3.216068   -1.925654
     51          1           0       -7.893838   -4.792981   -1.125312
     52          1           0       -6.524682   -4.675604   -2.291527
     53          1           0       -4.071981   -4.009513    1.485631
     54          1           0       -2.947094   -4.876149    0.386475
     55          1           0       -5.746339   -6.023471    0.747479
     56          1           0       -4.577678   -6.223952    2.033121
     57          1           0      -10.163201   -1.652277    1.059992
     58          1           0      -10.996197   -0.434706    0.174202
     59          1           0      -10.882711   -0.261537    1.896601
     60          1           0      -12.025303    1.536305    0.932217
     61          1           0      -12.230393    3.215186    1.343748
     62          1           0      -11.315000    2.251325    2.400027
     63          1           0       -5.488475    5.306250    0.654942
     64          1           0       -3.582886    5.228348   -1.487670
     65          1           0       -6.533088    6.695520   -0.906964
     66          1           0       -6.716320    5.209393   -1.837954
     67          1           0       -5.359090    6.311283   -2.067646
     68          1           0       -2.216091    4.516092    1.095382
     69          1           0       -3.197085    5.840019    1.517928
     70          1           0       -0.636638    5.989530    0.254460
     71          1           0       -1.694065    7.317431    0.877273
     72          1           0       -1.805283    6.687474   -0.732432
     73          1           0        0.035680    2.496183   -2.898743
     74          1           0        1.140591    1.072124   -2.716895
     75          1           0        0.675396    2.246150   -1.377481
     76          1           0       -1.342981   -3.325771   -0.435657
     77          1           0       -1.133867   -7.130067   -2.251387
     78          1           0       -1.535249   -6.155056   -3.731687
     79          1           0       -2.828028   -6.611510   -2.501859
     80         12           0        4.833911    0.600308    0.099148
     81          6           0        3.184614   -2.334679    0.835154
     82          6           0        7.647095   -1.272909   -0.433866
     83          6           0        6.529000    3.488022   -0.339252
     84          6           0        2.097094    2.424699    1.226336
     85          7           0        5.316425   -1.605404    0.350017
     86          6           0        4.494040   -2.577806    0.448092
     87          6           0        5.112213   -4.063331    0.308602
     88          6           0        6.634565   -3.656494    0.196624
     89          6           0        6.585321   -2.057849    0.106195
     90          6           0        7.545786   -4.051009    1.473778
     91          6           0        4.579261   -4.912251   -0.925742
     92          6           0        4.498721   -6.471330   -0.760210
     93          1           0        5.168504   -7.054211    0.447377
     94          7           0        6.737770    1.044673   -0.389273
     95          6           0        7.806067    0.104781   -0.669486
     96          6           0        8.975136    0.880147   -1.071193
     97          6           0        8.701622    2.264532   -0.940344
     98          6           0        7.265618    2.320087   -0.584777
     99          6           0       10.162917    0.117798   -1.537288
    100          6           0        9.579997    3.506958   -1.218012
    101          8           0        9.282582    4.639457   -0.978831
    102          6           0       11.017249    3.195228   -1.681911
    103          7           0        4.467644    2.702257    0.485213
    104          6           0        5.276020    3.684703    0.241080
    105          6           0        4.741330    5.027057    0.815908
    106          6           0        3.280521    4.704165    1.211637
    107          6           0        3.236612    3.179831    0.952337
    108          6           0        5.616325    5.515576    1.989888
    109          6           0        2.243223    5.547481    0.408517
    110          6           0        2.183571    7.036024    0.787805
    111          7           0        2.974950    0.174208    0.886159
    112          6           0        1.937454    1.034411    1.199038
    113          6           0        0.816128    0.208649    1.562589
    114          6           0        1.221129   -1.157844    1.490605
    115          6           0        2.561782   -1.062866    1.027545
    116          6           0       -0.446205    0.692671    1.986485
    117          6           0        0.851665   -2.533793    1.591033
    118          8           0       -0.236640   -3.028452    2.011132
    119          6           0        2.172219   -3.338063    1.276200
    120          6           0        2.487456   -4.125655    2.448850
    121          8           0        3.071126   -3.691883    3.441785
    122          8           0        1.884468   -5.347251    2.288750
    123          6           0        1.900674   -6.167304    3.518534
    124          1           0        8.566571   -1.841331   -0.585514
    125          1           0        7.133549    4.379342   -0.523320
    126          1           0        1.240945    3.044432    1.502594
    127          1           0        4.915156   -4.510687    1.283174
    128          1           0        7.087764   -4.137847   -0.669758
    129          1           0        6.881004   -4.214315    2.322485
    130          1           0        8.236825   -3.238120    1.696348
    131          1           0        8.170953   -4.938051    1.366588
    132          1           0        5.304131   -4.699885   -1.711145
    133          1           0        3.702815   -4.518630   -1.441678
    134          1           0        4.888393   -7.024711   -1.614539
    135          1           0        3.456661   -6.758353   -0.619090
    136          1           0       10.777437   -0.191293   -0.691269
    137          1           0       10.695769    0.613136   -2.349082
    138          1           0        9.786575   -0.784080   -2.019490
    139          1           0       11.097626    2.851409   -2.713610
    140          1           0       11.312834    2.434407   -0.960204
    141          1           0       11.741393    3.999956   -1.558465
    142          1           0        4.776245    5.682688   -0.053839
    143          1           0        3.153341    4.847344    2.284657
    144          1           0        6.176228    4.742639    2.516820
    145          1           0        5.118203    5.979074    2.842090
    146          1           0        6.312010    6.229998    1.549842
    147          1           0        1.246617    5.154257    0.604309
    148          1           0        2.439098    5.451678   -0.659987
    149          1           0        2.981184    7.223956    1.506565
    150          1           0        1.307087    7.203306    1.414000
    151          1           0        2.143959    7.782168   -0.005430
    152          1           0       -0.675561    1.498957    1.289672
    153          1           0       -0.487325    1.125766    2.985771
    154          1           0       -1.143230   -0.145230    2.021715
    155          1           0        1.862123   -4.006060    0.472202
    156          1           0        1.264913   -5.646980    4.235447
    157          1           0        2.915510   -6.392088    3.845006
    158          1           0        1.427930   -7.119366    3.276801
 ---------------------------------------------------------------------

 SCF Done:  E(RCAM-B3LYP) =  -4069.83625182     A.U. after   18 cycles

 Excitation energies and oscillator strengths:

 Excited State   1:      Singlet-A      1.6657 eV  744.35 nm  f=0.8052  <S**2>=0.000
     309 -> 315       -0.14311
     311 -> 313        0.12882
     311 -> 314       -0.29283
     312 -> 313        0.60839
 This state for optimization and/or second-order correction.
 Total Energy, E(TD-HF/TD-DFT) =  -4069.77503966
 Copying the excited state density for this state as the 1-particle RhoCI density.

 Excited State   2:      Singlet-A      1.7736 eV  699.06 nm  f=0.1241  <S**2>=0.000
     310 -> 316       -0.17478
     311 -> 313        0.21145
     311 -> 314        0.56271
     312 -> 313        0.22408
     312 -> 314       -0.22273

 Excited State   3:      Singlet-A      2.1848 eV  567.49 nm  f=0.0051  <S**2>=0.000
     309 -> 313        0.36859
     309 -> 314       -0.10927
     310 -> 313        0.16274
     310 -> 314        0.48655
     311 -> 316        0.20128
     312 -> 315        0.17697

 Excited State   4:      Singlet-A      2.2128 eV  560.31 nm  f=0.1571  <S**2>=0.000
     309 -> 313        0.46881
     310 -> 314       -0.39674
     311 -> 313       -0.15807
     311 -> 315        0.11773
     311 -> 316       -0.13906
     312 -> 315        0.18800
     312 -> 316        0.11580

 Excited State   5:      Singlet-A      2.2671 eV  546.89 nm  f=0.0071  <S**2>=0.000
     309 -> 313        0.17500
     311 -> 313        0.62952
     311 -> 314       -0.13525
     312 -> 313       -0.19022

 The electronic state is 1-A.
 Alpha  occ. eigenvalues --  -46.87945 -46.87526 -19.24446 -19.24031 -19.19846
 Alpha  occ. eigenvalues --  -19.18915 -19.18838 -19.18682 -19.18104 -19.17869
 Alpha  occ. eigenvalues --  -14.42414 -14.41768 -14.41660 -14.41168 -14.39264
 Alpha  occ. eigenvalues --  -14.38729 -14.38487 -14.38097 -10.38135 -10.37530
 Alpha  occ. eigenvalues --  -10.35958 -10.35342 -10.34538 -10.34463 -10.31827
 Alpha  occ. eigenvalues --  -10.31366 -10.31328 -10.31052 -10.30886 -10.30666
 Alpha  occ. eigenvalues --  -10.30295 -10.30254 -10.30219 -10.30099 -10.30059
 Alpha  occ. eigenvalues --  -10.29790 -10.29512 -10.29372 -10.29066 -10.28901
 Alpha  occ. eigenvalues --  -10.28702 -10.28616 -10.28539 -10.28478 -10.28332
 Alpha  occ. eigenvalues --  -10.28009 -10.27992 -10.27781 -10.27759 -10.27710
 Alpha  occ. eigenvalues --  -10.27671 -10.27470 -10.27444 -10.27373 -10.27096
 Alpha  occ. eigenvalues --  -10.27080 -10.27044 -10.26940 -10.26911 -10.26882
 Alpha  occ. eigenvalues --  -10.26836 -10.26747 -10.26743 -10.26703 -10.26688
 Alpha  occ. eigenvalues --  -10.26560 -10.26542 -10.26530 -10.26512 -10.26479
 Alpha  occ. eigenvalues --  -10.26457 -10.26425 -10.26421 -10.25994 -10.25946
 Alpha  occ. eigenvalues --  -10.25940 -10.25739 -10.25690 -10.25511 -10.25485
 Alpha  occ. eigenvalues --  -10.25363 -10.25345 -10.24927 -10.24914 -10.24325
 Alpha  occ. eigenvalues --  -10.23991  -3.16553  -3.16185  -1.91444  -1.91100
 Alpha  occ. eigenvalues --   -1.91016  -1.90857  -1.90642  -1.90488  -1.15456
 Alpha  occ. eigenvalues --   -1.15157  -1.12204  -1.10744  -1.09426  -1.06880
 Alpha  occ. eigenvalues --   -1.06560  -1.06347  -1.04897  -1.04830  -1.03981
 Alpha  occ. eigenvalues --   -1.03778  -1.03025  -1.03011  -1.02045  -1.00474
 Alpha  occ. eigenvalues --   -0.92003  -0.91972  -0.89168  -0.88688  -0.88558
 Alpha  occ. eigenvalues --   -0.88052  -0.88000  -0.87342  -0.87249  -0.87041
 Alpha  occ. eigenvalues --   -0.86684  -0.86595  -0.86492  -0.86386  -0.84355
 Alpha  occ. eigenvalues --   -0.83485  -0.83445  -0.83309  -0.82403  -0.82038
 Alpha  occ. eigenvalues --   -0.81989  -0.81308  -0.81024  -0.80645  -0.80405
 Alpha  occ. eigenvalues --   -0.79885  -0.78498  -0.78182  -0.77615  -0.77183
 Alpha  occ. eigenvalues --   -0.76799  -0.75914  -0.75506  -0.75375  -0.74834
 Alpha  occ. eigenvalues --   -0.74520  -0.72461  -0.71819  -0.71479  -0.71097
 Alpha  occ. eigenvalues --   -0.69367  -0.69131  -0.68662  -0.68323  -0.67844
 Alpha  occ. eigenvalues --   -0.67701  -0.66596  -0.66585  -0.65305  -0.65294
 Alpha  occ. eigenvalues --   -0.65264  -0.65125  -0.64357  -0.64156  -0.63843
 Alpha  occ. eigenvalues --   -0.63682  -0.61194  -0.61064  -0.60249  -0.59697
 Alpha  occ. eigenvalues --   -0.59356  -0.58979  -0.58731  -0.58634  -0.58467
 Alpha  occ. eigenvalues --   -0.57862  -0.57691  -0.57479  -0.57270  -0.56781
 Alpha  occ. eigenvalues --   -0.56027  -0.55660  -0.55477  -0.55377  -0.54958
 Alpha  occ. eigenvalues --   -0.54763  -0.54597  -0.54335  -0.54169  -0.53886
 Alpha  occ. eigenvalues --   -0.53506  -0.52924  -0.52867  -0.52831  -0.52708
 Alpha  occ. eigenvalues --   -0.52590  -0.52433  -0.52330  -0.52195  -0.51821
 Alpha  occ. eigenvalues --   -0.51751  -0.51665  -0.51301  -0.50870  -0.50729
 Alpha  occ. eigenvalues --   -0.50660  -0.50538  -0.50472  -0.50276  -0.50184
 Alpha  occ. eigenvalues --   -0.50065  -0.49930  -0.49865  -0.49276  -0.49199
 Alpha  occ. eigenvalues --   -0.48926  -0.48838  -0.48670  -0.48632  -0.48516
 Alpha  occ. eigenvalues --   -0.48259  -0.48213  -0.48183  -0.47989  -0.47796
 Alpha  occ. eigenvalues --   -0.47553  -0.47528  -0.47350  -0.47245  -0.46774
 Alpha  occ. eigenvalues --   -0.46718  -0.46563  -0.46329  -0.46202  -0.46188
 Alpha  occ. eigenvalues --   -0.46144  -0.45976  -0.45897  -0.45713  -0.45680
 Alpha  occ. eigenvalues --   -0.45288  -0.44901  -0.44711  -0.44670  -0.44584
 Alpha  occ. eigenvalues --   -0.44342  -0.44207  -0.44121  -0.43926  -0.43903
 Alpha  occ. eigenvalues --   -0.43804  -0.43774  -0.43434  -0.43365  -0.43166
 Alpha  occ. eigenvalues --   -0.43103  -0.42862  -0.42676  -0.42550  -0.42466
 Alpha  occ. eigenvalues --   -0.42305  -0.42247  -0.41790  -0.41694  -0.41630
 Alpha  occ. eigenvalues --   -0.41342  -0.41303  -0.41131  -0.41129  -0.40925
 Alpha  occ. eigenvalues --   -0.40859  -0.40696  -0.40380  -0.40179  -0.39852
 Alpha  occ. eigenvalues --   -0.39774  -0.39357  -0.39170  -0.39038  -0.38915
 Alpha  occ. eigenvalues --   -0.38482  -0.38028  -0.37491  -0.37137  -0.37103
 Alpha  occ. eigenvalues --   -0.36984  -0.36538  -0.36441  -0.36221  -0.35922
 Alpha  occ. eigenvalues --   -0.35893  -0.35646  -0.33894  -0.33724  -0.33651
 Alpha  occ. eigenvalues --   -0.33474  -0.33027  -0.32591  -0.31422  -0.31063
 Alpha  occ. eigenvalues --   -0.30820  -0.30616  -0.30163  -0.30044  -0.29735
 Alpha  occ. eigenvalues --   -0.29426  -0.28956  -0.28478  -0.23856  -0.23199
 Alpha  occ. eigenvalues --   -0.20839  -0.20811
 Alpha virt. eigenvalues --   -0.08514  -0.08021  -0.01590  -0.01260   0.00233
 Alpha virt. eigenvalues --    0.00921   0.02400   0.02993   0.03329   0.03841
 Alpha virt. eigenvalues --    0.05225   0.05636   0.05851   0.06393   0.06630

 Mulliken charges:
               1
     1  Mg   0.827399
     2  C    0.058910
     3  C   -0.078373
     4  C   -0.068803
     5  C   -0.106753
     6  N   -0.256458
     7  C   -0.046570
     8  C   -0.007331
     9  C   -0.103347
    10  C    0.037081
    11  C    0.099963
    12  C    0.048185
    13  C   -0.061765
    14  H    0.007729
    15  N   -0.403881
    16  C    0.147352
    17  C   -0.142775
    18  C   -0.018381
    19  C    0.106627
    20  C    0.100704
    21  C    0.024966
    22  O   -0.202920
    23  C    0.059731
    24  N   -0.343550
    25  C    0.042309
    26  C   -0.041021
    27  C   -0.002816
    28  C    0.023601
    29  C    0.094819
    30  C    0.048943
    31  C   -0.005274
    32  N   -0.285306
    33  C    0.147170
    34  C   -0.167894
    35  C   -0.021816
    36  C    0.069364
    37  C    0.160208
    38  C    0.075891
    39  O   -0.169968
    40  C   -0.082940
    41  C    0.167503
    42  O   -0.226162
    43  O   -0.336714
    44  C    0.173287
    45  H   -0.041560
    46  H    0.000665
    47  H   -0.026351
    48  H    0.006820
    49  H   -0.001908
    50  H    0.016175
    51  H    0.020647
    52  H    0.014383
    53  H    0.015634
    54  H    0.049664
    55  H    0.019678
    56  H    0.036997
    57  H    0.015804
    58  H    0.026597
    59  H    0.024715
    60  H    0.035750
    61  H    0.022300
    62  H    0.027267
    63  H    0.010364
    64  H    0.007550
    65  H    0.017207
    66  H    0.025715
    67  H    0.005145
    68  H    0.008057
    69  H    0.010262
    70  H   -0.000033
    71  H    0.025473
    72  H   -0.002828
    73  H    0.006955
    74  H    0.043445
    75  H    0.023048
    76  H    0.056353
    77  H    0.042669
    78  H    0.061988
    79  H    0.043047
    80  Mg   0.833687
    81  C    0.069558
    82  C   -0.059271
    83  C   -0.073591
    84  C   -0.097417
    85  N   -0.207269
    86  C   -0.138910
    87  C    0.023527
    88  C   -0.087030
    89  C    0.045241
    90  C    0.044089
    91  C    0.061519
    92  C   -0.076337
    93  H    0.015010
    94  N   -0.449215
    95  C    0.144038
    96  C   -0.127216
    97  C   -0.064215
    98  C    0.123648
    99  C    0.100908
   100  C    0.036880
   101  O   -0.160152
   102  C    0.015730
   103  N   -0.260763
   104  C    0.012693
   105  C    0.001649
   106  C   -0.017392
   107  C    0.025506
   108  C    0.064684
   109  C    0.010998
   110  C    0.018359
   111  N   -0.334866
   112  C    0.145571
   113  C   -0.162475
   114  C    0.059086
   115  C    0.092492
   116  C    0.104165
   117  C    0.026335
   118  O   -0.236152
   119  C   -0.006116
   120  C    0.202870
   121  O   -0.235424
   122  O   -0.334889
   123  C    0.187173
   124  H   -0.028275
   125  H   -0.016858
   126  H   -0.032358
   127  H    0.023848
   128  H    0.014439
   129  H    0.025858
   130  H    0.016351
   131  H    0.016519
   132  H   -0.008020
   133  H    0.033650
   134  H    0.033446
   135  H    0.041726
   136  H    0.042428
   137  H    0.019935
   138  H    0.021324
   139  H    0.049221
   140  H    0.032968
   141  H    0.021807
   142  H    0.009674
   143  H    0.006777
   144  H    0.022094
   145  H    0.011887
   146  H    0.028222
   147  H    0.012576
   148  H    0.007599
   149  H    0.005762
   150  H    0.001237
   151  H    0.027920
   152  H    0.026896
   153  H    0.020610
   154  H    0.032053
   155  H    0.038846
   156  H    0.047374
   157  H    0.038639
   158  H    0.028489
 Sum of Mulliken charges =  -0.00000

 Dipole moment (field-independent basis, Debye):
    X=             -0.2784    Y=             -1.5328    Z=              0.5729  Tot=              1.6599
 Quadrupole moment (field-independent basis, Debye-Ang):
   XX=           -457.2465   YY=           -472.3599   ZZ=           -525.3174
   XY=              0.6339   XZ=            -27.6608   YZ=              4.2831

 Normal termination of Gaussian 16 at Thu Sep 16 01:47:22 2021.
