 Gaussian 16, Revision A.03,
 Gaussian 16:  ES64L-G16RevA.03 25-Dec-2016

 ----------------------------------------------------------
 #p cam-b3lyp/Def2SVP td=(nstates=5) density=(transition=1)
 ----------------------------------------------------------

 --------------------------------
 TDDFT excited states in gaussian
 --------------------------------
 Symbolic Z-matrix:
 Charge =  0 Multiplicity = 1

                         Standard orientation:
 ---------------------------------------------------------------------
 Center     Atomic      Atomic             Coordinates (Angstroms)
 Number     Number       Type             X           Y           Z
 ---------------------------------------------------------------------
      1         12           0      -10.050896   -0.725038    0.399626
      2          6           0       -9.863661    2.713893   -0.057722
      3          6           0       -8.069916   -0.348430    3.175780
      4          6           0      -10.007252   -4.161517    0.721497
      5          6           0      -11.571168   -1.103590   -2.714222
      6          7           0       -9.172582    1.007863    1.472396
      7          6           0       -9.305696    2.314609    1.187920
      8          6           0       -8.738683    3.273920    2.260229
      9          6           0       -7.945774    2.255430    3.186425
     10          6           0       -8.373689    0.839876    2.566445
     11          6           0       -6.411846    2.583365    3.112321
     12          6           0      -10.000428    3.987184    2.971216
     13          6           0       -9.989777    5.543821    3.008231
     14          1           0       -8.563983    6.178843    2.824925
     15          7           0       -9.127800   -2.106451    1.686576
     16          6           0       -8.409574   -1.721177    2.837408
     17          6           0       -8.161014   -2.896767    3.644335
     18          6           0       -8.657993   -4.002377    2.942653
     19          6           0       -9.383884   -3.448656    1.740137
     20          6           0       -7.206633   -2.849811    4.846054
     21          6           0       -8.547781   -5.503265    3.320919
     22          8           0       -9.017380   -6.446161    2.656819
     23          6           0       -7.874353   -5.867654    4.655216
     24          7           0      -10.643933   -2.363649   -0.895843
     25          6           0      -10.552787   -3.718066   -0.452140
     26          6           0      -10.942572   -4.683013   -1.591334
     27          6           0      -11.707014   -3.678899   -2.574372
     28          6           0      -11.323136   -2.287650   -2.005626
     29          6           0       -9.697164   -5.379631   -2.114226
     30          6           0      -13.278534   -3.890741   -2.515242
     31          6           0      -14.142567   -3.893337   -1.208326
     32          7           0      -10.543773    0.485602   -1.123696
     33          6           0      -11.146558    0.216132   -2.356240
     34          6           0      -11.328849    1.442159   -3.063180
     35          6           0      -10.893319    2.438471   -2.208229
     36          6           0      -10.320497    1.820376   -1.069292
     37          6           0      -11.836521    1.621844   -4.479283
     38          6           0      -10.754188    3.834294   -2.074253
     39          8           0      -10.976105    4.662041   -2.899525
     40          6           0       -9.968813    4.054784   -0.715570
     41          6           0       -8.624637    4.609151   -1.099044
     42          8           0       -7.593466    3.970513   -1.068681
     43          8           0       -8.811084    5.873818   -1.495117
     44          6           0       -7.723286    6.377436   -2.297419
     45          1           0       -7.508544   -0.232580    4.104981
     46          1           0       -9.777012   -5.228325    0.715540
     47          1           0      -12.036561   -1.206135   -3.697276
     48          1           0       -8.099870    4.070048    1.878350
     49          1           0       -8.258037    2.247357    4.230962
     50          1           0       -5.757313    1.716180    3.021539
     51          1           0       -6.305064    3.081197    4.075680
     52          1           0       -6.291358    3.342771    2.340105
     53          1           0      -10.120497    3.522879    3.949820
     54          1           0      -10.885779    3.674004    2.417344
     55          1           0      -10.391772    5.727488    4.004018
     56          1           0      -10.643147    6.026363    2.281949
     57          1           0       -6.430118   -3.593418    4.664913
     58          1           0       -7.736999   -3.179392    5.740479
     59          1           0       -6.808423   -1.842525    4.964145
     60          1           0       -6.804551   -5.700937    4.522764
     61          1           0       -7.991101   -6.946617    4.755362
     62          1           0       -8.431903   -5.421786    5.478527
     63          1           0      -11.693413   -5.338912   -1.149764
     64          1           0      -11.444072   -3.902196   -3.607714
     65          1           0       -8.918647   -5.489081   -1.359043
     66          1           0       -9.275176   -4.830099   -2.955369
     67          1           0       -9.923633   -6.402828   -2.413317
     68          1           0      -13.508560   -4.800470   -3.069931
     69          1           0      -13.652571   -3.008848   -3.035364
     70          1           0      -14.161400   -4.909684   -0.814642
     71          1           0      -15.140449   -3.585889   -1.523253
     72          1           0      -13.879108   -3.148992   -0.456221
     73          1           0      -12.846041    1.231252   -4.608637
     74          1           0      -11.142200    1.033483   -5.078813
     75          1           0      -11.994574    2.653184   -4.797758
     76          1           0      -10.385331    4.760199    0.003686
     77          1           0       -8.026172    7.115536   -3.039726
     78          1           0       -6.983511    5.711804   -2.741906
     79          1           0       -6.989494    6.945240   -1.724953
     80         12           0       10.096125   -0.566214   -0.326696
     81          6           0        8.110890    2.320492   -0.183403
     82          6           0       12.684969    1.268691    1.009425
     83          6           0       11.953859   -3.288390   -0.500654
     84          6           0        7.391907   -2.233009   -1.827262
     85          7           0       10.278324    1.520863    0.393263
     86          6           0        9.359975    2.570124    0.352033
     87          6           0        9.792731    3.813207    1.224459
     88          6           0       11.255367    3.462122    1.417178
     89          6           0       11.440279    1.970611    0.915234
     90          6           0       12.183389    4.382346    0.498907
     91          6           0        8.986525    3.628065    2.585993
     92          6           0        8.351948    4.935252    3.236127
     93          1           0        9.234458    6.123426    2.950674
     94          7           0       12.036670   -0.893254    0.038378
     95          6           0       12.933440   -0.060822    0.559879
     96          6           0       14.216035   -0.682014    0.759247
     97          6           0       14.001303   -2.050968    0.504225
     98          6           0       12.608306   -2.130051   -0.076858
     99          6           0       15.453260   -0.006438    1.225696
    100          6           0       14.870372   -3.254990    0.803754
    101          8           0       14.448406   -4.416061    0.756222
    102          6           0       16.365272   -3.068195    1.077567
    103          7           0        9.711539   -2.495356   -1.122093
    104          6           0       10.691438   -3.448238   -0.972869
    105          6           0       10.116805   -4.800541   -1.389335
    106          6           0        8.573802   -4.498206   -1.716514
    107          6           0        8.499544   -3.009862   -1.498210
    108          6           0       10.996175   -5.424246   -2.530091
    109          6           0        7.536639   -5.300379   -0.946307
    110          6           0        6.483406   -6.005087   -1.857494
    111          7           0        8.164149   -0.060790   -0.911411
    112          6           0        7.158081   -0.856767   -1.543772
    113          6           0        5.997134   -0.079105   -1.792622
    114          6           0        6.346204    1.174791   -1.263357
    115          6           0        7.676788    1.125761   -0.798401
    116          6           0        4.684749   -0.451702   -2.403569
    117          6           0        5.884732    2.503885   -1.019392
    118          8           0        4.851120    3.074717   -1.277347
    119          6           0        6.986373    3.246270   -0.211293
    120          6           0        7.222543    4.576566   -0.828944
    121          8           0        7.766100    4.818724   -1.902880
    122          8           0        6.777518    5.490030    0.039348
    123          6           0        6.978605    6.880499   -0.310679
    124          1           0       13.537827    1.687780    1.547189
    125          1           0       12.624223   -4.150598   -0.541101
    126          1           0        6.506660   -2.726732   -2.233661
    127          1           0        9.432939    4.680774    0.672169
    128          1           0       11.521799    3.525129    2.471704
    129          1           0       11.606008    5.072909   -0.116109
    130          1           0       12.770660    3.734015   -0.151100
    131          1           0       12.827007    4.899409    1.210682
    132          1           0        9.588362    3.202745    3.388564
    133          1           0        8.212758    2.888149    2.379606
    134          1           0        8.415917    4.891749    4.323441
    135          1           0        7.276567    4.986428    3.063776
    136          1           0       15.660800   -0.395617    2.223406
    137          1           0       15.310685    1.069711    1.313658
    138          1           0       16.314628   -0.189683    0.584069
    139          1           0       16.713132   -4.081219    0.876700
    140          1           0       16.591028   -2.718128    2.085528
    141          1           0       16.930717   -2.459752    0.372010
    142          1           0       10.128236   -5.574816   -0.622272
    143          1           0        8.408986   -4.676848   -2.779148
    144          1           0       11.146228   -6.466299   -2.247536
    145          1           0       11.935431   -4.898879   -2.703261
    146          1           0       10.412150   -5.582241   -3.437530
    147          1           0        6.996296   -4.728141   -0.192856
    148          1           0        8.103722   -6.140389   -0.542697
    149          1           0        6.747133   -5.893248   -2.909304
    150          1           0        5.521372   -5.493773   -1.830317
    151          1           0        6.402712   -7.066576   -1.622426
    152          1           0        4.230194   -1.023178   -1.593839
    153          1           0        4.912697   -0.985310   -3.326022
    154          1           0        4.046226    0.412644   -2.580540
    155          1           0        6.497299    3.448142    0.742613
    156          1           0        6.563892    7.079102   -1.299341
    157          1           0        8.010839    7.218527   -0.407985
    158          1           0        6.445318    7.460927    0.442405
 ---------------------------------------------------------------------

 SCF Done:  E(RCAM-B3LYP) =  -4069.83963822     A.U. after   19 cycles

 Excitation energies and oscillator strengths:

 Excited State   1:      Singlet-A      1.7047 eV  727.33 nm  f=0.3999  <S**2>=0.000
     310 -> 316       -0.17553
     312 -> 314        0.68616
     310 <- 316       -0.10636
 This state for optimization and/or second-order correction.
 Total Energy, E(TD-HF/TD-DFT) =  -4069.77699340
 Copying the excited state density for this state as the 1-particle RhoCI density.

 Excited State   2:      Singlet-A      1.7253 eV  718.61 nm  f=0.3759  <S**2>=0.000
     309 -> 315       -0.16124
     311 -> 313        0.68748

 Excited State   3:      Singlet-A      2.2265 eV  556.85 nm  f=0.1201  <S**2>=0.000
     310 -> 314        0.64627
     312 -> 316        0.27523

 Excited State   4:      Singlet-A      2.2842 eV  542.78 nm  f=0.1235  <S**2>=0.000
     309 -> 313        0.63682
     311 -> 315        0.28311

 Excited State   5:      Singlet-A      2.8831 eV  430.04 nm  f=0.0000  <S**2>=0.000
     312 -> 313        0.70698

 The electronic state is 1-A.
 Alpha  occ. eigenvalues --  -46.87951 -46.87739 -19.25966 -19.25242 -19.19893
 Alpha  occ. eigenvalues --  -19.19882 -19.19222 -19.18771 -19.18510 -19.17372
 Alpha  occ. eigenvalues --  -14.42212 -14.42112 -14.41590 -14.41309 -14.40193
 Alpha  occ. eigenvalues --  -14.39430 -14.38929 -14.38438 -10.39146 -10.38291
 Alpha  occ. eigenvalues --  -10.36209 -10.35019 -10.34688 -10.33122 -10.31876
 Alpha  occ. eigenvalues --  -10.31468 -10.31353 -10.31141 -10.30981 -10.30647
 Alpha  occ. eigenvalues --  -10.30596 -10.30546 -10.30424 -10.30211 -10.30084
 Alpha  occ. eigenvalues --  -10.30032 -10.29765 -10.29705 -10.29536 -10.29506
 Alpha  occ. eigenvalues --  -10.29035 -10.29003 -10.28881 -10.28753 -10.28421
 Alpha  occ. eigenvalues --  -10.28376 -10.28319 -10.28250 -10.28013 -10.27990
 Alpha  occ. eigenvalues --  -10.27949 -10.27804 -10.27744 -10.27539 -10.27532
 Alpha  occ. eigenvalues --  -10.27515 -10.27499 -10.27496 -10.27463 -10.27133
 Alpha  occ. eigenvalues --  -10.27061 -10.27037 -10.26955 -10.26879 -10.26663
 Alpha  occ. eigenvalues --  -10.26611 -10.26608 -10.26588 -10.26575 -10.26506
 Alpha  occ. eigenvalues --  -10.26428 -10.26182 -10.26137 -10.26125 -10.26012
 Alpha  occ. eigenvalues --  -10.25858 -10.25742 -10.25699 -10.25674 -10.25642
 Alpha  occ. eigenvalues --  -10.25513 -10.25373 -10.25151 -10.25081 -10.24551
 Alpha  occ. eigenvalues --  -10.23551  -3.16552  -3.16449  -1.91453  -1.91359
 Alpha  occ. eigenvalues --   -1.90986  -1.90884  -1.90874  -1.90780  -1.17973
 Alpha  occ. eigenvalues --   -1.17081  -1.11875  -1.10330  -1.09336  -1.08898
 Alpha  occ. eigenvalues --   -1.08231  -1.07063  -1.04955  -1.04023  -1.03884
 Alpha  occ. eigenvalues --   -1.03190  -1.02892  -1.02583  -1.02314  -1.01037
 Alpha  occ. eigenvalues --   -0.92659  -0.92623  -0.89613  -0.88450  -0.88411
 Alpha  occ. eigenvalues --   -0.88401  -0.87989  -0.87943  -0.87637  -0.86998
 Alpha  occ. eigenvalues --   -0.86952  -0.86604  -0.86374  -0.85893  -0.83929
 Alpha  occ. eigenvalues --   -0.83785  -0.83497  -0.83267  -0.82323  -0.82159
 Alpha  occ. eigenvalues --   -0.81821  -0.81247  -0.81053  -0.80794  -0.80351
 Alpha  occ. eigenvalues --   -0.79816  -0.78878  -0.77594  -0.77386  -0.76983
 Alpha  occ. eigenvalues --   -0.76739  -0.76596  -0.75712  -0.75578  -0.74949
 Alpha  occ. eigenvalues --   -0.74828  -0.73069  -0.72831  -0.71376  -0.71050
 Alpha  occ. eigenvalues --   -0.69157  -0.68835  -0.68776  -0.68510  -0.67837
 Alpha  occ. eigenvalues --   -0.67582  -0.67369  -0.66243  -0.65697  -0.65391
 Alpha  occ. eigenvalues --   -0.65211  -0.64986  -0.64477  -0.64404  -0.64351
 Alpha  occ. eigenvalues --   -0.63821  -0.62450  -0.62242  -0.60760  -0.59864
 Alpha  occ. eigenvalues --   -0.59565  -0.59268  -0.59111  -0.58830  -0.58600
 Alpha  occ. eigenvalues --   -0.58266  -0.57869  -0.57737  -0.57271  -0.57124
 Alpha  occ. eigenvalues --   -0.56611  -0.56110  -0.55640  -0.55550  -0.55301
 Alpha  occ. eigenvalues --   -0.54742  -0.54437  -0.54252  -0.53852  -0.53792
 Alpha  occ. eigenvalues --   -0.53511  -0.53226  -0.53138  -0.52987  -0.52569
 Alpha  occ. eigenvalues --   -0.52513  -0.52489  -0.52116  -0.52091  -0.51872
 Alpha  occ. eigenvalues --   -0.51750  -0.51715  -0.51609  -0.51278  -0.51009
 Alpha  occ. eigenvalues --   -0.50817  -0.50712  -0.50473  -0.50377  -0.50265
 Alpha  occ. eigenvalues --   -0.49951  -0.49764  -0.49671  -0.49609  -0.49369
 Alpha  occ. eigenvalues --   -0.49237  -0.49044  -0.48719  -0.48605  -0.48494
 Alpha  occ. eigenvalues --   -0.48478  -0.48388  -0.48212  -0.47877  -0.47826
 Alpha  occ. eigenvalues --   -0.47645  -0.47602  -0.47505  -0.47348  -0.47145
 Alpha  occ. eigenvalues --   -0.46997  -0.46708  -0.46534  -0.46524  -0.46372
 Alpha  occ. eigenvalues --   -0.46135  -0.46045  -0.46044  -0.45594  -0.45448
 Alpha  occ. eigenvalues --   -0.45245  -0.45049  -0.45029  -0.44804  -0.44677
 Alpha  occ. eigenvalues --   -0.44524  -0.44510  -0.44421  -0.44416  -0.44264
 Alpha  occ. eigenvalues --   -0.44168  -0.43659  -0.43629  -0.43597  -0.43477
 Alpha  occ. eigenvalues --   -0.43263  -0.43059  -0.42914  -0.42875  -0.42824
 Alpha  occ. eigenvalues --   -0.42584  -0.42535  -0.42316  -0.42253  -0.41919
 Alpha  occ. eigenvalues --   -0.41811  -0.41630  -0.41549  -0.41190  -0.41076
 Alpha  occ. eigenvalues --   -0.40782  -0.40691  -0.40534  -0.40341  -0.40153
 Alpha  occ. eigenvalues --   -0.40031  -0.39708  -0.39448  -0.39006  -0.38794
 Alpha  occ. eigenvalues --   -0.38238  -0.37608  -0.37548  -0.37389  -0.37325
 Alpha  occ. eigenvalues --   -0.36963  -0.36894  -0.36887  -0.36443  -0.36331
 Alpha  occ. eigenvalues --   -0.36285  -0.35980  -0.34627  -0.34208  -0.33962
 Alpha  occ. eigenvalues --   -0.33820  -0.32778  -0.32535  -0.32238  -0.31510
 Alpha  occ. eigenvalues --   -0.31363  -0.30870  -0.30825  -0.30338  -0.30138
 Alpha  occ. eigenvalues --   -0.29651  -0.29463  -0.29231  -0.24093  -0.23636
 Alpha  occ. eigenvalues --   -0.21025  -0.20849
 Alpha virt. eigenvalues --   -0.08553  -0.08419  -0.01667  -0.01213   0.00549
 Alpha virt. eigenvalues --    0.00692   0.02607   0.02680   0.02847   0.03437
 Alpha virt. eigenvalues --    0.04677   0.05596   0.05892   0.06276   0.06358

 Mulliken charges:
               1
     1  Mg  11.997257
     2  C    6.022961
     3  C    5.982373
     4  C    5.973732
     5  C    6.002827
     6  N    7.006655
     7  C    5.967698
     8  C    6.010133
     9  C    5.991035
    10  C    6.030128
    11  C    5.996263
    12  C    6.004439
    13  C    6.002400
    14  H    0.995595
    15  N    6.991590
    16  C    6.051784
    17  C    6.015357
    18  C    6.017684
    19  C    6.044838
    20  C    5.996566
    21  C    6.013046
    22  O    8.030577
    23  C    5.993679
    24  N    6.989804
    25  C    6.036047
    26  C    5.991056
    27  C    6.011270
    28  C    5.975074
    29  C    5.995490
    30  C    6.007286
    31  C    5.995829
    32  N    7.007991
    33  C    5.962882
    34  C    5.969217
    35  C    5.999721
    36  C    5.963054
    37  C    6.000648
    38  C    5.983287
    39  O    7.971420
    40  C    5.997976
    41  C    5.998212
    42  O    7.990517
    43  O    8.000892
    44  C    6.005490
    45  H    1.011313
    46  H    1.004011
    47  H    0.987472
    48  H    0.999319
    49  H    1.000086
    50  H    0.995974
    51  H    1.005003
    52  H    1.013642
    53  H    0.987346
    54  H    1.004121
    55  H    0.995444
    56  H    1.003554
    57  H    1.017087
    58  H    1.018963
    59  H    1.018501
    60  H    1.008601
    61  H    1.015565
    62  H    1.007643
    63  H    0.998880
    64  H    0.996143
    65  H    0.991393
    66  H    1.012412
    67  H    1.005101
    68  H    0.990202
    69  H    1.006209
    70  H    0.991246
    71  H    1.001221
    72  H    0.998250
    73  H    0.979808
    74  H    0.982790
    75  H    0.985467
    76  H    0.989001
    77  H    0.997206
    78  H    0.996939
    79  H    0.992305
    80  Mg  11.999738
    81  C    6.001079
    82  C    6.000129
    83  C    5.998784
    84  C    5.999937
    85  N    7.000658
    86  C    5.998933
    87  C    6.000207
    88  C    5.999863
    89  C    6.000486
    90  C    5.999855
    91  C    6.000112
    92  C    6.000062
    93  H    1.000274
    94  N    6.999612
    95  C    6.001037
    96  C    6.000820
    97  C    6.000167
    98  C    6.001556
    99  C    5.999785
   100  C    6.000351
   101  O    8.000726
   102  C    5.999766
   103  N    6.999686
   104  C    6.001269
   105  C    5.999552
   106  C    6.000352
   107  C    5.999133
   108  C    5.999917
   109  C    6.000437
   110  C    5.999998
   111  N    7.000058
   112  C    5.998734
   113  C    5.999244
   114  C    5.999898
   115  C    5.998940
   116  C    5.999979
   117  C    5.999460
   118  O    7.999484
   119  C    5.999702
   120  C    6.000048
   121  O    8.000150
   122  O    7.999837
   123  C    5.999859
   124  H    1.000506
   125  H    1.000035
   126  H    0.999228
   127  H    1.000390
   128  H    1.000040
   129  H    1.000707
   130  H    0.999960
   131  H    1.000215
   132  H    0.999473
   133  H    0.999859
   134  H    0.999678
   135  H    1.000067
   136  H    1.000553
   137  H    1.000634
   138  H    1.000763
   139  H    1.000451
   140  H    1.000225
   141  H    1.000395
   142  H    0.999817
   143  H    1.000103
   144  H    0.999974
   145  H    1.000036
   146  H    1.000406
   147  H    0.999469
   148  H    0.999440
   149  H    1.000390
   150  H    0.999666
   151  H    0.999447
   152  H    0.998520
   153  H    0.999887
   154  H    1.000047
   155  H    0.999647
   156  H    1.000466
   157  H    0.999853
   158  H    0.999977
 Sum of Mulliken charges = 624.00000

 Dipole moment (field-independent basis, Debye):
    X=              4.1411    Y=             -6.7800    Z=              7.7848  Tot=             11.1230
 Quadrupole moment (field-independent basis, Debye-Ang):
   XX=            -67.9091   YY=              9.7381   ZZ=              4.5944
   XY=             61.4330   XZ=            -72.9094   YZ=             -9.7018

 Normal termination of Gaussian 16 at Wed Sep 22 16:13:38 2021.
