 Gaussian 16, Revision A.03,
 Gaussian 16:  ES64L-G16RevA.03 25-Dec-2016

 -----------------------------------
 #p cam-b3lyp/Def2SVP td=(nstates=5)
 -----------------------------------

 --------------------------------
 TDDFT excited states in gaussian
 --------------------------------
 Symbolic Z-matrix:
 Charge =  0 Multiplicity = 1

                         Standard orientation:
 ---------------------------------------------------------------------
 Center     Atomic      Atomic             Coordinates (Angstroms)
 Number     Number       Type             X           Y           Z
 ---------------------------------------------------------------------
      1         12           0      -14.265367    0.396875   -0.097658
      2          6           0      -11.009940    0.856939   -1.664656
      3          6           0      -14.730286   -2.281579   -2.195110
      4          6           0      -16.368150   -0.903144    2.154157
      5          6           0      -13.692643    3.157334    1.799233
      6          7           0      -12.884929   -0.704857   -1.623300
      7          6           0      -11.615057   -0.274581   -2.152656
      8          6           0      -11.255853   -1.131046   -3.370120
      9          6           0      -12.585839   -1.849068   -3.744856
     10          6           0      -13.515402   -1.622909   -2.472591
     11          6           0      -13.285442   -1.259642   -5.059703
     12          6           0      -10.025269   -1.984396   -3.271009
     13          6           0       -9.456842   -2.256847   -1.858298
     14          1           0       -8.255342   -3.152259   -1.504622
     15          7           0      -15.517432   -1.310077   -0.091936
     16          6           0      -15.537667   -2.299580   -1.049879
     17          6           0      -16.632482   -3.258704   -0.703212
     18          6           0      -16.994341   -2.900428    0.592884
     19          6           0      -16.272291   -1.696687    0.998134
     20          6           0      -16.998508   -4.367251   -1.625336
     21          6           0      -18.009132   -3.687146    1.472627
     22          8           0      -18.453535   -4.732128    1.031487
     23          6           0      -18.364949   -3.334241    2.878785
     24          7           0      -14.778869    1.016002    1.791262
     25          6           0      -15.805355    0.339669    2.449516
     26          6           0      -16.245065    1.096921    3.702557
     27          6           0      -15.638766    2.527958    3.468459
     28          6           0      -14.701786    2.250288    2.290791
     29          6           0      -17.757588    1.157999    4.037571
     30          6           0      -14.933303    3.185875    4.697497
     31          6           0      -15.720603    4.388102    5.394010
     32          7           0      -12.729985    1.816400    0.022070
     33          6           0      -12.690544    2.954655    0.814150
     34          6           0      -11.566095    3.765775    0.416830
     35          6           0      -10.883692    2.924055   -0.471992
     36          6           0      -11.666172    1.761884   -0.682610
     37          6           0      -11.223375    5.122644    1.055945
     38          6           0       -9.747817    2.807607   -1.334220
     39          8           0       -8.877893    3.686515   -1.499033
     40          6           0       -9.818080    1.525153   -2.276308
     41          6           0       -8.508151    0.867707   -2.097481
     42          8           0       -7.952664    0.607236   -1.025055
     43          8           0       -8.093979    0.492591   -3.332480
     44          6           0       -6.694863   -0.029030   -3.432837
     45          1           0      -14.868743   -3.143162   -2.850864
     46          1           0      -17.068134   -1.333672    2.873631
     47          1           0      -13.602084    4.102248    2.338353
     48          1           0      -11.086914   -0.311412   -4.068562
     49          1           0      -12.490306   -2.934662   -3.772656
     50          1           0      -13.200723   -2.078876   -5.772590
     51          1           0      -12.779162   -0.341650   -5.359118
     52          1           0      -14.331052   -1.107252   -4.789808
     53          1           0       -9.297535   -1.541561   -3.950766
     54          1           0      -10.379852   -2.904519   -3.736700
     55          1           0      -10.306227   -2.636730   -1.289676
     56          1           0       -9.137971   -1.317198   -1.406765
     57          1           0      -16.679310   -5.283748   -1.129962
     58          1           0      -16.482305   -4.206003   -2.571234
     59          1           0      -18.067995   -4.324625   -1.834410
     60          1           0      -17.585993   -3.394831    3.637870
     61          1           0      -19.088735   -4.022478    3.314336
     62          1           0      -18.816340   -2.353904    2.726824
     63          1           0      -15.700692    0.486204    4.423754
     64          1           0      -16.477271    3.120878    3.102470
     65          1           0      -18.062480    0.445790    4.804987
     66          1           0      -18.336614    0.884200    3.156236
     67          1           0      -17.991567    2.190478    4.299360
     68          1           0      -13.925192    3.548345    4.494500
     69          1           0      -14.782658    2.354784    5.386592
     70          1           0      -15.593921    4.154760    6.450880
     71          1           0      -16.778146    4.455594    5.138320
     72          1           0      -15.275997    5.310199    5.021324
     73          1           0      -10.703709    5.826165    0.405103
     74          1           0      -10.543424    4.806711    1.846375
     75          1           0      -12.136488    5.667205    1.295316
     76          1           0      -10.004021    1.844003   -3.302965
     77          1           0       -6.486677   -0.301151   -4.468167
     78          1           0       -6.562920   -0.924079   -2.824610
     79          1           0       -6.112362    0.824533   -3.088965
     80         12           0       13.516796   -0.973572    0.294702
     81          6           0       13.836469    2.618906   -0.360517
     82          6           0       10.278111   -0.709040   -1.015594
     83          6           0       13.022498   -4.075476    1.167307
     84          6           0       16.774518   -1.032270    1.365092
     85          7           0       12.155630    0.768153   -0.381482
     86          6           0       12.520788    2.143440   -0.697944
     87          6           0       11.357413    2.980545   -1.271555
     88          6           0       10.179646    1.843485   -1.250063
     89          6           0       10.870064    0.526118   -0.845795
     90          6           0        9.004980    2.196326   -0.358451
     91          6           0       11.746163    3.586131   -2.654184
     92          6           0       10.610946    4.165089   -3.443852
     93          1           0       10.782485    5.496938   -4.139856
     94          7           0       11.857949   -2.259583    0.134435
     95          6           0       10.612970   -1.980757   -0.440778
     96          6           0        9.774110   -3.177223   -0.402450
     97          6           0       10.572896   -4.208743    0.241631
     98          6           0       11.899761   -3.563352    0.561014
     99          6           0        8.340456   -3.294087   -1.038429
    100          6           0       10.252279   -5.610962    0.615762
    101          8           0       11.035719   -6.395677    1.133636
    102          6           0        8.945475   -6.188614    0.259460
    103          7           0       14.712870   -2.345739    1.036044
    104          6           0       14.269701   -3.538124    1.438682
    105          6           0       15.383559   -4.408903    2.065885
    106          6           0       16.615655   -3.602983    1.710256
    107          6           0       16.013084   -2.178105    1.400003
    108          6           0       15.215587   -4.611981    3.567243
    109          6           0       17.576023   -4.011900    0.623562
    110          6           0       16.971457   -4.039422   -0.763978
    111          7           0       14.991380    0.470262    0.575239
    112          6           0       16.332804    0.250878    0.937048
    113          6           0       17.030133    1.513229    0.929350
    114          6           0       16.072686    2.389583    0.356759
    115          6           0       14.843357    1.729810    0.167833
    116          6           0       18.473972    1.788469    1.232861
    117          6           0       15.951529    3.798415   -0.130706
    118          8           0       16.810588    4.696793   -0.259065
    119          6           0       14.496712    3.960863   -0.565498
    120          6           0       13.853799    5.130153    0.183326
    121          8           0       13.621763    5.281522    1.419095
    122          8           0       13.400116    6.002648   -0.761282
    123          6           0       12.662000    7.178852   -0.247876
    124          1           0        9.359429   -0.668370   -1.602854
    125          1           0       12.859109   -5.094076    1.525240
    126          1           0       17.807082   -0.970455    1.715341
    127          1           0       11.253511    3.823965   -0.589016
    128          1           0        9.865734    1.644179   -2.274699
    129          1           0        8.100818    2.210304   -0.967726
    130          1           0        9.198887    3.199602    0.019277
    131          1           0        8.933381    1.691676    0.604791
    132          1           0       12.327512    2.812329   -3.156746
    133          1           0       12.468531    4.385692   -2.489441
    134          1           0        9.688103    4.374515   -2.903415
    135          1           0       10.392919    3.510682   -4.287350
    136          1           0        8.443554   -4.057595   -1.810027
    137          1           0        7.995487   -2.371196   -1.504409
    138          1           0        7.676813   -3.605653   -0.231728
    139          1           0        8.102813   -5.523141    0.448120
    140          1           0        8.871180   -7.064006    0.903693
    141          1           0        8.988096   -6.271691   -0.826108
    142          1           0       15.335095   -5.383872    1.580791
    143          1           0       17.305281   -3.516795    2.550423
    144          1           0       15.470035   -5.644041    3.805731
    145          1           0       14.187618   -4.428620    3.878084
    146          1           0       15.965792   -4.036982    4.111269
    147          1           0       18.030430   -4.958125    0.918569
    148          1           0       18.355377   -3.261970    0.489255
    149          1           0       17.238263   -4.944758   -1.307978
    150          1           0       17.338490   -3.233323   -1.399663
    151          1           0       15.882240   -3.999582   -0.780650
    152          1           0       18.921048    2.343538    0.408530
    153          1           0       19.165379    0.971784    1.440277
    154          1           0       18.493781    2.415610    2.124400
    155          1           0       14.488742    4.255365   -1.615317
    156          1           0       11.589836    7.016069   -0.355752
    157          1           0       13.115306    7.944778   -0.877155
    158          1           0       12.954797    7.443536    0.768962
 ---------------------------------------------------------------------

 SCF Done:  E(RCAM-B3LYP) =  -4069.78576237     A.U. after   19 cycles

 Excitation energies and oscillator strengths:

 Excited State   1:      Singlet-A      1.6563 eV  748.57 nm  f=0.3974  <S**2>=0.000
     309 -> 315       -0.15639
     312 -> 314        0.68974
     309 <- 315       -0.10144
 This state for optimization and/or second-order correction.
 Total Energy, E(TD-HF/TD-DFT) =  -4069.72489548
 Copying the excited state density for this state as the 1-particle RhoCI density.

 Excited State   2:      Singlet-A      1.6632 eV  745.45 nm  f=0.3624  <S**2>=0.000
     310 -> 316       -0.16553
     311 -> 313        0.68789
     310 <- 316       -0.10515

 Excited State   3:      Singlet-A      2.1713 eV  571.01 nm  f=0.1381  <S**2>=0.000
     310 -> 313        0.65261
     311 -> 316        0.25463

 Excited State   4:      Singlet-A      2.2764 eV  544.65 nm  f=0.0763  <S**2>=0.000
     309 -> 314        0.61913
     312 -> 315        0.32535

 Excited State   5:      Singlet-A      2.8128 eV  440.79 nm  f=0.0000  <S**2>=0.000
     312 -> 313        0.70708

 The electronic state is 1-A.
 Alpha  occ. eigenvalues --  -46.89394 -46.87686 -19.25681 -19.25496 -19.19557
 Alpha  occ. eigenvalues --  -19.19549 -19.19155 -19.18696 -19.18398 -19.17176
 Alpha  occ. eigenvalues --  -14.42555 -14.42427 -14.42096 -14.41638 -14.39887
 Alpha  occ. eigenvalues --  -14.39814 -14.38833 -14.38792 -10.39878 -10.39260
 Alpha  occ. eigenvalues --  -10.35581 -10.34668 -10.34580 -10.33637 -10.32281
 Alpha  occ. eigenvalues --  -10.32028 -10.31899 -10.31829 -10.31740 -10.31427
 Alpha  occ. eigenvalues --  -10.31301 -10.31089 -10.31028 -10.30963 -10.30903
 Alpha  occ. eigenvalues --  -10.30624 -10.30596 -10.30549 -10.30399 -10.29193
 Alpha  occ. eigenvalues --  -10.29095 -10.28922 -10.28882 -10.28870 -10.28814
 Alpha  occ. eigenvalues --  -10.28807 -10.28735 -10.28594 -10.28582 -10.28570
 Alpha  occ. eigenvalues --  -10.28527 -10.28510 -10.28470 -10.28181 -10.27984
 Alpha  occ. eigenvalues --  -10.27956 -10.27758 -10.27740 -10.27699 -10.27676
 Alpha  occ. eigenvalues --  -10.27460 -10.27439 -10.27384 -10.27325 -10.27322
 Alpha  occ. eigenvalues --  -10.27240 -10.27211 -10.26994 -10.26988 -10.26940
 Alpha  occ. eigenvalues --  -10.26909 -10.26860 -10.26759 -10.26459 -10.26340
 Alpha  occ. eigenvalues --  -10.26183 -10.26122 -10.26056 -10.25843 -10.25754
 Alpha  occ. eigenvalues --  -10.25672 -10.25652 -10.25569 -10.24634 -10.24508
 Alpha  occ. eigenvalues --  -10.24069  -3.17881  -3.16426  -1.92754  -1.92359
 Alpha  occ. eigenvalues --   -1.92164  -1.91331  -1.90892  -1.90728  -1.16214
 Alpha  occ. eigenvalues --   -1.15924  -1.10764  -1.10316  -1.07734  -1.07598
 Alpha  occ. eigenvalues --   -1.06791  -1.05686  -1.04984  -1.04926  -1.04109
 Alpha  occ. eigenvalues --   -1.02910  -1.02754  -1.02200  -1.00533  -1.00446
 Alpha  occ. eigenvalues --   -0.92235  -0.92036  -0.89633  -0.89427  -0.89063
 Alpha  occ. eigenvalues --   -0.88792  -0.88704  -0.88618  -0.87250  -0.86928
 Alpha  occ. eigenvalues --   -0.86908  -0.86737  -0.86173  -0.85813  -0.84696
 Alpha  occ. eigenvalues --   -0.84468  -0.83989  -0.83795  -0.82868  -0.82813
 Alpha  occ. eigenvalues --   -0.82440  -0.82228  -0.81348  -0.81075  -0.80259
 Alpha  occ. eigenvalues --   -0.80006  -0.78448  -0.78109  -0.77837  -0.77207
 Alpha  occ. eigenvalues --   -0.76737  -0.76595  -0.76096  -0.75894  -0.75430
 Alpha  occ. eigenvalues --   -0.75343  -0.73121  -0.72694  -0.71879  -0.71773
 Alpha  occ. eigenvalues --   -0.70233  -0.69713  -0.69375  -0.69110  -0.67707
 Alpha  occ. eigenvalues --   -0.67561  -0.67073  -0.66999  -0.66266  -0.65458
 Alpha  occ. eigenvalues --   -0.64994  -0.64762  -0.64594  -0.64255  -0.63754
 Alpha  occ. eigenvalues --   -0.63639  -0.62235  -0.61870  -0.60161  -0.59708
 Alpha  occ. eigenvalues --   -0.59209  -0.59138  -0.59095  -0.59012  -0.58247
 Alpha  occ. eigenvalues --   -0.58138  -0.57648  -0.57585  -0.57331  -0.57288
 Alpha  occ. eigenvalues --   -0.56860  -0.56400  -0.56211  -0.55914  -0.55410
 Alpha  occ. eigenvalues --   -0.55282  -0.55240  -0.54730  -0.54655  -0.54343
 Alpha  occ. eigenvalues --   -0.54217  -0.53770  -0.53534  -0.53390  -0.53001
 Alpha  occ. eigenvalues --   -0.52932  -0.52660  -0.52647  -0.52436  -0.52384
 Alpha  occ. eigenvalues --   -0.52056  -0.51935  -0.51467  -0.51296  -0.51135
 Alpha  occ. eigenvalues --   -0.51075  -0.50758  -0.50754  -0.50656  -0.50312
 Alpha  occ. eigenvalues --   -0.50125  -0.50053  -0.49766  -0.49721  -0.49611
 Alpha  occ. eigenvalues --   -0.49451  -0.49031  -0.48875  -0.48775  -0.48744
 Alpha  occ. eigenvalues --   -0.48475  -0.48457  -0.48378  -0.48203  -0.47999
 Alpha  occ. eigenvalues --   -0.47843  -0.47685  -0.47646  -0.47496  -0.47239
 Alpha  occ. eigenvalues --   -0.47001  -0.46936  -0.46875  -0.46689  -0.46640
 Alpha  occ. eigenvalues --   -0.46453  -0.46335  -0.46088  -0.45921  -0.45799
 Alpha  occ. eigenvalues --   -0.45630  -0.45547  -0.45375  -0.45276  -0.45057
 Alpha  occ. eigenvalues --   -0.44881  -0.44527  -0.44465  -0.44281  -0.44117
 Alpha  occ. eigenvalues --   -0.44082  -0.44042  -0.43909  -0.43567  -0.43504
 Alpha  occ. eigenvalues --   -0.43425  -0.43112  -0.42908  -0.42828  -0.42644
 Alpha  occ. eigenvalues --   -0.42560  -0.42427  -0.42364  -0.42209  -0.42134
 Alpha  occ. eigenvalues --   -0.42024  -0.41853  -0.41785  -0.41686  -0.41154
 Alpha  occ. eigenvalues --   -0.41134  -0.40889  -0.40864  -0.40401  -0.40003
 Alpha  occ. eigenvalues --   -0.39876  -0.39446  -0.39161  -0.39151  -0.39042
 Alpha  occ. eigenvalues --   -0.38832  -0.38612  -0.37493  -0.37262  -0.37189
 Alpha  occ. eigenvalues --   -0.37060  -0.36697  -0.36691  -0.36451  -0.36438
 Alpha  occ. eigenvalues --   -0.36033  -0.35956  -0.34500  -0.34233  -0.34024
 Alpha  occ. eigenvalues --   -0.33916  -0.33000  -0.32781  -0.31614  -0.31443
 Alpha  occ. eigenvalues --   -0.31250  -0.31201  -0.30332  -0.30248  -0.30190
 Alpha  occ. eigenvalues --   -0.29524  -0.29334  -0.29105  -0.24544  -0.24181
 Alpha  occ. eigenvalues --   -0.21409  -0.20842
 Alpha virt. eigenvalues --   -0.09224  -0.08672  -0.01878  -0.01593   0.00400
 Alpha virt. eigenvalues --    0.00839   0.01386   0.02257   0.02408   0.03435
 Alpha virt. eigenvalues --    0.04583   0.04764   0.05234   0.05318   0.05814

 Mulliken charges:
               1
     1  Mg   0.820415
     2  C   -0.030467
     3  C   -0.063547
     4  C   -0.071099
     5  C   -0.075599
     6  N   -0.309275
     7  C   -0.098385
     8  C    0.032324
     9  C   -0.089004
    10  C    0.018001
    11  C    0.083165
    12  C    0.077589
    13  C   -0.046896
    14  H    0.019349
    15  N   -0.391667
    16  C    0.125456
    17  C   -0.145293
    18  C   -0.034453
    19  C    0.143016
    20  C    0.154378
    21  C   -0.013451
    22  O   -0.198013
    23  C    0.066617
    24  N   -0.314507
    25  C    0.069899
    26  C   -0.078993
    27  C    0.038562
    28  C   -0.001208
    29  C    0.080910
    30  C    0.022847
    31  C   -0.006865
    32  N   -0.284755
    33  C    0.084230
    34  C   -0.172560
    35  C    0.043216
    36  C    0.082319
    37  C    0.114727
    38  C    0.003007
    39  O   -0.216687
    40  C    0.045247
    41  C    0.197698
    42  O   -0.231978
    43  O   -0.339175
    44  C    0.180750
    45  H   -0.019385
    46  H   -0.063649
    47  H   -0.033396
    48  H    0.001440
    49  H    0.014755
    50  H    0.026231
    51  H    0.028970
    52  H    0.020071
    53  H    0.006515
    54  H   -0.007990
    55  H    0.024486
    56  H    0.048654
    57  H    0.049613
    58  H   -0.000642
    59  H    0.036372
    60  H    0.054927
    61  H    0.021253
    62  H    0.037938
    63  H    0.025894
    64  H    0.005649
    65  H    0.019052
    66  H    0.015467
    67  H    0.020920
    68  H    0.021107
    69  H   -0.000023
    70  H    0.029443
    71  H    0.015159
    72  H    0.025960
    73  H    0.027661
    74  H    0.049053
    75  H    0.019054
    76  H    0.043738
    77  H    0.041139
    78  H    0.050406
    79  H    0.054314
    80  Mg   0.833740
    81  C   -0.021253
    82  C   -0.080083
    83  C   -0.082825
    84  C   -0.070398
    85  N   -0.301391
    86  C   -0.047345
    87  C   -0.021547
    88  C   -0.058504
    89  C    0.064066
    90  C    0.100650
    91  C    0.032550
    92  C   -0.071197
    93  H    0.011775
    94  N   -0.386368
    95  C    0.147032
    96  C   -0.156057
    97  C   -0.010754
    98  C    0.125052
    99  C    0.113776
   100  C   -0.027288
   101  O   -0.211773
   102  C    0.063923
   103  N   -0.345424
   104  C    0.087720
   105  C   -0.030119
   106  C   -0.026280
   107  C    0.096051
   108  C    0.087987
   109  C    0.059826
   110  C   -0.013169
   111  N   -0.360273
   112  C    0.064886
   113  C   -0.139215
   114  C   -0.053543
   115  C    0.135950
   116  C    0.107505
   117  C    0.083411
   118  O   -0.200522
   119  C    0.008613
   120  C    0.216121
   121  O   -0.257606
   122  O   -0.336392
   123  C    0.163761
   124  H   -0.033106
   125  H   -0.005376
   126  H   -0.025330
   127  H    0.025910
   128  H    0.008717
   129  H    0.023766
   130  H    0.000384
   131  H    0.025691
   132  H    0.009441
   133  H    0.036883
   134  H    0.030638
   135  H    0.032629
   136  H    0.039010
   137  H    0.020469
   138  H    0.046046
   139  H    0.006051
   140  H    0.040860
   141  H    0.037603
   142  H    0.013681
   143  H   -0.013361
   144  H    0.012721
   145  H    0.026613
   146  H    0.015494
   147  H    0.009065
   148  H    0.003945
   149  H    0.005068
   150  H    0.012458
   151  H    0.022021
   152  H    0.039013
   153  H    0.004997
   154  H    0.032557
   155  H    0.049742
   156  H    0.048724
   157  H    0.042582
   158  H    0.059321
 Sum of Mulliken charges =  -0.00000

 Dipole moment (field-independent basis, Debye):
    X=             -8.6601    Y=             -1.8419    Z=             -2.7898  Tot=              9.2830
 Quadrupole moment (field-independent basis, Debye-Ang):
   XX=           -496.2183   YY=           -543.6332   ZZ=           -481.5790
   XY=            -89.9760   XZ=            -38.1503   YZ=             11.2120

 Normal termination of Gaussian 16 at Tue Aug 31 17:39:48 2021.
