 Gaussian 16, Revision A.03,
 Gaussian 16:  ES64L-G16RevA.03 25-Dec-2016

 ---------------------------------------------------
 #p cam-b3lyp/Def2SVP td=(nstates=5) density=(CIS=1)
 ---------------------------------------------------

 --------------------------------
 TDDFT excited states in gaussian
 --------------------------------
 Symbolic Z-matrix:
 Charge =  0 Multiplicity = 1

                         Standard orientation:
 ---------------------------------------------------------------------
 Center     Atomic      Atomic             Coordinates (Angstroms)
 Number     Number       Type             X           Y           Z
 ---------------------------------------------------------------------
      1         12           0       -0.672979    0.022169   -0.520114
      2          6           0        2.703075    0.420386    0.191734
      3          6           0       -0.269851   -3.475553   -0.117634
      4          6           0       -3.964897   -0.309561   -0.053869
      5          6           0       -1.021102    3.516280   -0.206010
      6          7           0        1.022119   -1.365831    0.347177
      7          6           0        2.328922   -0.944624    0.290758
      8          6           0        3.280694   -2.075041    0.527113
      9          6           0        2.370019   -3.338670    0.171735
     10          6           0        0.920170   -2.737585    0.151289
     11          6           0        2.730120   -4.104134   -1.199785
     12          6           0        3.918068   -1.982596    2.007873
     13          6           0        5.212472   -2.607543    2.149899
     14          1           0        5.268515   -3.665954    3.271832
     15          7           0       -1.968521   -1.638565   -0.321540
     16          6           0       -1.605633   -3.007271   -0.180200
     17          6           0       -2.834149   -3.780977   -0.118424
     18          6           0       -3.937890   -2.893769   -0.119480
     19          6           0       -3.314592   -1.534408   -0.254954
     20          6           0       -2.829341   -5.248755    0.095389
     21          6           0       -5.448834   -3.346365    0.046476
     22          8           0       -5.658099   -4.552781    0.163771
     23          6           0       -6.611881   -2.403558   -0.242507
     24          7           0       -2.196956    1.421596   -0.084544
     25          6           0       -3.486715    0.999588   -0.067404
     26          6           0       -4.552962    2.216501    0.269746
     27          6           0       -3.608609    3.484230    0.000200
     28          6           0       -2.194822    2.835022   -0.133615
     29          6           0       -5.837499    2.276329   -0.640754
     30          6           0       -3.647682    4.514234    1.130683
     31          6           0       -4.072929    5.976814    0.857082
     32          7           0        0.594863    1.646424   -0.385173
     33          6           0        0.311598    2.979090   -0.306723
     34          6           0        1.539762    3.723902   -0.348104
     35          6           0        2.523869    2.696985   -0.089540
     36          6           0        1.852625    1.462347   -0.083755
     37          6           0        1.679396    5.218689   -0.329005
     38          6           0        3.922687    2.488974    0.221692
     39          8           0        4.842853    3.246706    0.162304
     40          6           0        4.164259    0.936820    0.375758
     41          6           0        5.072896    0.313925   -0.706930
     42          8           0        4.932737    0.475083   -1.900224
     43          8           0        6.136134   -0.377746   -0.090752
     44          6           0        7.169808   -0.869678   -0.950686
     45          1           0       -0.067729   -4.546021   -0.053331
     46          1           0       -4.986683   -0.348944    0.328903
     47          1           0       -1.176000    4.594275   -0.132580
     48          1           0        4.030369   -2.158555   -0.260405
     49          1           0        2.446838   -4.050063    0.994791
     50          1           0        2.975529   -5.122879   -0.900000
     51          1           0        3.555309   -3.641151   -1.740021
     52          1           0        1.817764   -4.102499   -1.796896
     53          1           0        3.197681   -2.521203    2.623313
     54          1           0        3.833660   -0.913009    2.202011
     55          1           0        5.913142   -1.801406    2.364066
     56          1           0        5.475101   -3.136060    1.233536
     57          1           0       -1.837784   -5.674334   -0.057850
     58          1           0       -3.446713   -5.736313   -0.659504
     59          1           0       -3.135421   -5.502215    1.110636
     60          1           0       -6.686943   -1.570711    0.457369
     61          1           0       -7.525081   -2.999447   -0.229805
     62          1           0       -6.483773   -2.036473   -1.260872
     63          1           0       -4.734791    2.096607    1.337413
     64          1           0       -3.743068    3.958866   -0.972024
     65          1           0       -6.720989    2.049494   -0.044729
     66          1           0       -5.751508    1.537522   -1.438443
     67          1           0       -5.888787    3.290118   -1.039325
     68          1           0       -2.714024    4.529576    1.692496
     69          1           0       -4.270714    4.234575    1.980073
     70          1           0       -3.303614    6.746391    0.925963
     71          1           0       -4.784538    6.212511    1.648753
     72          1           0       -4.524847    6.079262   -0.130249
     73          1           0        2.687057    5.447718   -0.676683
     74          1           0        1.810143    5.658158    0.659368
     75          1           0        0.883678    5.763137   -0.836759
     76          1           0        4.674747    0.866649    1.336676
     77          1           0        7.524619   -1.714138   -0.358953
     78          1           0        8.025375   -0.195615   -0.988616
     79          1           0        6.783396   -1.069515   -1.949310
 ---------------------------------------------------------------------

 SCF Done:  E(RCAM-B3LYP) =  -2034.87639732     A.U. after   17 cycles

 Excitation energies and oscillator strengths:

 Excited State   1:      Singlet-A      1.6846 eV  736.01 nm  f=0.0000  <S**2>=0.000
     155 ->158        -0.17419
     156 ->157         0.68815
     155 <-158        -0.10837
 This state for optimization and/or second-order correction.
 Total Energy, E(TD-HF/TD-DFT) =  -2034.81449117
 Copying the excited state density for this state as the 1-particle RhoCI density.

 Excited State   2:      Singlet-A      2.2457 eV  552.09 nm  f=0.0000  <S**2>=0.000
     155 ->157         0.63692
     156 ->158         0.29182

 Excited State   3:      Singlet-A      3.3605 eV  368.95 nm  f=0.0000  <S**2>=0.000
     152 ->157        -0.32606
     153 ->157         0.11109
     154 ->157         0.60154

 Excited State   4:      Singlet-A      3.3919 eV  365.53 nm  f=0.0000  <S**2>=0.000
     151 ->157        -0.11747
     152 ->157        -0.38627
     153 ->157         0.40152
     154 ->157        -0.27599
     156 ->158         0.26555

 Excited State   5:      Singlet-A      3.4709 eV  357.21 nm  f=0.0000  <S**2>=0.000
     152 ->157         0.40658
     153 ->157         0.43557
     153 ->159         0.20663
     153 ->161         0.20021
     154 ->157         0.14188

 The electronic state is 1-A.
 Alpha  occ. eigenvalues --  -46.89808 -19.25139 -19.20751 -19.19704 -19.18266
 Alpha  occ. eigenvalues --  -14.42319 -14.42019 -14.40205 -14.39088 -10.40090
 Alpha  occ. eigenvalues --  -10.36387 -10.34027 -10.31818 -10.31628 -10.31466
 Alpha  occ. eigenvalues --  -10.31195 -10.30977 -10.30567 -10.30483 -10.29661
 Alpha  occ. eigenvalues --  -10.29288 -10.28656 -10.28516 -10.28516 -10.28487
 Alpha  occ. eigenvalues --  -10.28229 -10.28172 -10.28142 -10.28124 -10.27818
 Alpha  occ. eigenvalues --  -10.27658 -10.27627 -10.27048 -10.26872 -10.26703
 Alpha  occ. eigenvalues --  -10.26446 -10.26438 -10.26404 -10.26299 -10.25866
 Alpha  occ. eigenvalues --  -10.25704 -10.25467 -10.24639  -3.18226  -1.93075
 Alpha  occ. eigenvalues --   -1.92735  -1.92493  -1.16088  -1.10803  -1.10299
 Alpha  occ. eigenvalues --   -1.08744  -1.04920  -1.02923  -1.02392  -1.01604
 Alpha  occ. eigenvalues --   -0.92252  -0.89224  -0.88379  -0.88193  -0.86882
 Alpha  occ. eigenvalues --   -0.86437  -0.85822  -0.84100  -0.83377  -0.82708
 Alpha  occ. eigenvalues --   -0.82240  -0.81157  -0.80263  -0.77844  -0.77340
 Alpha  occ. eigenvalues --   -0.76773  -0.76133  -0.74944  -0.72670  -0.71354
 Alpha  occ. eigenvalues --   -0.69249  -0.68446  -0.67463  -0.66515  -0.65928
 Alpha  occ. eigenvalues --   -0.64823  -0.64513  -0.64103  -0.62831  -0.59659
 Alpha  occ. eigenvalues --   -0.59487  -0.59002  -0.58575  -0.58017  -0.57474
 Alpha  occ. eigenvalues --   -0.56340  -0.55341  -0.54975  -0.54842  -0.54015
 Alpha  occ. eigenvalues --   -0.53254  -0.52730  -0.52608  -0.52457  -0.52101
 Alpha  occ. eigenvalues --   -0.51745  -0.51650  -0.51049  -0.50807  -0.50211
 Alpha  occ. eigenvalues --   -0.50094  -0.49713  -0.49623  -0.49226  -0.49158
 Alpha  occ. eigenvalues --   -0.48771  -0.48459  -0.48023  -0.47901  -0.47315
 Alpha  occ. eigenvalues --   -0.47035  -0.46960  -0.46431  -0.46179  -0.45931
 Alpha  occ. eigenvalues --   -0.45685  -0.45247  -0.44966  -0.44773  -0.44519
 Alpha  occ. eigenvalues --   -0.44084  -0.43975  -0.43540  -0.43390  -0.43119
 Alpha  occ. eigenvalues --   -0.42720  -0.42690  -0.42504  -0.42203  -0.41436
 Alpha  occ. eigenvalues --   -0.41084  -0.40984  -0.40471  -0.39812  -0.38661
 Alpha  occ. eigenvalues --   -0.38193  -0.37736  -0.37076  -0.36702  -0.36238
 Alpha  occ. eigenvalues --   -0.35615  -0.34796  -0.34271  -0.33288  -0.31592
 Alpha  occ. eigenvalues --   -0.31261  -0.30226  -0.29977  -0.29181  -0.24325
 Alpha  occ. eigenvalues --   -0.21178
 Alpha virt. eigenvalues --   -0.08792  -0.01657   0.00383   0.01324   0.02155
 Alpha virt. eigenvalues --    0.04562   0.04660   0.05823   0.06736   0.08135
 Alpha virt. eigenvalues --    0.08624   0.08911   0.09137   0.09263   0.10181

 Mulliken charges:
               1
     1  Mg   0.816968
     2  C   -0.114736
     3  C   -0.112605
     4  C   -0.118097
     5  C   -0.105152
     6  N   -0.338959
     7  C    0.007115
     8  C   -0.049084
     9  C   -0.080090
    10  C    0.053409
    11  C    0.063540
    12  C    0.098019
    13  C   -0.034482
    14  H    0.003618
    15  N   -0.387545
    16  C    0.167013
    17  C   -0.177873
    18  C   -0.085818
    19  C    0.188981
    20  C    0.144009
    21  C    0.024751
    22  O   -0.213893
    23  C    0.035168
    24  N   -0.392324
    25  C    0.081411
    26  C   -0.076156
    27  C    0.032242
    28  C    0.060713
    29  C    0.071289
    30  C    0.015085
    31  C   -0.000127
    32  N   -0.326890
    33  C    0.191700
    34  C   -0.148982
    35  C   -0.025798
    36  C    0.241165
    37  C    0.110564
    38  C    0.021004
    39  O   -0.145709
    40  C   -0.008200
    41  C    0.210902
    42  O   -0.191769
    43  O   -0.358207
    44  C    0.169335
    45  H   -0.013492
    46  H   -0.042291
    47  H   -0.033154
    48  H    0.011969
    49  H    0.012204
    50  H    0.021990
    51  H    0.030891
    52  H    0.020583
    53  H    0.012514
    54  H    0.014496
    55  H    0.040361
    56  H    0.028343
    57  H   -0.012311
    58  H    0.031996
    59  H    0.040637
    60  H    0.049654
    61  H    0.031223
    62  H    0.045485
    63  H    0.031651
    64  H    0.020397
    65  H    0.017811
    66  H    0.024608
    67  H    0.024340
    68  H    0.007459
    69  H   -0.004897
    70  H    0.018725
    71  H    0.012264
    72  H    0.011935
    73  H    0.026720
    74  H    0.021401
    75  H    0.022524
    76  H    0.043865
    77  H    0.028318
    78  H    0.035832
    79  H    0.050443
 Sum of Mulliken charges =  -0.00000

 Dipole moment (field-independent basis, Debye):
    X=             -0.4497    Y=              2.6225    Z=              0.0595  Tot=              2.6614
 Quadrupole moment (field-independent basis, Debye-Ang):
   XX=           -257.1340   YY=           -260.0595   ZZ=           -259.8121
   XY=            -52.4008   XZ=              2.8190   YZ=              5.8551

 Normal termination of Gaussian 16 at Fri Oct  8 18:31:39 2021.
