 Gaussian 16, Revision A.03,
 Gaussian 16:  ES64L-G16RevA.03 25-Dec-2016

 -----------------------------------
 #p cam-b3lyp/Def2SVP td=(nstates=5)
 -----------------------------------

 --------------------------------
 TDDFT excited states in gaussian
 --------------------------------
 Symbolic Z-matrix:
 Charge =  0 Multiplicity = 1

                         Standard orientation:
 ---------------------------------------------------------------------
 Center     Atomic      Atomic             Coordinates (Angstroms)
 Number     Number       Type             X           Y           Z
 ---------------------------------------------------------------------
      1         12           0      -21.633879    0.212392   -0.530845
      2          6           0      -18.307599   -0.918783   -0.450221
      3          6           0      -22.672356   -3.065237   -0.501497
      4          6           0      -24.664010    1.349692    0.155014
      5          6           0      -20.431141    3.546394   -0.294842
      6          7           0      -20.615480   -1.724104   -0.226625
      7          6           0      -19.218361   -1.971364   -0.221425
      8          6           0      -18.887534   -3.389265   -0.445333
      9          6           0      -20.326088   -4.055862   -0.559404
     10          6           0      -21.282744   -2.878164   -0.459816
     11          6           0      -20.461237   -4.968688   -1.802185
     12          6           0      -18.176451   -4.053998    0.693709
     13          6           0      -18.603888   -3.642067    2.110315
     14          1           0      -18.631748   -4.683033    3.296402
     15          7           0      -23.473592   -0.709573   -0.243004
     16          6           0      -23.681451   -2.031142   -0.397632
     17          6           0      -25.098957   -2.281161   -0.319339
     18          6           0      -25.719678   -1.013013   -0.202916
     19          6           0      -24.627147   -0.030437   -0.119414
     20          6           0      -25.758944   -3.633796   -0.327210
     21          6           0      -27.226192   -0.758209   -0.164244
     22          8           0      -28.019313   -1.677415   -0.223262
     23          6           0      -27.923958    0.550981    0.057737
     24          7           0      -22.401655    2.116950    0.123544
     25          6           0      -23.739742    2.349907    0.298503
     26          6           0      -24.051546    3.881539    0.356587
     27          6           0      -22.628497    4.496832    0.517770
     28          6           0      -21.765224    3.335898    0.074829
     29          6           0      -24.763011    4.463738   -0.888634
     30          6           0      -22.158231    4.798405    2.018540
     31          6           0      -21.531002    6.121273    2.272019
     32          7           0      -19.845485    1.156543   -0.501425
     33          6           0      -19.550669    2.460191   -0.595254
     34          6           0      -18.121286    2.637076   -1.054005
     35          6           0      -17.639899    1.289235   -1.048101
     36          6           0      -18.682235    0.448254   -0.565441
     37          6           0      -17.339726    3.898208   -1.393088
     38          6           0      -16.437725    0.517094   -1.175716
     39          8           0      -15.293588    0.862584   -1.424978
     40          6           0      -16.845805   -0.968583   -0.816666
     41          6           0      -16.126766   -1.324691    0.467969
     42          8           0      -16.317433   -0.882789    1.552570
     43          8           0      -15.258641   -2.360076    0.193998
     44          6           0      -14.706728   -2.999214    1.392839
     45          1           0      -22.989539   -4.092596   -0.691252
     46          1           0      -25.673464    1.761188    0.205570
     47          1           0      -20.151092    4.600051   -0.356544
     48          1           0      -18.267407   -3.445527   -1.339965
     49          1           0      -20.662068   -4.620778    0.310070
     50          1           0      -20.897972   -5.857142   -1.345755
     51          1           0      -19.456125   -5.118386   -2.196608
     52          1           0      -21.167644   -4.585234   -2.538698
     53          1           0      -17.091968   -4.078999    0.583806
     54          1           0      -18.309304   -5.134842    0.745764
     55          1           0      -19.592868   -3.200215    1.984074
     56          1           0      -17.923429   -2.816421    2.319343
     57          1           0      -26.512389   -3.706436    0.457802
     58          1           0      -25.001453   -4.415104   -0.266235
     59          1           0      -26.248866   -3.681148   -1.300046
     60          1           0      -27.783545    0.995978    1.042282
     61          1           0      -28.965842    0.230544    0.068941
     62          1           0      -27.870250    1.217876   -0.803430
     63          1           0      -24.695889    4.055085    1.218354
     64          1           0      -22.457997    5.366839   -0.116886
     65          1           0      -24.070581    5.130340   -1.402404
     66          1           0      -25.766104    4.818803   -0.652910
     67          1           0      -24.956642    3.650039   -1.586647
     68          1           0      -21.499952    4.012356    2.387817
     69          1           0      -23.080186    4.728417    2.596030
     70          1           0      -22.034047    6.688691    3.054741
     71          1           0      -21.454041    6.744791    1.380988
     72          1           0      -20.509324    6.020686    2.637295
     73          1           0      -16.482237    3.917665   -0.720434
     74          1           0      -18.040613    4.733889   -1.389212
     75          1           0      -16.921577    3.721571   -2.383989
     76          1           0      -16.610585   -1.667785   -1.618782
     77          1           0      -15.381790   -2.957284    2.247500
     78          1           0      -13.803778   -2.422194    1.592658
     79          1           0      -14.353517   -3.977703    1.068545
     80         12           0       20.797848    0.691063   -0.430691
     81          6           0       21.314357   -2.689743    0.174627
     82          6           0       17.800599    0.494538    1.449850
     83          6           0       20.845015    4.003899    0.001801
     84          6           0       24.098081    0.844931   -1.660916
     85          7           0       19.845454   -0.907448    1.014923
     86          6           0       20.143123   -2.236875    0.835059
     87          6           0       19.183960   -3.118641    1.571313
     88          6           0       17.932068   -2.143606    1.756928
     89          6           0       18.529089   -0.730877    1.422945
     90          6           0       16.635405   -2.482547    0.862243
     91          6           0       19.876980   -3.735265    2.893031
     92          6           0       19.317682   -4.989421    3.340793
     93          1           0       18.844436   -4.966252    4.809673
     94          7           0       19.443615    2.082205    0.409950
     95          6           0       18.254734    1.800253    1.139392
     96          6           0       17.638176    3.071689    1.478505
     97          6           0       18.486178    4.122957    1.052932
     98          6           0       19.625618    3.421092    0.371920
     99          6           0       16.407021    3.154044    2.301661
    100          6           0       18.216412    5.659792    1.337007
    101          8           0       17.188724    5.939342    1.952392
    102          6           0       18.993125    6.762257    0.625415
    103          7           0       22.314190    2.140005   -0.698830
    104          6           0       21.998128    3.451802   -0.553388
    105          6           0       23.287348    4.452557   -0.813829
    106          6           0       24.272265    3.433166   -1.563747
    107          6           0       23.567009    2.056583   -1.349731
    108          6           0       23.005799    5.716119   -1.712031
    109          6           0       25.689380    3.432533   -0.987369
    110          6           0       26.908661    3.769167   -1.878922
    111          7           0       22.264082   -0.664744   -0.955838
    112          6           0       23.511636   -0.456529   -1.468331
    113          6           0       24.110949   -1.725625   -1.776652
    114          6           0       23.253218   -2.645188   -1.063502
    115          6           0       22.172456   -1.904742   -0.554950
    116          6           0       25.460399   -1.949791   -2.395511
    117          6           0       23.138018   -4.024466   -0.637889
    118          8           0       23.754820   -4.987146   -0.980223
    119          6           0       21.794616   -4.174658    0.176967
    120          6           0       20.726659   -5.064429   -0.496536
    121          8           0       20.364105   -4.953750   -1.648000
    122          8           0       20.321663   -6.076058    0.398530
    123          6           0       19.462184   -7.094358   -0.125232
    124          1           0       16.854461    0.354795    1.975384
    125          1           0       21.019510    5.032559    0.323550
    126          1           0       25.108245    0.939420   -2.063529
    127          1           0       18.736357   -3.875476    0.926313
    128          1           0       17.641962   -2.165956    2.807995
    129          1           0       15.835413   -2.664487    1.579772
    130          1           0       16.783592   -3.341719    0.208783
    131          1           0       16.419959   -1.581929    0.286562
    132          1           0       19.688392   -2.975141    3.650967
    133          1           0       20.928448   -3.708635    2.605740
    134          1           0       20.105642   -5.731150    3.215806
    135          1           0       18.434964   -5.236900    2.751227
    136          1           0       15.913618    2.185888    2.385407
    137          1           0       15.669631    3.785395    1.805297
    138          1           0       16.629384    3.491078    3.314387
    139          1           0       20.048630    6.801535    0.896450
    140          1           0       18.501789    7.707984    0.856431
    141          1           0       18.879697    6.596359   -0.445959
    142          1           0       23.647201    4.658837    0.193794
    143          1           0       24.287251    3.524026   -2.650070
    144          1           0       23.097078    6.620982   -1.111911
    145          1           0       21.992444    5.658932   -2.111255
    146          1           0       23.750200    5.702902   -2.508867
    147          1           0       25.903984    2.509091   -0.449981
    148          1           0       25.830681    4.084665   -0.125627
    149          1           0       27.598053    2.958553   -2.116586
    150          1           0       27.493548    4.479409   -1.293989
    151          1           0       26.595670    4.197860   -2.831710
    152          1           0       25.472590   -2.974557   -2.767558
    153          1           0       26.276499   -2.088713   -1.687139
    154          1           0       25.767580   -1.195006   -3.118936
    155          1           0       22.122738   -4.664100    1.094392
    156          1           0       18.940216   -7.390522    0.785257
    157          1           0       20.015663   -7.987428   -0.414853
    158          1           0       18.868959   -6.714036   -0.955857
 ---------------------------------------------------------------------

 SCF Done:  E(RCAM-B3LYP) =  -4069.77167452     A.U. after   17 cycles

 Excitation energies and oscillator strengths:

 Excited State   1:      Singlet-A      1.6651 eV  744.62 nm  f=0.3829  <S**2>=0.000
     309 -> 315        0.17239
     312 -> 313        0.68740
     309 <- 315        0.10773
 This state for optimization and/or second-order correction.
 Total Energy, E(TD-HF/TD-DFT) =  -4069.71048458
 Copying the excited state density for this state as the 1-particle RhoCI density.

 Excited State   2:      Singlet-A      1.6846 eV  735.97 nm  f=0.3819  <S**2>=0.000
     310 -> 316       -0.17399
     311 -> 314        0.68773
     310 <- 316       -0.10827

 Excited State   3:      Singlet-A      2.2457 eV  552.08 nm  f=0.1070  <S**2>=0.000
     310 -> 314        0.63688
     311 -> 316        0.29189

 Excited State   4:      Singlet-A      2.2662 eV  547.11 nm  f=0.1014  <S**2>=0.000
     309 -> 313        0.62923
     312 -> 315       -0.31013

 Excited State   5:      Singlet-A      3.1175 eV  397.70 nm  f=0.0000  <S**2>=0.000
     312 -> 314        0.70710

 The electronic state is 1-A.
 Alpha  occ. eigenvalues --  -46.89792 -46.88587 -19.25124 -19.24612 -19.20736
 Alpha  occ. eigenvalues --  -19.20435 -19.19686 -19.19131 -19.18255 -19.18250
 Alpha  occ. eigenvalues --  -14.42381 -14.42303 -14.42003 -14.41892 -14.40188
 Alpha  occ. eigenvalues --  -14.39601 -14.39540 -14.39072 -10.40075 -10.39252
 Alpha  occ. eigenvalues --  -10.36369 -10.34999 -10.34611 -10.34011 -10.31802
 Alpha  occ. eigenvalues --  -10.31612 -10.31450 -10.31445 -10.31216 -10.31179
 Alpha  occ. eigenvalues --  -10.30960 -10.30952 -10.30824 -10.30663 -10.30589
 Alpha  occ. eigenvalues --  -10.30551 -10.30474 -10.30467 -10.29955 -10.29644
 Alpha  occ. eigenvalues --  -10.29324 -10.29273 -10.28721 -10.28641 -10.28522
 Alpha  occ. eigenvalues --  -10.28513 -10.28500 -10.28499 -10.28470 -10.28341
 Alpha  occ. eigenvalues --  -10.28296 -10.28213 -10.28155 -10.28131 -10.28125
 Alpha  occ. eigenvalues --  -10.28108 -10.28054 -10.27828 -10.27802 -10.27750
 Alpha  occ. eigenvalues --  -10.27642 -10.27610 -10.27441 -10.27047 -10.27031
 Alpha  occ. eigenvalues --  -10.26857 -10.26757 -10.26685 -10.26627 -10.26568
 Alpha  occ. eigenvalues --  -10.26514 -10.26495 -10.26430 -10.26424 -10.26396
 Alpha  occ. eigenvalues --  -10.26388 -10.26282 -10.26009 -10.25853 -10.25689
 Alpha  occ. eigenvalues --  -10.25519 -10.25495 -10.25448 -10.25376 -10.25135
 Alpha  occ. eigenvalues --  -10.24623  -3.18210  -3.17232  -1.93059  -1.92719
 Alpha  occ. eigenvalues --   -1.92477  -1.92093  -1.91692  -1.91550  -1.17273
 Alpha  occ. eigenvalues --   -1.16073  -1.10788  -1.10415  -1.10281  -1.09957
 Alpha  occ. eigenvalues --   -1.08968  -1.08728  -1.04904  -1.04590  -1.04000
 Alpha  occ. eigenvalues --   -1.03344  -1.02906  -1.02634  -1.02376  -1.01588
 Alpha  occ. eigenvalues --   -0.93190  -0.92236  -0.89875  -0.89437  -0.89209
 Alpha  occ. eigenvalues --   -0.88393  -0.88363  -0.88177  -0.87532  -0.86865
 Alpha  occ. eigenvalues --   -0.86420  -0.86342  -0.85812  -0.85805  -0.84752
 Alpha  occ. eigenvalues --   -0.84176  -0.84083  -0.83363  -0.82721  -0.82691
 Alpha  occ. eigenvalues --   -0.82224  -0.81698  -0.81141  -0.80883  -0.80522
 Alpha  occ. eigenvalues --   -0.80246  -0.77954  -0.77829  -0.77514  -0.77323
 Alpha  occ. eigenvalues --   -0.76855  -0.76756  -0.76118  -0.76054  -0.75142
 Alpha  occ. eigenvalues --   -0.74927  -0.72711  -0.72654  -0.71698  -0.71337
 Alpha  occ. eigenvalues --   -0.69638  -0.69235  -0.68817  -0.68691  -0.68430
 Alpha  occ. eigenvalues --   -0.67447  -0.67093  -0.66499  -0.65913  -0.65873
 Alpha  occ. eigenvalues --   -0.65087  -0.64807  -0.64547  -0.64496  -0.64387
 Alpha  occ. eigenvalues --   -0.64087  -0.62815  -0.62109  -0.60013  -0.59643
 Alpha  occ. eigenvalues --   -0.59472  -0.59423  -0.59074  -0.58986  -0.58949
 Alpha  occ. eigenvalues --   -0.58559  -0.58145  -0.58001  -0.57458  -0.57388
 Alpha  occ. eigenvalues --   -0.56569  -0.56323  -0.56112  -0.55426  -0.55326
 Alpha  occ. eigenvalues --   -0.55108  -0.54959  -0.54827  -0.54612  -0.54081
 Alpha  occ. eigenvalues --   -0.54000  -0.53238  -0.53050  -0.52861  -0.52714
 Alpha  occ. eigenvalues --   -0.52591  -0.52440  -0.52380  -0.52291  -0.52132
 Alpha  occ. eigenvalues --   -0.52084  -0.51729  -0.51634  -0.51625  -0.51430
 Alpha  occ. eigenvalues --   -0.51168  -0.51035  -0.50937  -0.50792  -0.50195
 Alpha  occ. eigenvalues --   -0.50140  -0.50078  -0.49696  -0.49612  -0.49607
 Alpha  occ. eigenvalues --   -0.49412  -0.49259  -0.49210  -0.49143  -0.48946
 Alpha  occ. eigenvalues --   -0.48775  -0.48755  -0.48606  -0.48443  -0.48372
 Alpha  occ. eigenvalues --   -0.48007  -0.47885  -0.47562  -0.47299  -0.47204
 Alpha  occ. eigenvalues --   -0.47113  -0.47019  -0.46943  -0.46911  -0.46788
 Alpha  occ. eigenvalues --   -0.46414  -0.46385  -0.46163  -0.46011  -0.45914
 Alpha  occ. eigenvalues --   -0.45889  -0.45669  -0.45510  -0.45235  -0.45230
 Alpha  occ. eigenvalues --   -0.44951  -0.44758  -0.44682  -0.44504  -0.44379
 Alpha  occ. eigenvalues --   -0.44067  -0.44056  -0.43959  -0.43911  -0.43608
 Alpha  occ. eigenvalues --   -0.43525  -0.43375  -0.43238  -0.43102  -0.42812
 Alpha  occ. eigenvalues --   -0.42705  -0.42673  -0.42530  -0.42488  -0.42388
 Alpha  occ. eigenvalues --   -0.42205  -0.42187  -0.42134  -0.41908  -0.41421
 Alpha  occ. eigenvalues --   -0.41125  -0.41068  -0.40968  -0.40779  -0.40454
 Alpha  occ. eigenvalues --   -0.40408  -0.39830  -0.39797  -0.39161  -0.38646
 Alpha  occ. eigenvalues --   -0.38463  -0.38177  -0.37886  -0.37720  -0.37340
 Alpha  occ. eigenvalues --   -0.37060  -0.37045  -0.36687  -0.36450  -0.36222
 Alpha  occ. eigenvalues --   -0.35772  -0.35599  -0.35112  -0.34780  -0.34255
 Alpha  occ. eigenvalues --   -0.34236  -0.33272  -0.33032  -0.31575  -0.31385
 Alpha  occ. eigenvalues --   -0.31244  -0.31108  -0.30543  -0.30210  -0.29961
 Alpha  occ. eigenvalues --   -0.29910  -0.29661  -0.29166  -0.24316  -0.24309
 Alpha  occ. eigenvalues --   -0.21162  -0.21054
 Alpha virt. eigenvalues --   -0.08787  -0.08775  -0.01796  -0.01641   0.00210
 Alpha virt. eigenvalues --    0.00399   0.01340   0.01371   0.02171   0.02517
 Alpha virt. eigenvalues --    0.04578   0.04677   0.05045   0.05423   0.05839

 Mulliken charges:
               1
     1  Mg   0.832713
     2  C   -0.065585
     3  C   -0.081992
     4  C   -0.051832
     5  C   -0.084150
     6  N   -0.298301
     7  C   -0.025815
     8  C    0.018503
     9  C   -0.084322
    10  C    0.035865
    11  C    0.085085
    12  C    0.008026
    13  C   -0.055345
    14  H    0.025480
    15  N   -0.351559
    16  C    0.137571
    17  C   -0.183557
    18  C   -0.001198
    19  C    0.138281
    20  C    0.160176
    21  C   -0.032215
    22  O   -0.207987
    23  C    0.057949
    24  N   -0.289631
    25  C    0.015905
    26  C   -0.027203
    27  C   -0.062454
    28  C    0.016113
    29  C    0.089644
    30  C    0.056719
    31  C    0.010157
    32  N   -0.344921
    33  C    0.137347
    34  C   -0.195332
    35  C   -0.004426
    36  C    0.133838
    37  C    0.146233
    38  C    0.051134
    39  O   -0.169727
    40  C    0.007136
    41  C    0.187087
    42  O   -0.181061
    43  O   -0.345682
    44  C    0.175656
    45  H   -0.026730
    46  H   -0.055791
    47  H   -0.024797
    48  H    0.014635
    49  H    0.028488
    50  H    0.016092
    51  H    0.023432
    52  H    0.024309
    53  H   -0.006935
    54  H   -0.001139
    55  H    0.031152
    56  H    0.037564
    57  H    0.042144
    58  H   -0.001157
    59  H    0.032079
    60  H    0.043736
    61  H    0.018242
    62  H    0.031571
    63  H    0.006932
    64  H    0.007276
    65  H    0.018882
    66  H    0.023717
    67  H    0.006583
    68  H    0.033380
    69  H   -0.000394
    70  H    0.016117
    71  H    0.005064
    72  H    0.013762
    73  H    0.046469
    74  H    0.016176
    75  H    0.034356
    76  H    0.034133
    77  H    0.056370
    78  H    0.035420
    79  H    0.036536
    80  Mg   0.828029
    81  C   -0.072434
    82  C   -0.057793
    83  C   -0.081633
    84  C   -0.081440
    85  N   -0.265428
    86  C   -0.081246
    87  C   -0.050701
    88  C   -0.081867
    89  C    0.007707
    90  C    0.060789
    91  C    0.092496
    92  C   -0.035259
    93  H    0.002939
    94  N   -0.385529
    95  C    0.158090
    96  C   -0.142448
    97  C   -0.067424
    98  C    0.178886
    99  C    0.144034
   100  C    0.031870
   101  O   -0.206454
   102  C    0.035034
   103  N   -0.335708
   104  C    0.049468
   105  C   -0.075291
   106  C    0.031369
   107  C    0.005883
   108  C    0.071057
   109  C    0.013970
   110  C   -0.000424
   111  N   -0.323368
   112  C    0.132913
   113  C   -0.155262
   114  C   -0.032986
   115  C    0.194950
   116  C    0.109656
   117  C    0.027392
   118  O   -0.144020
   119  C   -0.010143
   120  C    0.212581
   121  O   -0.191224
   122  O   -0.358187
   123  C    0.169352
   124  H   -0.013798
   125  H   -0.041832
   126  H   -0.032983
   127  H    0.008080
   128  H    0.010267
   129  H    0.021983
   130  H    0.030845
   131  H    0.021849
   132  H    0.012238
   133  H    0.014196
   134  H    0.040356
   135  H    0.028161
   136  H   -0.012230
   137  H    0.032747
   138  H    0.042230
   139  H    0.049836
   140  H    0.031293
   141  H    0.045633
   142  H    0.029948
   143  H    0.018150
   144  H    0.017700
   145  H    0.025648
   146  H    0.023960
   147  H    0.007627
   148  H   -0.005488
   149  H    0.018746
   150  H    0.012229
   151  H    0.011894
   152  H    0.026166
   153  H    0.020790
   154  H    0.022567
   155  H    0.044388
   156  H    0.028348
   157  H    0.035810
   158  H    0.050446
 Sum of Mulliken charges =  -0.00000

 Dipole moment (field-independent basis, Debye):
    X=             -1.2074    Y=              3.9756    Z=             -1.2495  Tot=              4.3387
 Quadrupole moment (field-independent basis, Debye-Ang):
   XX=           -488.7232   YY=           -481.3838   ZZ=           -520.6457
   XY=             45.6828   XZ=             28.3159   YZ=            -20.0563

 Normal termination of Gaussian 16 at Tue Sep 14 18:14:13 2021.
