 Gaussian 16, Revision A.03,
 Gaussian 16:  ES64L-G16RevA.03 25-Dec-2016

 ----------------------------------------------------------
 #p cam-b3lyp/Def2SVP td=(nstates=5) density=(transition=1)
 ----------------------------------------------------------

 --------------------------------
 TDDFT excited states in gaussian
 --------------------------------
 Symbolic Z-matrix:
 Charge =  0 Multiplicity = 1

                         Standard orientation:
 ---------------------------------------------------------------------
 Center     Atomic      Atomic             Coordinates (Angstroms)
 Number     Number       Type             X           Y           Z
 ---------------------------------------------------------------------
      1         12           0       25.232255   -0.486676    0.021886
      2          6           0       23.610560    2.597345    0.632882
      3          6           0       25.202038    0.289356   -3.167165
      4          6           0       25.739153   -3.710005   -0.512184
      5          6           0       24.462804   -1.277317    3.399933
      6          7           0       24.602669    1.405618   -1.052506
      7          6           0       24.080905    2.507639   -0.652998
      8          6           0       24.110099    3.568041   -1.772903
      9          6           0       24.175443    2.675098   -3.114511
     10          6           0       24.623471    1.321208   -2.422100
     11          6           0       22.833703    2.535496   -3.936965
     12          6           0       25.442286    4.478370   -1.665833
     13          6           0       25.412945    5.980388   -2.097353
     14          1           0       24.379128    6.360485   -3.220564
     15          7           0       25.650424   -1.533652   -1.603509
     16          6           0       25.640962   -0.974673   -2.872604
     17          6           0       26.022531   -2.043883   -3.861263
     18          6           0       26.216637   -3.232524   -3.040701
     19          6           0       25.880083   -2.940903   -1.644587
     20          6           0       26.077676   -1.755718   -5.349663
     21          6           0       26.691360   -4.591468   -3.506165
     22          8           0       26.800746   -5.586861   -2.776762
     23          6           0       27.092261   -4.756553   -4.915955
     24          7           0       25.216129   -2.291910    1.338328
     25          6           0       25.419418   -3.483818    0.806901
     26          6           0       25.674644   -4.557619    1.955929
     27          6           0       25.207735   -3.698535    3.252485
     28          6           0       24.981632   -2.321758    2.633590
     29          6           0       24.926795   -5.913686    1.733688
     30          6           0       26.179631   -3.627801    4.475785
     31          6           0       25.747912   -4.335167    5.734628
     32          7           0       24.430894    0.505819    1.795107
     33          6           0       24.202872    0.012545    3.064389
     34          6           0       23.522132    0.966455    3.836283
     35          6           0       23.234515    1.980947    2.903614
     36          6           0       23.757150    1.680125    1.668112
     37          6           0       23.129462    0.881647    5.224743
     38          6           0       22.656533    3.267284    2.844905
     39          8           0       22.162510    4.076232    3.676606
     40          6           0       22.637346    3.605589    1.286635
     41          6           0       22.997664    5.028570    1.063833
     42          8           0       24.062085    5.587236    1.320784
     43          8           0       21.902051    5.635861    0.372879
     44          6           0       22.024195    7.062561    0.047321
     45          1           0       25.296545    0.648014   -4.194657
     46          1           0       25.969454   -4.760738   -0.696813
     47          1           0       24.301914   -1.500741    4.457279
     48          1           0       23.113544    4.006165   -1.821408
     49          1           0       24.842462    3.170158   -3.819441
     50          1           0       21.970381    2.883454   -3.370188
     51          1           0       22.609798    1.493890   -4.166571
     52          1           0       22.970974    3.144557   -4.830374
     53          1           0       26.279510    4.002930   -2.177064
     54          1           0       25.788557    4.443805   -0.632685
     55          1           0       26.371836    6.351429   -2.460658
     56          1           0       24.987639    6.534744   -1.259827
     57          1           0       26.970614   -2.173129   -5.816379
     58          1           0       26.035006   -0.691757   -5.582717
     59          1           0       25.143035   -2.072651   -5.811715
     60          1           0       26.273347   -4.503870   -5.590069
     61          1           0       27.407619   -5.785002   -5.092114
     62          1           0       27.954166   -4.169446   -5.233022
     63          1           0       26.733347   -4.768815    2.105973
     64          1           0       24.193735   -3.949199    3.567515
     65          1           0       24.270782   -5.847432    0.865540
     66          1           0       24.477861   -6.058307    2.716568
     67          1           0       25.692503   -6.685432    1.666413
     68          1           0       26.298114   -2.575046    4.733190
     69          1           0       27.163012   -3.992446    4.178297
     70          1           0       24.870614   -4.896411    5.415726
     71          1           0       25.422647   -3.575473    6.446326
     72          1           0       26.487242   -5.041242    6.110683
     73          1           0       24.022224    0.606724    5.785799
     74          1           0       22.502210    0.031510    5.493085
     75          1           0       22.766700    1.852505    5.562803
     76          1           0       21.632198    3.411225    0.911108
     77          1           0       21.101172    7.437774   -0.395433
     78          1           0       22.733946    7.169160   -0.773249
     79          1           0       22.201659    7.624403    0.963742
     80         12           0      -24.106790   -0.825229    0.099344
     81          6           0      -25.278695    2.560000    0.480997
     82          6           0      -22.631653    0.046012   -2.767834
     83          6           0      -23.845645   -4.095350   -0.585389
     84          6           0      -26.105697   -1.635507    2.865582
     85          7           0      -24.030847    1.046302   -1.006738
     86          6           0      -24.397069    2.340413   -0.599249
     87          6           0      -23.807187    3.435826   -1.567064
     88          6           0      -23.032706    2.577511   -2.612550
     89          6           0      -23.187827    1.129852   -2.075322
     90          6           0      -23.457979    2.692870   -4.054367
     91          6           0      -22.927330    4.553310   -0.788401
     92          6           0      -23.327974    6.008178   -1.062250
     93          1           0      -22.165607    6.891752   -1.650092
     94          7           0      -23.213730   -1.882115   -1.407750
     95          6           0      -22.662424   -1.368749   -2.512151
     96          6           0      -22.155477   -2.417409   -3.398951
     97          6           0      -22.609097   -3.634125   -2.781884
     98          6           0      -23.276233   -3.247082   -1.534401
     99          6           0      -21.411831   -2.142652   -4.634964
    100          6           0      -22.472435   -5.043330   -3.439368
    101          8           0      -22.809654   -6.062186   -2.859923
    102          6           0      -21.899614   -5.247221   -4.805632
    103          7           0      -24.848777   -2.540033    0.996758
    104          6           0      -24.484245   -3.816030    0.580666
    105          6           0      -25.049111   -4.904889    1.550973
    106          6           0      -25.458609   -4.063311    2.816827
    107          6           0      -25.424962   -2.651707    2.231502
    108          6           0      -26.112847   -5.903127    0.988483
    109          6           0      -24.482102   -4.202676    4.016697
    110          6           0      -25.052748   -4.268694    5.410871
    111          7           0      -25.470348    0.205263    1.393048
    112          6           0      -26.191530   -0.263491    2.454241
    113          6           0      -26.851015    0.922680    3.156314
    114          6           0      -26.478665    2.040960    2.450244
    115          6           0      -25.698990    1.550077    1.347335
    116          6           0      -27.635405    0.778974    4.440653
    117          6           0      -26.584834    3.482757    2.314421
    118          8           0      -27.226685    4.213816    3.097417
    119          6           0      -25.850838    3.904816    0.906216
    120          6           0      -26.784327    4.433640   -0.162656
    121          8           0      -27.781752    3.777050   -0.521667
    122          8           0      -26.494486    5.750457   -0.522375
    123          6           0      -27.607848    6.393792   -1.210201
    124          1           0      -22.036681    0.277526   -3.653524
    125          1           0      -23.658773   -5.136889   -0.853831
    126          1           0      -26.604959   -1.946541    3.786117
    127          1           0      -24.707237    3.906595   -1.962034
    128          1           0      -22.039898    3.027671   -2.653557
    129          1           0      -24.315918    3.349831   -4.197979
    130          1           0      -23.856095    1.689252   -4.199988
    131          1           0      -22.663988    3.048990   -4.711458
    132          1           0      -21.914006    4.334504   -1.123995
    133          1           0      -22.920402    4.319153    0.275796
    134          1           0      -23.740380    6.396855   -0.131149
    135          1           0      -24.124648    6.025093   -1.807073
    136          1           0      -21.762335   -2.543710   -5.585450
    137          1           0      -20.508467   -2.744707   -4.544030
    138          1           0      -21.011396   -1.132867   -4.727532
    139          1           0      -20.877342   -4.872618   -4.741036
    140          1           0      -22.444016   -4.578057   -5.472514
    141          1           0      -22.016000   -6.309424   -5.017088
    142          1           0      -24.171615   -5.499362    1.805453
    143          1           0      -26.492641   -4.227355    3.119176
    144          1           0      -26.142863   -5.684955   -0.078797
    145          1           0      -27.083384   -5.848474    1.480781
    146          1           0      -25.749580   -6.931554    0.985444
    147          1           0      -23.928185   -3.277603    3.858121
    148          1           0      -23.764449   -5.018813    3.930605
    149          1           0      -24.485479   -5.047226    5.921098
    150          1           0      -26.099939   -4.572187    5.431500
    151          1           0      -24.751450   -3.341669    5.899289
    152          1           0      -27.649019   -0.281758    4.690519
    153          1           0      -28.670606    1.051498    4.236466
    154          1           0      -27.214291    1.435724    5.201596
    155          1           0      -25.048764    4.606053    1.136549
    156          1           0      -28.107154    7.183837   -0.651006
    157          1           0      -28.377776    5.703322   -1.554825
    158          1           0      -27.186796    6.843968   -2.108810
 ---------------------------------------------------------------------

 SCF Done:  E(RCAM-B3LYP) =  -4069.76660631     A.U. after   19 cycles

 Excitation energies and oscillator strengths:

 Excited State   1:      Singlet-A      1.6980 eV  730.18 nm  f=0.4153  <S**2>=0.000
     310 -> 316       -0.17307
     312 -> 314        0.68839
     310 <- 316       -0.10784
 This state for optimization and/or second-order correction.
 Total Energy, E(TD-HF/TD-DFT) =  -4069.70420634
 Copying the excited state density for this state as the 1-particle RhoCI density.

 Excited State   2:      Singlet-A      1.7997 eV  688.92 nm  f=0.3666  <S**2>=0.000
     309 -> 315        0.21210
     311 -> 313        0.67499
     309 <- 315        0.10953

 Excited State   3:      Singlet-A      2.2245 eV  557.36 nm  f=0.0805  <S**2>=0.000
     309 -> 313        0.62928
     311 -> 315       -0.30804

 Excited State   4:      Singlet-A      2.2865 eV  542.24 nm  f=0.0918  <S**2>=0.000
     310 -> 314        0.63011
     312 -> 316        0.31285

 Excited State   5:      Singlet-A      3.1113 eV  398.49 nm  f=0.0000  <S**2>=0.000
     312 -> 313        0.70711

 The electronic state is 1-A.
 Alpha  occ. eigenvalues --  -46.89425 -46.88381 -19.26699 -19.23977 -19.20853
 Alpha  occ. eigenvalues --  -19.20253 -19.19927 -19.19029 -19.18548 -19.18486
 Alpha  occ. eigenvalues --  -14.42566 -14.42185 -14.41755 -14.41650 -14.40005
 Alpha  occ. eigenvalues --  -14.39684 -14.39368 -14.38600 -10.40835 -10.39327
 Alpha  occ. eigenvalues --  -10.36504 -10.35156 -10.34928 -10.34522 -10.31744
 Alpha  occ. eigenvalues --  -10.31592 -10.31556 -10.31123 -10.30998 -10.30960
 Alpha  occ. eigenvalues --  -10.30784 -10.30741 -10.30652 -10.30649 -10.30341
 Alpha  occ. eigenvalues --  -10.30335 -10.30281 -10.30121 -10.29954 -10.29781
 Alpha  occ. eigenvalues --  -10.29502 -10.29364 -10.29136 -10.29002 -10.28863
 Alpha  occ. eigenvalues --  -10.28695 -10.28678 -10.28604 -10.28562 -10.28425
 Alpha  occ. eigenvalues --  -10.28418 -10.28339 -10.28238 -10.28047 -10.28043
 Alpha  occ. eigenvalues --  -10.27871 -10.27716 -10.27628 -10.27573 -10.27523
 Alpha  occ. eigenvalues --  -10.27501 -10.27466 -10.27362 -10.27290 -10.27222
 Alpha  occ. eigenvalues --  -10.27080 -10.27007 -10.26943 -10.26506 -10.26415
 Alpha  occ. eigenvalues --  -10.26410 -10.26260 -10.26149 -10.26141 -10.26059
 Alpha  occ. eigenvalues --  -10.25942 -10.25919 -10.25857 -10.25843 -10.25720
 Alpha  occ. eigenvalues --  -10.25532 -10.25498 -10.25436 -10.25427 -10.25218
 Alpha  occ. eigenvalues --  -10.24674  -3.17878  -3.17033  -1.92782  -1.92344
 Alpha  occ. eigenvalues --   -1.92164  -1.91914  -1.91472  -1.91361  -1.16343
 Alpha  occ. eigenvalues --   -1.14000  -1.10112  -1.09453  -1.09042  -1.07959
 Alpha  occ. eigenvalues --   -1.07321  -1.06760  -1.05815  -1.05244  -1.03919
 Alpha  occ. eigenvalues --   -1.03521  -1.03297  -1.02644  -1.01884  -1.01502
 Alpha  occ. eigenvalues --   -0.92990  -0.92634  -0.89531  -0.89116  -0.88745
 Alpha  occ. eigenvalues --   -0.88643  -0.88034  -0.87931  -0.87585  -0.87409
 Alpha  occ. eigenvalues --   -0.87330  -0.87230  -0.86942  -0.86122  -0.84307
 Alpha  occ. eigenvalues --   -0.84288  -0.84006  -0.83663  -0.82756  -0.82719
 Alpha  occ. eigenvalues --   -0.82091  -0.81937  -0.81543  -0.81206  -0.80702
 Alpha  occ. eigenvalues --   -0.80233  -0.79001  -0.78433  -0.77745  -0.77609
 Alpha  occ. eigenvalues --   -0.77002  -0.76930  -0.76225  -0.75923  -0.75269
 Alpha  occ. eigenvalues --   -0.74707  -0.73256  -0.72450  -0.72289  -0.70972
 Alpha  occ. eigenvalues --   -0.69002  -0.68964  -0.68627  -0.68405  -0.67959
 Alpha  occ. eigenvalues --   -0.67914  -0.67259  -0.66719  -0.65957  -0.65693
 Alpha  occ. eigenvalues --   -0.65628  -0.65340  -0.64993  -0.64897  -0.64633
 Alpha  occ. eigenvalues --   -0.64355  -0.62594  -0.61290  -0.60568  -0.60291
 Alpha  occ. eigenvalues --   -0.60179  -0.59775  -0.59321  -0.58919  -0.58525
 Alpha  occ. eigenvalues --   -0.58380  -0.58334  -0.57774  -0.57371  -0.57321
 Alpha  occ. eigenvalues --   -0.57029  -0.56259  -0.55799  -0.55513  -0.55430
 Alpha  occ. eigenvalues --   -0.55118  -0.54926  -0.54481  -0.53827  -0.53772
 Alpha  occ. eigenvalues --   -0.53565  -0.53517  -0.53253  -0.53135  -0.52998
 Alpha  occ. eigenvalues --   -0.52639  -0.52602  -0.52505  -0.52460  -0.52273
 Alpha  occ. eigenvalues --   -0.51833  -0.51619  -0.51587  -0.51488  -0.51275
 Alpha  occ. eigenvalues --   -0.51143  -0.51135  -0.50950  -0.50827  -0.50581
 Alpha  occ. eigenvalues --   -0.50380  -0.50251  -0.49899  -0.49610  -0.49593
 Alpha  occ. eigenvalues --   -0.49374  -0.49235  -0.49159  -0.48820  -0.48793
 Alpha  occ. eigenvalues --   -0.48699  -0.48627  -0.48413  -0.48322  -0.48147
 Alpha  occ. eigenvalues --   -0.48077  -0.47955  -0.47842  -0.47648  -0.47346
 Alpha  occ. eigenvalues --   -0.47238  -0.47064  -0.47025  -0.46825  -0.46757
 Alpha  occ. eigenvalues --   -0.46486  -0.46333  -0.46137  -0.46022  -0.45949
 Alpha  occ. eigenvalues --   -0.45677  -0.45619  -0.45373  -0.45370  -0.44945
 Alpha  occ. eigenvalues --   -0.44572  -0.44329  -0.44260  -0.44143  -0.44035
 Alpha  occ. eigenvalues --   -0.43962  -0.43944  -0.43817  -0.43615  -0.43591
 Alpha  occ. eigenvalues --   -0.43369  -0.43200  -0.43020  -0.42999  -0.42851
 Alpha  occ. eigenvalues --   -0.42669  -0.42639  -0.41969  -0.41726  -0.41721
 Alpha  occ. eigenvalues --   -0.41708  -0.41612  -0.41207  -0.41123  -0.41090
 Alpha  occ. eigenvalues --   -0.40787  -0.40787  -0.40679  -0.40561  -0.40322
 Alpha  occ. eigenvalues --   -0.40179  -0.40087  -0.39502  -0.39135  -0.39063
 Alpha  occ. eigenvalues --   -0.38520  -0.38294  -0.37863  -0.37812  -0.37432
 Alpha  occ. eigenvalues --   -0.37428  -0.37416  -0.36480  -0.36419  -0.36141
 Alpha  occ. eigenvalues --   -0.36109  -0.35671  -0.35154  -0.34510  -0.34438
 Alpha  occ. eigenvalues --   -0.33935  -0.33582  -0.32887  -0.31827  -0.31552
 Alpha  occ. eigenvalues --   -0.31390  -0.31326  -0.30698  -0.30536  -0.30389
 Alpha  occ. eigenvalues --   -0.30279  -0.29781  -0.29327  -0.24193  -0.24171
 Alpha  occ. eigenvalues --   -0.21704  -0.20777
 Alpha virt. eigenvalues --   -0.08645  -0.08427  -0.02681  -0.01317  -0.00268
 Alpha virt. eigenvalues --   -0.00044   0.01788   0.02226   0.02292   0.02327
 Alpha virt. eigenvalues --    0.02804   0.04535   0.04547   0.05476   0.05544

 Mulliken charges:
               1
     1  Mg  12.000002
     2  C    5.999940
     3  C    5.999956
     4  C    6.000060
     5  C    6.000075
     6  N    7.000016
     7  C    6.000062
     8  C    5.999976
     9  C    6.000035
    10  C    5.999966
    11  C    6.000008
    12  C    5.999997
    13  C    5.999998
    14  H    0.999992
    15  N    7.000005
    16  C    5.999991
    17  C    5.999931
    18  C    6.000033
    19  C    5.999904
    20  C    6.000010
    21  C    5.999972
    22  O    7.999949
    23  C    6.000010
    24  N    6.999987
    25  C    5.999926
    26  C    6.000037
    27  C    5.999983
    28  C    6.000016
    29  C    5.999992
    30  C    5.999987
    31  C    6.000003
    32  N    7.000000
    33  C    5.999995
    34  C    6.000080
    35  C    5.999946
    36  C    6.000081
    37  C    5.999990
    38  C    6.000035
    39  O    8.000081
    40  C    6.000007
    41  C    6.000011
    42  O    8.000031
    43  O    7.999989
    44  C    5.999996
    45  H    0.999987
    46  H    0.999982
    47  H    1.000016
    48  H    0.999984
    49  H    0.999996
    50  H    0.999959
    51  H    0.999971
    52  H    0.999986
    53  H    1.000027
    54  H    1.000007
    55  H    1.000029
    56  H    1.000011
    57  H    0.999972
    58  H    0.999973
    59  H    0.999924
    60  H    0.999962
    61  H    0.999967
    62  H    1.000005
    63  H    1.000012
    64  H    0.999982
    65  H    0.999976
    66  H    0.999983
    67  H    1.000007
    68  H    1.000010
    69  H    1.000035
    70  H    0.999984
    71  H    1.000011
    72  H    1.000026
    73  H    1.000063
    74  H    1.000036
    75  H    1.000044
    76  H    0.999982
    77  H    0.999993
    78  H    1.000009
    79  H    1.000031
    80  Mg  12.003057
    81  C    6.028828
    82  C    5.978049
    83  C    5.980945
    84  C    6.024948
    85  N    7.006647
    86  C    5.959141
    87  C    6.010670
    88  C    5.986373
    89  C    6.034503
    90  C    5.999203
    91  C    6.004775
    92  C    6.003048
    93  H    0.989409
    94  N    6.992037
    95  C    6.045179
    96  C    6.023811
    97  C    6.011972
    98  C    6.043951
    99  C    5.991607
   100  C    6.013004
   101  O    8.023836
   102  C    5.997679
   103  N    7.000658
   104  C    6.031419
   105  C    5.991626
   106  C    6.009953
   107  C    5.966370
   108  C    6.001838
   109  C    6.001584
   110  C    6.002275
   111  N    7.002434
   112  C    5.951803
   113  C    5.968915
   114  C    5.997525
   115  C    5.961035
   116  C    6.004863
   117  C    5.983511
   118  O    7.970774
   119  C    5.993620
   120  C    5.994529
   121  O    7.996502
   122  O    7.997092
   123  C    6.003770
   124  H    1.008168
   125  H    1.008086
   126  H    0.990805
   127  H    0.998162
   128  H    1.005850
   129  H    1.012770
   130  H    0.993076
   131  H    1.002293
   132  H    0.988128
   133  H    1.004394
   134  H    1.003738
   135  H    0.998053
   136  H    1.024383
   137  H    1.020650
   138  H    1.020430
   139  H    1.005577
   140  H    1.005172
   141  H    1.014966
   142  H    1.000059
   143  H    1.000653
   144  H    0.994399
   145  H    1.012283
   146  H    1.001814
   147  H    1.000799
   148  H    0.987217
   149  H    0.994726
   150  H    0.998817
   151  H    1.004100
   152  H    0.979515
   153  H    0.978664
   154  H    0.979960
   155  H    0.991086
   156  H    0.996968
   157  H    0.996562
   158  H    0.992905
 Sum of Mulliken charges = 624.00000

 Dipole moment (field-independent basis, Debye):
    X=              5.4485    Y=             -6.4068    Z=             -7.6329  Tot=             11.3575
 Quadrupole moment (field-independent basis, Debye-Ang):
   XX=           -267.7816   YY=              6.7306   ZZ=              2.4016
   XY=            154.6694   XZ=            186.3578   YZ=              9.0272

 Normal termination of Gaussian 16 at Wed Sep 22 03:37:19 2021.
