 Gaussian 16, Revision A.03,
 Gaussian 16:  ES64L-G16RevA.03 25-Dec-2016

 -----------------------------------
 #p cam-b3lyp/Def2SVP td=(nstates=5)
 -----------------------------------

 --------------------------------
 TDDFT excited states in gaussian
 --------------------------------
 Symbolic Z-matrix:
 Charge =  0 Multiplicity = 1

                         Standard orientation:
 ---------------------------------------------------------------------
 Center     Atomic      Atomic             Coordinates (Angstroms)
 Number     Number       Type             X           Y           Z
 ---------------------------------------------------------------------
      1         12           0       -8.435055    0.597432   -0.456292
      2          6           0       -7.067571   -0.642790    2.517444
      3          6           0       -6.572625    3.448707    0.145587
      4          6           0       -9.405656    1.728432   -3.443059
      5          6           0       -9.525240   -2.622220   -1.272210
      6          7           0       -6.751665    1.222582    1.175672
      7          6           0       -6.490950    0.582249    2.331473
      8          6           0       -5.504784    1.307891    3.214957
      9          6           0       -5.643842    2.716372    2.521145
     10          6           0       -6.312621    2.497421    1.167952
     11          6           0       -6.553965    3.639543    3.374507
     12          6           0       -4.148908    0.591176    3.244925
     13          6           0       -3.577376   -0.024531    1.950808
     14          1           0       -2.126691    0.318577    1.633518
     15          7           0       -8.063270    2.322632   -1.490806
     16          6           0       -7.373538    3.402222   -1.006169
     17          6           0       -7.740144    4.590249   -1.788035
     18          6           0       -8.451551    4.109925   -2.959379
     19          6           0       -8.675100    2.667093   -2.638926
     20          6           0       -7.094892    6.007424   -1.541120
     21          6           0       -8.852957    4.926424   -4.190344
     22          8           0       -8.707496    6.116929   -4.207525
     23          6           0       -9.478403    4.244507   -5.372832
     24          7           0       -9.165636   -0.437479   -2.222859
     25          6           0       -9.620908    0.272932   -3.349087
     26          6           0      -10.316776   -0.658759   -4.429369
     27          6           0      -10.384708   -2.052683   -3.641363
     28          6           0       -9.679323   -1.683665   -2.256738
     29          6           0      -11.715540   -0.225046   -5.098073
     30          6           0       -9.754680   -3.333988   -4.355722
     31          6           0      -10.581825   -4.658794   -3.972674
     32          7           0       -8.398571   -1.296738    0.425887
     33          6           0       -8.963555   -2.485567    0.011070
     34          6           0       -8.797867   -3.484899    1.059477
     35          6           0       -8.117592   -2.841952    2.125685
     36          6           0       -7.822700   -1.512374    1.653032
     37          6           0       -9.400407   -4.865139    1.087118
     38          6           0       -7.466410   -2.950437    3.471796
     39          8           0       -7.295773   -3.915651    4.182673
     40          6           0       -6.839575   -1.517550    3.745318
     41          6           0       -7.517863   -0.980599    4.975632
     42          8           0       -7.247027   -1.350924    6.145379
     43          8           0       -8.356739    0.067181    4.624618
     44          6           0       -8.887763    0.818497    5.712529
     45          1           0       -6.058979    4.383813    0.378764
     46          1           0       -9.942339    2.032439   -4.344426
     47          1           0      -10.044876   -3.565096   -1.455711
     48          1           0       -5.892301    1.445716    4.224205
     49          1           0       -4.733616    3.283463    2.330979
     50          1           0       -7.085159    4.272203    2.662986
     51          1           0       -5.968301    4.163405    4.128612
     52          1           0       -7.406151    3.207451    3.900019
     53          1           0       -4.289057   -0.270523    3.896833
     54          1           0       -3.416631    1.272424    3.678419
     55          1           0       -4.153257    0.343194    1.101908
     56          1           0       -3.611547   -1.109119    2.049672
     57          1           0       -6.081346    6.126999   -1.924872
     58          1           0       -7.099292    6.228075   -0.473643
     59          1           0       -7.658875    6.861690   -1.913856
     60          1           0       -9.569823    4.913982   -6.228760
     61          1           0      -10.465054    3.833118   -5.158870
     62          1           0       -8.704235    3.528158   -5.649083
     63          1           0       -9.530897   -0.670082   -5.183660
     64          1           0      -11.413448   -2.309259   -3.390101
     65          1           0      -11.476995    0.351076   -5.991339
     66          1           0      -12.322817    0.362125   -4.409756
     67          1           0      -12.276790   -1.128538   -5.337280
     68          1           0       -8.762463   -3.553608   -3.961710
     69          1           0       -9.675956   -3.184573   -5.432843
     70          1           0       -9.949219   -5.376994   -3.450885
     71          1           0      -10.957053   -5.126329   -4.882542
     72          1           0      -11.402697   -4.582574   -3.260442
     73          1           0       -9.041888   -5.413198    0.216456
     74          1           0      -10.486489   -4.790872    1.028200
     75          1           0       -9.095813   -5.433661    1.965661
     76          1           0       -5.814087   -1.735393    4.042848
     77          1           0       -9.448202    1.667528    5.321848
     78          1           0       -8.111700    1.069029    6.435966
     79          1           0       -9.668649    0.273953    6.243300
     80         12           0        8.726898   -0.052467   -0.116476
     81          6           0        6.368793   -2.481927    0.291838
     82          6           0        6.865084    2.005608    2.077128
     83          6           0       10.892334    2.441252   -0.669180
     84          6           0       10.483444   -2.163683   -2.179505
     85          7           0        6.700865   -0.081457    0.796721
     86          6           0        5.966000   -1.268429    0.911308
     87          6           0        4.690440   -1.080965    1.780652
     88          6           0        4.919914    0.385421    2.233697
     89          6           0        6.226356    0.850378    1.616159
     90          6           0        3.800065    1.496765    2.052399
     91          6           0        4.504982   -2.079977    3.006267
     92          6           0        3.218195   -1.770880    3.817513
     93          1           0        2.115827   -2.812616    3.621512
     94          7           0        8.879445    1.976992    0.666600
     95          6           0        8.147377    2.496221    1.712643
     96          6           0        8.627964    3.861298    1.891533
     97          6           0        9.800034    3.977655    1.077003
     98          6           0        9.932110    2.772818    0.319914
     99          6           0        7.969443    4.781056    2.846002
    100          6           0       10.636956    5.299618    0.964919
    101          8           0       11.525543    5.484762    0.108727
    102          6           0       10.332518    6.461638    1.874048
    103          7           0       10.332965    0.117731   -1.218826
    104          6           0       11.125107    1.295392   -1.325627
    105          6           0       12.107045    1.184958   -2.469958
    106          6           0       12.247277   -0.334019   -2.548901
    107          6           0       10.975688   -0.867836   -1.904838
    108          6           0       11.572212    1.817997   -3.798290
    109          6           0       13.450589   -0.866656   -1.739195
    110          6           0       14.803069   -0.894524   -2.399124
    111          7           0        8.541248   -1.949696   -0.901701
    112          6           0        9.376952   -2.743211   -1.590926
    113          6           0        8.754056   -4.015653   -1.807109
    114          6           0        7.583087   -3.987731   -1.079870
    115          6           0        7.511085   -2.711100   -0.501100
    116          6           0        9.403911   -5.103739   -2.588578
    117          6           0        6.472541   -4.761510   -0.720007
    118          8           0        6.172750   -5.912782   -0.971155
    119          6           0        5.606635   -3.794500    0.216283
    120          6           0        4.246974   -3.682186   -0.376958
    121          8           0        3.946694   -3.148936   -1.417273
    122          8           0        3.312445   -4.129609    0.467049
    123          6           0        1.876974   -4.019870   -0.000542
    124          1           0        6.324551    2.516480    2.876502
    125          1           0       11.610279    3.242795   -0.854151
    126          1           0       11.042960   -2.931845   -2.716734
    127          1           0        3.818361   -1.136510    1.129041
    128          1           0        5.130248    0.405147    3.303448
    129          1           0        3.720195    2.236620    2.849295
    130          1           0        2.861948    1.029620    1.752181
    131          1           0        4.155788    2.092950    1.212193
    132          1           0        5.438596   -1.975431    3.557657
    133          1           0        4.462492   -3.095732    2.613368
    134          1           0        2.898316   -0.745754    3.630701
    135          1           0        3.495072   -1.835104    4.869394
    136          1           0        7.479454    5.566000    2.269599
    137          1           0        8.740491    5.066251    3.561736
    138          1           0        7.228534    4.251587    3.445189
    139          1           0       11.046760    7.266170    1.698840
    140          1           0       10.574218    6.083466    2.868309
    141          1           0        9.313444    6.847306    1.861333
    142          1           0       13.048145    1.681060   -2.231040
    143          1           0       12.313839   -0.710425   -3.569474
    144          1           0       10.809380    1.187938   -4.254034
    145          1           0       12.394116    1.987044   -4.494496
    146          1           0       11.159070    2.783845   -3.509610
    147          1           0       13.275689   -1.857450   -1.321791
    148          1           0       13.546398   -0.296409   -0.815108
    149          1           0       15.457161   -0.269017   -1.792337
    150          1           0       14.639705   -0.325054   -3.314196
    151          1           0       15.186252   -1.893700   -2.606929
    152          1           0        9.903490   -5.803782   -1.920034
    153          1           0       10.028457   -4.829922   -3.439467
    154          1           0        8.579185   -5.664156   -3.029215
    155          1           0        5.544104   -4.245449    1.206921
    156          1           0        1.728398   -2.991233   -0.329808
    157          1           0        1.151230   -4.199153    0.793146
    158          1           0        1.742025   -4.721937   -0.823630
 ---------------------------------------------------------------------

 SCF Done:  E(RCAM-B3LYP) =  -4069.82711287     A.U. after   17 cycles

 Excitation energies and oscillator strengths:

 Excited State   1:      Singlet-A      1.6533 eV  749.93 nm  f=0.3574  <S**2>=0.000
     309 -> 316        0.15988
     312 -> 313        0.69009
     309 <- 316        0.10376
 This state for optimization and/or second-order correction.
 Total Energy, E(TD-HF/TD-DFT) =  -4069.76635569
 Copying the excited state density for this state as the 1-particle RhoCI density.

 Excited State   2:      Singlet-A      1.7475 eV  709.50 nm  f=0.3683  <S**2>=0.000
     310 -> 315        0.19407
     311 -> 314        0.67997
     310 <- 315        0.10943

 Excited State   3:      Singlet-A      2.2374 eV  554.14 nm  f=0.1107  <S**2>=0.000
     310 -> 314        0.63031
     311 -> 315       -0.29675

 Excited State   4:      Singlet-A      2.2511 eV  550.77 nm  f=0.1065  <S**2>=0.000
     309 -> 313        0.63345
     312 -> 316       -0.28604

 Excited State   5:      Singlet-A      2.7963 eV  443.39 nm  f=0.0000  <S**2>=0.000
     312 -> 314        0.70699

 The electronic state is 1-A.
 Alpha  occ. eigenvalues --  -46.90513 -46.87444 -19.26181 -19.24770 -19.20160
 Alpha  occ. eigenvalues --  -19.19680 -19.19299 -19.19123 -19.18619 -19.18512
 Alpha  occ. eigenvalues --  -14.42655 -14.42369 -14.41943 -14.41686 -14.40635
 Alpha  occ. eigenvalues --  -14.39595 -14.38805 -14.38794 -10.40121 -10.38408
 Alpha  occ. eigenvalues --  -10.35924 -10.35388 -10.35173 -10.34861 -10.32937
 Alpha  occ. eigenvalues --  -10.32115 -10.32106 -10.31987 -10.31942 -10.31307
 Alpha  occ. eigenvalues --  -10.31268 -10.30972 -10.30687 -10.30497 -10.30350
 Alpha  occ. eigenvalues --  -10.29962 -10.29954 -10.29693 -10.29658 -10.29503
 Alpha  occ. eigenvalues --  -10.29388 -10.29307 -10.29206 -10.29032 -10.28938
 Alpha  occ. eigenvalues --  -10.28919 -10.28856 -10.28677 -10.28634 -10.28567
 Alpha  occ. eigenvalues --  -10.28506 -10.28410 -10.28181 -10.28101 -10.28042
 Alpha  occ. eigenvalues --  -10.28039 -10.27963 -10.27916 -10.27845 -10.27829
 Alpha  occ. eigenvalues --  -10.27810 -10.27731 -10.27682 -10.27394 -10.27325
 Alpha  occ. eigenvalues --  -10.27243 -10.27135 -10.27074 -10.26726 -10.26618
 Alpha  occ. eigenvalues --  -10.26591 -10.26474 -10.26395 -10.26310 -10.26297
 Alpha  occ. eigenvalues --  -10.26286 -10.26282 -10.26112 -10.26044 -10.26008
 Alpha  occ. eigenvalues --  -10.25803 -10.25699 -10.25535 -10.25473 -10.25065
 Alpha  occ. eigenvalues --  -10.24955  -3.18876  -3.16224  -1.93739  -1.93351
 Alpha  occ. eigenvalues --   -1.93166  -1.91126  -1.90695  -1.90522  -1.16777
 Alpha  occ. eigenvalues --   -1.16599  -1.11587  -1.10793  -1.10360  -1.08239
 Alpha  occ. eigenvalues --   -1.07196  -1.07013  -1.05380  -1.04924  -1.04005
 Alpha  occ. eigenvalues --   -1.03856  -1.03074  -1.03047  -1.02009  -1.01904
 Alpha  occ. eigenvalues --   -0.93260  -0.92651  -0.89216  -0.89037  -0.88707
 Alpha  occ. eigenvalues --   -0.88584  -0.88459  -0.87846  -0.87816  -0.87462
 Alpha  occ. eigenvalues --   -0.87117  -0.86517  -0.86163  -0.85768  -0.84997
 Alpha  occ. eigenvalues --   -0.84249  -0.83913  -0.83454  -0.82852  -0.82455
 Alpha  occ. eigenvalues --   -0.81972  -0.81516  -0.81117  -0.80930  -0.80573
 Alpha  occ. eigenvalues --   -0.80496  -0.78331  -0.77647  -0.77485  -0.77406
 Alpha  occ. eigenvalues --   -0.77144  -0.76863  -0.76527  -0.76119  -0.75448
 Alpha  occ. eigenvalues --   -0.75147  -0.73158  -0.72930  -0.72181  -0.71747
 Alpha  occ. eigenvalues --   -0.70059  -0.69536  -0.69372  -0.68861  -0.68361
 Alpha  occ. eigenvalues --   -0.68269  -0.67274  -0.66019  -0.65987  -0.65726
 Alpha  occ. eigenvalues --   -0.65075  -0.64957  -0.64905  -0.64768  -0.64546
 Alpha  occ. eigenvalues --   -0.64118  -0.63847  -0.61970  -0.60195  -0.60140
 Alpha  occ. eigenvalues --   -0.59927  -0.59404  -0.59097  -0.59050  -0.58811
 Alpha  occ. eigenvalues --   -0.58298  -0.58249  -0.57941  -0.57934  -0.57467
 Alpha  occ. eigenvalues --   -0.56491  -0.56418  -0.56214  -0.55972  -0.55624
 Alpha  occ. eigenvalues --   -0.55228  -0.54970  -0.54654  -0.54428  -0.54161
 Alpha  occ. eigenvalues --   -0.53809  -0.53418  -0.53327  -0.53261  -0.53146
 Alpha  occ. eigenvalues --   -0.52912  -0.52894  -0.52629  -0.52230  -0.52115
 Alpha  occ. eigenvalues --   -0.51751  -0.51700  -0.51599  -0.51529  -0.51262
 Alpha  occ. eigenvalues --   -0.51203  -0.50823  -0.50649  -0.50303  -0.50194
 Alpha  occ. eigenvalues --   -0.50182  -0.50042  -0.49943  -0.49837  -0.49810
 Alpha  occ. eigenvalues --   -0.49655  -0.49652  -0.49165  -0.49063  -0.48878
 Alpha  occ. eigenvalues --   -0.48772  -0.48686  -0.48497  -0.48208  -0.48033
 Alpha  occ. eigenvalues --   -0.47721  -0.47665  -0.47450  -0.47443  -0.47335
 Alpha  occ. eigenvalues --   -0.47064  -0.47061  -0.46871  -0.46777  -0.46465
 Alpha  occ. eigenvalues --   -0.46432  -0.46374  -0.46237  -0.45969  -0.45789
 Alpha  occ. eigenvalues --   -0.45766  -0.45742  -0.45439  -0.45417  -0.45314
 Alpha  occ. eigenvalues --   -0.45205  -0.45027  -0.44618  -0.44378  -0.44148
 Alpha  occ. eigenvalues --   -0.44057  -0.44001  -0.43786  -0.43700  -0.43646
 Alpha  occ. eigenvalues --   -0.43486  -0.43476  -0.43356  -0.43281  -0.43096
 Alpha  occ. eigenvalues --   -0.42942  -0.42776  -0.42351  -0.42336  -0.42124
 Alpha  occ. eigenvalues --   -0.41951  -0.41825  -0.41760  -0.41564  -0.41428
 Alpha  occ. eigenvalues --   -0.41331  -0.41068  -0.40821  -0.40580  -0.40568
 Alpha  occ. eigenvalues --   -0.40345  -0.40026  -0.39994  -0.39738  -0.39184
 Alpha  occ. eigenvalues --   -0.39132  -0.38390  -0.38238  -0.37908  -0.37532
 Alpha  occ. eigenvalues --   -0.37417  -0.37319  -0.36933  -0.36846  -0.36606
 Alpha  occ. eigenvalues --   -0.36475  -0.36457  -0.34826  -0.34529  -0.34153
 Alpha  occ. eigenvalues --   -0.33908  -0.33277  -0.33209  -0.31488  -0.31397
 Alpha  occ. eigenvalues --   -0.31302  -0.31165  -0.31038  -0.30716  -0.30599
 Alpha  occ. eigenvalues --   -0.30427  -0.29852  -0.29044  -0.24547  -0.24155
 Alpha  occ. eigenvalues --   -0.21515  -0.21058
 Alpha virt. eigenvalues --   -0.09011  -0.08752  -0.02196  -0.01483  -0.00029
 Alpha virt. eigenvalues --    0.00469   0.00652   0.01887   0.02414   0.03476
 Alpha virt. eigenvalues --    0.04274   0.04793   0.05367   0.05439   0.05621

 Mulliken charges:
               1
     1  Mg   0.821500
     2  C    0.141409
     3  C   -0.072518
     4  C   -0.087847
     5  C   -0.079164
     6  N   -0.220279
     7  C   -0.143802
     8  C    0.066711
     9  C   -0.054918
    10  C   -0.010841
    11  C    0.063589
    12  C    0.064198
    13  C   -0.077311
    14  H    0.012041
    15  N   -0.372670
    16  C    0.163468
    17  C   -0.137128
    18  C   -0.058213
    19  C    0.190645
    20  C    0.093515
    21  C   -0.010134
    22  O   -0.168021
    23  C    0.051671
    24  N   -0.300599
    25  C   -0.020840
    26  C   -0.012019
    27  C   -0.040288
    28  C    0.044953
    29  C    0.054968
    30  C    0.036374
    31  C   -0.036941
    32  N   -0.352576
    33  C    0.124994
    34  C   -0.196579
    35  C    0.022448
    36  C    0.045256
    37  C    0.117915
    38  C    0.063758
    39  O   -0.137521
    40  C   -0.139220
    41  C    0.228384
    42  O   -0.237612
    43  O   -0.322819
    44  C    0.183379
    45  H   -0.018349
    46  H   -0.047998
    47  H   -0.045340
    48  H    0.002338
    49  H   -0.001008
    50  H    0.004260
    51  H    0.026293
    52  H    0.005157
    53  H    0.013058
    54  H    0.019486
    55  H    0.052014
    56  H    0.036618
    57  H    0.040372
    58  H    0.005306
    59  H    0.032111
    60  H    0.019746
    61  H    0.059912
    62  H    0.032715
    63  H    0.026445
    64  H    0.015795
    65  H    0.028520
    66  H    0.025946
    67  H    0.028615
    68  H    0.025570
    69  H    0.019437
    70  H    0.017274
    71  H    0.021054
    72  H    0.021674
    73  H    0.015941
    74  H    0.030075
    75  H    0.034197
    76  H    0.054882
    77  H    0.031428
    78  H    0.037448
    79  H    0.027704
    80  Mg   0.828432
    81  C    0.007489
    82  C   -0.059585
    83  C   -0.069307
    84  C   -0.093729
    85  N   -0.267958
    86  C   -0.051008
    87  C    0.020039
    88  C   -0.103695
    89  C    0.038303
    90  C    0.063669
    91  C    0.035062
    92  C   -0.057139
    93  H    0.033968
    94  N   -0.358509
    95  C    0.139175
    96  C   -0.203179
    97  C   -0.035991
    98  C    0.110304
    99  C    0.139596
   100  C    0.019121
   101  O   -0.225761
   102  C    0.056076
   103  N   -0.391527
   104  C    0.083548
   105  C   -0.019275
   106  C   -0.020638
   107  C    0.118501
   108  C    0.088245
   109  C   -0.004925
   110  C    0.053354
   111  N   -0.339615
   112  C    0.089731
   113  C   -0.168174
   114  C    0.069385
   115  C    0.103902
   116  C    0.108002
   117  C    0.017685
   118  O   -0.153551
   119  C   -0.052260
   120  C    0.180567
   121  O   -0.217273
   122  O   -0.331466
   123  C    0.178933
   124  H   -0.027698
   125  H   -0.006759
   126  H   -0.027063
   127  H    0.017973
   128  H    0.009569
   129  H    0.019664
   130  H    0.022004
   131  H    0.015082
   132  H    0.010691
   133  H    0.033304
   134  H    0.029356
   135  H    0.029475
   136  H    0.042590
   137  H    0.027604
   138  H    0.001012
   139  H    0.024243
   140  H    0.024851
   141  H    0.039805
   142  H    0.000116
   143  H   -0.003943
   144  H    0.020407
   145  H    0.019067
   146  H    0.019087
   147  H   -0.002476
   148  H   -0.003853
   149  H    0.012647
   150  H   -0.002569
   151  H    0.028704
   152  H    0.038382
   153  H    0.023497
   154  H    0.027424
   155  H    0.043533
   156  H    0.041527
   157  H    0.043077
   158  H    0.051136
 Sum of Mulliken charges =  -0.00000

 Dipole moment (field-independent basis, Debye):
    X=             -4.0101    Y=              3.0184    Z=             -0.2855  Tot=              5.0272
 Quadrupole moment (field-independent basis, Debye-Ang):
   XX=           -442.8484   YY=           -560.2238   ZZ=           -511.2601
   XY=            -11.9478   XZ=             47.3618   YZ=             54.0718

 Normal termination of Gaussian 16 at Thu Sep  2 02:37:21 2021.
