 Gaussian 16, Revision A.03,
 Gaussian 16:  ES64L-G16RevA.03 25-Dec-2016

 -----------------------------------
 #p cam-b3lyp/Def2SVP td=(nstates=5)
 -----------------------------------

 --------------------------------
 TDDFT excited states in gaussian
 --------------------------------
 Symbolic Z-matrix:
 Charge =  0 Multiplicity = 1

                         Standard orientation:
 ---------------------------------------------------------------------
 Center     Atomic      Atomic             Coordinates (Angstroms)
 Number     Number       Type             X           Y           Z
 ---------------------------------------------------------------------
      1         12           0       28.799639    0.442881   -0.159972
      2          6           0       26.570664   -2.251426   -0.006160
      3          6           0       26.444868    2.198119    1.666191
      4          6           0       30.993585    2.949672    0.051217
      5          6           0       31.320040   -1.731381   -1.227938
      6          7           0       26.708893   -0.133175    0.928542
      7          6           0       25.987071   -1.250730    0.718978
      8          6           0       24.648328   -1.244962    1.417090
      9          6           0       24.579480    0.310651    1.661755
     10          6           0       25.986130    0.868169    1.469798
     11          6           0       23.643123    0.970519    0.614566
     12          6           0       24.633287   -2.215886    2.604549
     13          6           0       25.873825   -2.335412    3.514088
     14          1           0       25.610804   -2.260378    5.013446
     15          7           0       28.734720    2.293458    0.709456
     16          6           0       27.631946    2.851460    1.299915
     17          6           0       27.800783    4.309910    1.339161
     18          6           0       29.192813    4.572866    1.019843
     19          6           0       29.681538    3.237808    0.558108
     20          6           0       26.744114    5.274242    2.001895
     21          6           0       29.927062    5.910532    1.140667
     22          8           0       29.326472    6.915442    1.401826
     23          6           0       31.404967    5.981976    0.885393
     24          7           0       30.964547    0.485101   -0.352167
     25          6           0       31.676083    1.698964   -0.327690
     26          6           0       33.207370    1.527050   -0.708342
     27          6           0       33.241901   -0.005169   -1.177070
     28          6           0       31.726848   -0.454990   -0.946412
     29          6           0       33.905639    2.537605   -1.749021
     30          6           0       34.305812   -0.966363   -0.474798
     31          6           0       34.835354   -2.076380   -1.510873
     32          7           0       28.972403   -1.589993   -0.612773
     33          6           0       30.038671   -2.303755   -1.120916
     34          6           0       29.605010   -3.663257   -1.419190
     35          6           0       28.229755   -3.732104   -1.077301
     36          6           0       27.905751   -2.447582   -0.508824
     37          6           0       30.403119   -4.724179   -2.130770
     38          6           0       26.992589   -4.566484   -0.932214
     39          8           0       26.823801   -5.752431   -1.108686
     40          6           0       25.910593   -3.595393   -0.294115
     41          6           0       24.788413   -3.490360   -1.289977
     42          8           0       23.921139   -4.382010   -1.467733
     43          8           0       24.782412   -2.221994   -1.852096
     44          6           0       23.638554   -1.906087   -2.640641
     45          1           0       25.666869    2.782441    2.162085
     46          1           0       31.734653    3.734169   -0.116991
     47          1           0       32.061705   -2.342330   -1.746959
     48          1           0       23.832751   -1.463375    0.727978
     49          1           0       24.235974    0.659322    2.634739
     50          1           0       24.064067    1.957333    0.420421
     51          1           0       22.610758    0.955945    0.961144
     52          1           0       23.625664    0.580452   -0.403585
     53          1           0       24.541119   -3.209631    2.167368
     54          1           0       23.756358   -1.992251    3.212190
     55          1           0       26.549759   -1.508454    3.297882
     56          1           0       26.326748   -3.311062    3.340189
     57          1           0       26.754491    5.292063    3.092039
     58          1           0       25.743910    5.007804    1.660110
     59          1           0       26.781777    6.315865    1.685066
     60          1           0       31.819227    6.953935    1.155300
     61          1           0       31.671930    5.777172   -0.151568
     62          1           0       31.791366    5.287137    1.631517
     63          1           0       33.648521    1.646976    0.280441
     64          1           0       33.412874   -0.081187   -2.250503
     65          1           0       34.314213    3.362855   -1.166977
     66          1           0       33.195268    2.901746   -2.490715
     67          1           0       34.685199    1.995112   -2.284283
     68          1           0       33.834984   -1.572225    0.299299
     69          1           0       35.115665   -0.392910   -0.023133
     70          1           0       34.589592   -3.080976   -1.166411
     71          1           0       35.918288   -1.998037   -1.602316
     72          1           0       34.406615   -2.113210   -2.511743
     73          1           0       31.309269   -4.914334   -1.556584
     74          1           0       30.687369   -4.365372   -3.120224
     75          1           0       29.867654   -5.671019   -2.198627
     76          1           0       25.511407   -4.166459    0.543823
     77          1           0       23.692907   -0.862169   -2.948630
     78          1           0       22.717225   -2.191922   -2.132849
     79          1           0       23.653559   -2.413701   -3.605075
     80         12           0      -29.041309   -0.180675   -0.459686
     81          6           0      -25.675513    0.489205   -0.069680
     82          6           0      -28.462984   -3.329534    0.805443
     83          6           0      -32.439528   -0.648275   -0.278948
     84          6           0      -29.555725    3.022990   -1.609946
     85          7           0      -27.331503   -1.213197    0.460143
     86          6           0      -26.034968   -0.738593    0.431306
     87          6           0      -25.045941   -1.750383    1.003949
     88          6           0      -25.901552   -3.070829    0.954166
     89          6           0      -27.303162   -2.505180    0.777754
     90          6           0      -25.468479   -4.185832   -0.101980
     91          6           0      -24.428033   -1.406277    2.396689
     92          6           0      -22.934517   -1.619975    2.524388
     93          1           0      -22.598433   -2.784776    3.442588
     94          7           0      -30.229309   -1.757565    0.188449
     95          6           0      -29.817328   -2.948808    0.636668
     96          6           0      -30.948143   -3.827559    0.880136
     97          6           0      -32.135548   -3.167976    0.609986
     98          6           0      -31.659511   -1.777977    0.198125
     99          6           0      -30.779429   -5.304793    1.477952
    100          6           0      -33.581525   -3.767661    0.654918
    101          8           0      -33.731544   -4.956558    1.055703
    102          6           0      -34.773860   -2.968256    0.291722
    103          7           0      -30.838258    1.133786   -0.664046
    104          6           0      -32.066631    0.671982   -0.711111
    105          6           0      -33.033801    1.639099   -1.361264
    106          6           0      -32.202890    2.909968   -1.746047
    107          6           0      -30.744732    2.337959   -1.403050
    108          6           0      -34.084100    1.118515   -2.393771
    109          6           0      -32.469812    4.272334   -1.042785
    110          6           0      -31.899023    5.452032   -1.802326
    111          7           0      -27.842469    1.472633   -0.775085
    112          6           0      -28.177183    2.723965   -1.342356
    113          6           0      -26.959492    3.467361   -1.518564
    114          6           0      -25.912918    2.628058   -1.064726
    115          6           0      -26.541874    1.476025   -0.600815
    116          6           0      -26.796540    4.770852   -2.286149
    117          6           0      -24.541669    2.573771   -0.938853
    118          8           0      -23.635619    3.347114   -1.090777
    119          6           0      -24.303008    1.197060   -0.126145
    120          6           0      -24.065246    1.656899    1.311411
    121          8           0      -24.928567    1.970553    2.108204
    122          8           0      -22.693502    1.661767    1.506505
    123          6           0      -22.234364    2.178303    2.791815
    124          1           0      -28.320930   -4.393089    1.007442
    125          1           0      -33.506297   -0.869505   -0.208982
    126          1           0      -29.547551    4.004391   -2.088707
    127          1           0      -24.246708   -1.872920    0.273558
    128          1           0      -25.950860   -3.446375    1.976888
    129          1           0      -26.403404   -4.728635   -0.240764
    130          1           0      -24.800865   -4.948433    0.299828
    131          1           0      -25.046882   -3.834626   -1.043693
    132          1           0      -24.961157   -2.073508    3.074256
    133          1           0      -24.719244   -0.456933    2.845708
    134          1           0      -22.506769   -0.691646    2.903673
    135          1           0      -22.461577   -1.845422    1.568359
    136          1           0      -29.756077   -5.593826    1.721038
    137          1           0      -31.182098   -6.045465    0.786229
    138          1           0      -31.241168   -5.425056    2.456990
    139          1           0      -34.685079   -2.631379   -0.740623
    140          1           0      -34.988975   -2.204868    1.039544
    141          1           0      -35.564869   -3.710673    0.193327
    142          1           0      -33.723327    2.141522   -0.682551
    143          1           0      -32.073654    3.013644   -2.823641
    144          1           0      -34.075535    0.031343   -2.304408
    145          1           0      -33.938652    1.503863   -3.403612
    146          1           0      -35.111264    1.408578   -2.172171
    147          1           0      -32.079796    4.168462   -0.030354
    148          1           0      -33.553991    4.309732   -0.937184
    149          1           0      -32.546286    6.308271   -1.610933
    150          1           0      -31.841690    5.327279   -2.884294
    151          1           0      -30.943994    5.731201   -1.357186
    152          1           0      -25.758447    5.050619   -2.465801
    153          1           0      -27.323163    5.546669   -1.731895
    154          1           0      -27.278738    4.717837   -3.262316
    155          1           0      -23.527973    0.588712   -0.593352
    156          1           0      -22.476167    3.238813    2.864092
    157          1           0      -21.172176    1.992629    2.947423
    158          1           0      -22.792952    1.698693    3.595096
 ---------------------------------------------------------------------

 SCF Done:  E(RCAM-B3LYP) =  -4069.80307345     A.U. after   19 cycles

 Excitation energies and oscillator strengths:

 Excited State   1:      Singlet-A      1.7469 eV  709.76 nm  f=0.3575  <S**2>=0.000
     310 -> 315        0.19411
     312 -> 313        0.68069
     310 <- 315        0.10946
 This state for optimization and/or second-order correction.
 Total Energy, E(TD-HF/TD-DFT) =  -4069.73887766
 Copying the excited state density for this state as the 1-particle RhoCI density.

 Excited State   2:      Singlet-A      1.8652 eV  664.72 nm  f=0.3724  <S**2>=0.000
     309 -> 316        0.14281
     311 -> 314        0.68808

 Excited State   3:      Singlet-A      2.2374 eV  554.14 nm  f=0.1049  <S**2>=0.000
     310 -> 313        0.63522
     312 -> 315       -0.29909

 Excited State   4:      Singlet-A      2.2638 eV  547.68 nm  f=0.1274  <S**2>=0.000
     309 -> 314        0.64676
     311 -> 316       -0.24681
     311 -> 318       -0.10327

 Excited State   5:      Singlet-A      3.3330 eV  371.99 nm  f=0.0000  <S**2>=0.000
     311 -> 313        0.70710

 The electronic state is 1-A.
 Alpha  occ. eigenvalues --  -46.90390 -46.89398 -19.26033 -19.24517 -19.20221
 Alpha  occ. eigenvalues --  -19.20006 -19.19872 -19.19540 -19.19033 -19.17716
 Alpha  occ. eigenvalues --  -14.42309 -14.42254 -14.42046 -14.41806 -14.40549
 Alpha  occ. eigenvalues --  -14.40517 -14.39469 -14.38486 -10.39968 -10.39087
 Alpha  occ. eigenvalues --  -10.37027 -10.35782 -10.35299 -10.33397 -10.33073
 Alpha  occ. eigenvalues --  -10.32825 -10.32415 -10.31972 -10.31825 -10.31717
 Alpha  occ. eigenvalues --  -10.31143 -10.31123 -10.31077 -10.30844 -10.30581
 Alpha  occ. eigenvalues --  -10.30352 -10.30204 -10.29880 -10.29800 -10.29792
 Alpha  occ. eigenvalues --  -10.29576 -10.29543 -10.29259 -10.29162 -10.28951
 Alpha  occ. eigenvalues --  -10.28531 -10.28519 -10.28435 -10.28411 -10.28387
 Alpha  occ. eigenvalues --  -10.28386 -10.28342 -10.28295 -10.28061 -10.28060
 Alpha  occ. eigenvalues --  -10.28056 -10.27988 -10.27903 -10.27787 -10.27782
 Alpha  occ. eigenvalues --  -10.27741 -10.27716 -10.27513 -10.27419 -10.27230
 Alpha  occ. eigenvalues --  -10.27188 -10.27150 -10.26952 -10.26935 -10.26916
 Alpha  occ. eigenvalues --  -10.26869 -10.26855 -10.26779 -10.26753 -10.26441
 Alpha  occ. eigenvalues --  -10.26422 -10.26287 -10.26256 -10.26214 -10.26171
 Alpha  occ. eigenvalues --  -10.25940 -10.25940 -10.25881 -10.25800 -10.25292
 Alpha  occ. eigenvalues --  -10.23099  -3.18753  -3.17836  -1.93616  -1.93228
 Alpha  occ. eigenvalues --   -1.93043  -1.92720  -1.92298  -1.92140  -1.16450
 Alpha  occ. eigenvalues --   -1.15460  -1.11499  -1.10651  -1.09799  -1.09142
 Alpha  occ. eigenvalues --   -1.07904  -1.07043  -1.04780  -1.04583  -1.03881
 Alpha  occ. eigenvalues --   -1.03838  -1.03190  -1.02957  -1.02546  -1.01891
 Alpha  occ. eigenvalues --   -0.92507  -0.91560  -0.89179  -0.89013  -0.88493
 Alpha  occ. eigenvalues --   -0.88331  -0.87966  -0.87735  -0.87340  -0.87055
 Alpha  occ. eigenvalues --   -0.86630  -0.86043  -0.85823  -0.85660  -0.84845
 Alpha  occ. eigenvalues --   -0.84503  -0.83632  -0.83345  -0.83204  -0.82707
 Alpha  occ. eigenvalues --   -0.82057  -0.81876  -0.80801  -0.80706  -0.80362
 Alpha  occ. eigenvalues --   -0.80218  -0.77641  -0.77531  -0.77284  -0.77160
 Alpha  occ. eigenvalues --   -0.76738  -0.76700  -0.76415  -0.75328  -0.75317
 Alpha  occ. eigenvalues --   -0.75140  -0.72809  -0.72391  -0.72054  -0.71692
 Alpha  occ. eigenvalues --   -0.69928  -0.69722  -0.69399  -0.69113  -0.68215
 Alpha  occ. eigenvalues --   -0.67903  -0.67353  -0.67154  -0.65893  -0.65611
 Alpha  occ. eigenvalues --   -0.65477  -0.64889  -0.64833  -0.64676  -0.64624
 Alpha  occ. eigenvalues --   -0.64040  -0.63713  -0.61702  -0.60026  -0.59969
 Alpha  occ. eigenvalues --   -0.59471  -0.59268  -0.59025  -0.58952  -0.58460
 Alpha  occ. eigenvalues --   -0.58173  -0.57839  -0.57790  -0.57388  -0.57342
 Alpha  occ. eigenvalues --   -0.56435  -0.56289  -0.56087  -0.55487  -0.55486
 Alpha  occ. eigenvalues --   -0.55059  -0.55039  -0.54296  -0.54182  -0.53922
 Alpha  occ. eigenvalues --   -0.53728  -0.53659  -0.53333  -0.53210  -0.53157
 Alpha  occ. eigenvalues --   -0.53057  -0.52782  -0.52714  -0.52008  -0.51924
 Alpha  occ. eigenvalues --   -0.51632  -0.51587  -0.51437  -0.51083  -0.51027
 Alpha  occ. eigenvalues --   -0.50801  -0.50694  -0.50549  -0.50527  -0.50153
 Alpha  occ. eigenvalues --   -0.50042  -0.50006  -0.49935  -0.49810  -0.49713
 Alpha  occ. eigenvalues --   -0.49547  -0.49450  -0.49026  -0.48930  -0.48704
 Alpha  occ. eigenvalues --   -0.48687  -0.48539  -0.48372  -0.48217  -0.47581
 Alpha  occ. eigenvalues --   -0.47566  -0.47361  -0.47309  -0.47234  -0.47175
 Alpha  occ. eigenvalues --   -0.46945  -0.46667  -0.46545  -0.46312  -0.46187
 Alpha  occ. eigenvalues --   -0.46131  -0.46078  -0.45958  -0.45686  -0.45553
 Alpha  occ. eigenvalues --   -0.45321  -0.45216  -0.45201  -0.45189  -0.45043
 Alpha  occ. eigenvalues --   -0.44878  -0.44878  -0.44663  -0.44276  -0.44245
 Alpha  occ. eigenvalues --   -0.43951  -0.43941  -0.43853  -0.43633  -0.43586
 Alpha  occ. eigenvalues --   -0.43408  -0.43381  -0.43263  -0.43082  -0.42980
 Alpha  occ. eigenvalues --   -0.42780  -0.42704  -0.42552  -0.42473  -0.42221
 Alpha  occ. eigenvalues --   -0.42209  -0.42175  -0.42036  -0.41997  -0.41731
 Alpha  occ. eigenvalues --   -0.41600  -0.41231  -0.40770  -0.40407  -0.40371
 Alpha  occ. eigenvalues --   -0.40153  -0.39916  -0.39862  -0.39268  -0.39095
 Alpha  occ. eigenvalues --   -0.38971  -0.38941  -0.38118  -0.38056  -0.37335
 Alpha  occ. eigenvalues --   -0.37271  -0.37187  -0.36778  -0.36484  -0.36325
 Alpha  occ. eigenvalues --   -0.36314  -0.35333  -0.34684  -0.34417  -0.34389
 Alpha  occ. eigenvalues --   -0.34286  -0.33153  -0.33076  -0.32439  -0.31878
 Alpha  occ. eigenvalues --   -0.31368  -0.31202  -0.30899  -0.30854  -0.30604
 Alpha  occ. eigenvalues --   -0.29727  -0.29657  -0.29098  -0.24064  -0.24030
 Alpha  occ. eigenvalues --   -0.21482  -0.21390
 Alpha virt. eigenvalues --   -0.08631  -0.08447  -0.02075  -0.01788   0.00098
 Alpha virt. eigenvalues --    0.00119   0.00769   0.01809   0.01996   0.02012
 Alpha virt. eigenvalues --    0.04439   0.05178   0.05493   0.05837   0.05918

 Mulliken charges:
               1
     1  Mg   0.821351
     2  C    0.141383
     3  C   -0.072422
     4  C   -0.088173
     5  C   -0.079398
     6  N   -0.220278
     7  C   -0.143054
     8  C    0.066468
     9  C   -0.054811
    10  C   -0.010654
    11  C    0.063586
    12  C    0.064043
    13  C   -0.078564
    14  H    0.015484
    15  N   -0.372566
    16  C    0.163231
    17  C   -0.137158
    18  C   -0.058535
    19  C    0.190595
    20  C    0.093530
    21  C   -0.010330
    22  O   -0.168279
    23  C    0.051846
    24  N   -0.300587
    25  C   -0.021035
    26  C   -0.011930
    27  C   -0.040264
    28  C    0.045005
    29  C    0.055020
    30  C    0.036443
    31  C   -0.036868
    32  N   -0.352642
    33  C    0.125098
    34  C   -0.196526
    35  C    0.022493
    36  C    0.045469
    37  C    0.117937
    38  C    0.064011
    39  O   -0.137427
    40  C   -0.139045
    41  C    0.228301
    42  O   -0.237486
    43  O   -0.322913
    44  C    0.183470
    45  H   -0.018124
    46  H   -0.048436
    47  H   -0.045707
    48  H    0.002321
    49  H   -0.000441
    50  H    0.003836
    51  H    0.026716
    52  H    0.004886
    53  H    0.013099
    54  H    0.020354
    55  H    0.050681
    56  H    0.037463
    57  H    0.040190
    58  H    0.005502
    59  H    0.031869
    60  H    0.019345
    61  H    0.059875
    62  H    0.032463
    63  H    0.026031
    64  H    0.015643
    65  H    0.028251
    66  H    0.025964
    67  H    0.028339
    68  H    0.025548
    69  H    0.018995
    70  H    0.017220
    71  H    0.020676
    72  H    0.021744
    73  H    0.015701
    74  H    0.029792
    75  H    0.034189
    76  H    0.055821
    77  H    0.031244
    78  H    0.037713
    79  H    0.027417
    80  Mg   0.828954
    81  C   -0.030278
    82  C   -0.118197
    83  C   -0.096004
    84  C   -0.030490
    85  N   -0.261075
    86  C   -0.046076
    87  C   -0.037678
    88  C   -0.022689
    89  C    0.032221
    90  C    0.082822
    91  C    0.069535
    92  C   -0.053104
    93  H    0.008486
    94  N   -0.381677
    95  C    0.167569
    96  C   -0.137035
    97  C   -0.024678
    98  C    0.115521
    99  C    0.116995
   100  C    0.007377
   101  O   -0.226559
   102  C    0.070461
   103  N   -0.264365
   104  C    0.101563
   105  C   -0.027364
   106  C   -0.054111
   107  C    0.007694
   108  C    0.065023
   109  C    0.060301
   110  C    0.025641
   111  N   -0.347622
   112  C    0.034467
   113  C   -0.140325
   114  C    0.052371
   115  C    0.114907
   116  C    0.104371
   117  C   -0.012354
   118  O   -0.157323
   119  C   -0.046256
   120  C    0.232192
   121  O   -0.211956
   122  O   -0.335437
   123  C    0.185504
   124  H   -0.025990
   125  H   -0.042732
   126  H   -0.041117
   127  H   -0.000715
   128  H    0.006116
   129  H    0.004930
   130  H    0.021640
   131  H    0.031781
   132  H   -0.004017
   133  H    0.028901
   134  H    0.025649
   135  H    0.027225
   136  H   -0.002836
   137  H    0.041089
   138  H    0.035884
   139  H    0.040804
   140  H    0.068734
   141  H    0.028201
   142  H    0.010229
   143  H    0.006683
   144  H    0.011346
   145  H    0.019365
   146  H    0.006930
   147  H    0.016835
   148  H    0.001344
   149  H    0.007774
   150  H    0.022102
   151  H    0.031325
   152  H    0.034192
   153  H    0.016128
   154  H    0.019404
   155  H    0.024853
   156  H    0.038224
   157  H    0.041675
   158  H    0.026721
 Sum of Mulliken charges =  -0.00000

 Dipole moment (field-independent basis, Debye):
    X=             -0.6299    Y=              2.5594    Z=             -2.9839  Tot=              3.9813
 Quadrupole moment (field-independent basis, Debye-Ang):
   XX=            -87.5419   YY=           -583.1289   ZZ=           -504.7806
   XY=             95.0756   XZ=              8.5804   YZ=            -11.0429

 Normal termination of Gaussian 16 at Thu Sep  2 00:53:08 2021.
