 Gaussian 16, Revision A.03,
 Gaussian 16:  ES64L-G16RevA.03 25-Dec-2016

 -----------------------------------
 #p cam-b3lyp/Def2SVP td=(nstates=5)
 -----------------------------------

 --------------------------------
 TDDFT excited states in gaussian
 --------------------------------
 Symbolic Z-matrix:
 Charge =  0 Multiplicity = 1

                         Standard orientation:
 ---------------------------------------------------------------------
 Center     Atomic      Atomic             Coordinates (Angstroms)
 Number     Number       Type             X           Y           Z
 ---------------------------------------------------------------------
      1         12           0      -25.224484   -0.626393   -0.518601
      2          6           0      -26.219782    1.744247    1.733371
      3          6           0      -24.194309    1.717205   -2.651344
      4          6           0      -24.552546   -3.026901   -2.618268
      5          6           0      -26.897479   -2.987590    1.561878
      6          7           0      -25.362279    1.539335   -0.545236
      7          6           0      -25.556978    2.257915    0.588673
      8          6           0      -25.028796    3.660610    0.461615
      9          6           0      -24.642323    3.694328   -1.071452
     10          6           0      -24.812846    2.252057   -1.496838
     11          6           0      -25.437203    4.719125   -1.915796
     12          6           0      -23.841749    4.040466    1.540512
     13          6           0      -23.940347    5.370978    2.302262
     14          1           0      -24.778030    6.506744    1.635014
     15          7           0      -24.352951   -0.663409   -2.230383
     16          6           0      -23.979059    0.381140   -3.014488
     17          6           0      -23.494757   -0.025185   -4.311246
     18          6           0      -23.401678   -1.382159   -4.237073
     19          6           0      -24.228676   -1.741199   -3.043338
     20          6           0      -23.263135    1.067666   -5.338669
     21          6           0      -22.800795   -2.367127   -5.259520
     22          8           0      -22.818377   -3.569405   -5.133268
     23          6           0      -22.211278   -1.703012   -6.468652
     24          7           0      -25.837421   -2.694511   -0.570190
     25          6           0      -25.283350   -3.466321   -1.522491
     26          6           0      -25.605499   -4.944884   -1.284116
     27          6           0      -26.077010   -4.963002    0.209577
     28          6           0      -26.319409   -3.455522    0.428659
     29          6           0      -26.622035   -5.665001   -2.268908
     30          6           0      -25.032694   -5.485220    1.266846
     31          6           0      -23.679876   -4.851855    1.459137
     32          7           0      -26.277281   -0.729510    1.328632
     33          6           0      -26.983330   -1.718236    2.021499
     34          6           0      -27.598382   -1.187092    3.244598
     35          6           0      -27.313298    0.184974    3.178284
     36          6           0      -26.517316    0.368757    2.004044
     37          6           0      -28.308243   -1.942234    4.338849
     38          6           0      -27.485610    1.419660    3.795612
     39          8           0      -28.102519    1.778731    4.786364
     40          6           0      -26.600185    2.439128    3.033204
     41          6           0      -27.514818    3.591233    2.862338
     42          8           0      -28.396967    3.683318    2.005275
     43          8           0      -27.339811    4.511162    3.855217
     44          6           0      -28.337259    5.569695    4.041536
     45          1           0      -23.694504    2.494103   -3.234036
     46          1           0      -24.311094   -3.887270   -3.244722
     47          1           0      -27.332029   -3.821227    2.118812
     48          1           0      -25.836905    4.385637    0.559157
     49          1           0      -23.575074    3.896237   -1.159998
     50          1           0      -26.193880    4.188180   -2.493280
     51          1           0      -24.749999    5.198329   -2.613105
     52          1           0      -25.895613    5.411798   -1.209886
     53          1           0      -22.923907    4.032017    0.952514
     54          1           0      -23.791303    3.292174    2.330839
     55          1           0      -22.956482    5.832598    2.381700
     56          1           0      -24.252212    5.185041    3.329942
     57          1           0      -24.148616    1.641206   -5.613116
     58          1           0      -23.013581    0.813971   -6.368769
     59          1           0      -22.454743    1.624795   -4.865119
     60          1           0      -21.454037   -0.975514   -6.177319
     61          1           0      -23.102404   -1.327630   -6.971298
     62          1           0      -21.641379   -2.306347   -7.174362
     63          1           0      -24.633846   -5.409635   -1.455190
     64          1           0      -27.046462   -5.458901    0.262858
     65          1           0      -26.954780   -4.956816   -3.027379
     66          1           0      -27.545545   -5.920699   -1.750795
     67          1           0      -26.272006   -6.582708   -2.744007
     68          1           0      -24.943385   -6.519113    0.932413
     69          1           0      -25.435971   -5.483390    2.278997
     70          1           0      -23.502907   -4.123251    0.666908
     71          1           0      -22.892226   -5.600453    1.375006
     72          1           0      -23.538726   -4.275227    2.373073
     73          1           0      -29.384091   -1.773087    4.330110
     74          1           0      -27.898046   -1.658112    5.308077
     75          1           0      -28.156222   -2.983486    4.053519
     76          1           0      -25.676863    2.657561    3.570048
     77          1           0      -28.356062    5.942085    5.066460
     78          1           0      -29.304684    5.297057    3.622584
     79          1           0      -28.136907    6.445929    3.425225
     80         12           0       25.186079   -0.730582    0.406537
     81          6           0       25.128597    2.160264   -1.629305
     82          6           0       25.034154    1.315624    3.148623
     83          6           0       25.893018   -3.361122    2.290236
     84          6           0       25.821862   -2.622947   -2.468561
     85          7           0       25.256168    1.502118    0.720047
     86          6           0       25.115617    2.461208   -0.286499
     87          6           0       24.770063    3.835131    0.338936
     88          6           0       24.765788    3.537155    1.882837
     89          6           0       24.994292    2.002986    1.975568
     90          6           0       25.601866    4.446289    2.766553
     91          6           0       23.474738    4.503889   -0.147010
     92          6           0       23.675428    5.944825   -0.691539
     93          1           0       22.835295    7.013619   -0.028343
     94          7           0       25.340904   -0.974562    2.460977
     95          6           0       25.286282   -0.030586    3.444006
     96          6           0       25.291043   -0.718518    4.713065
     97          6           0       25.696435   -2.101521    4.477254
     98          6           0       25.670009   -2.151017    3.023471
     99          6           0       25.177289    0.061192    6.123611
    100          6           0       26.288284   -3.112565    5.361975
    101          8           0       26.588675   -4.238566    5.084235
    102          6           0       26.561837   -2.665482    6.794911
    103          7           0       25.986501   -2.683781   -0.058085
    104          6           0       26.126829   -3.604272    0.915672
    105          6           0       26.335405   -4.997502    0.317569
    106          6           0       25.952424   -4.794828   -1.157211
    107          6           0       25.870535   -3.288193   -1.260717
    108          6           0       27.846388   -5.486221    0.489945
    109          6           0       24.499683   -5.451139   -1.402829
    110          6           0       23.299312   -4.680054   -0.789018
    111          7           0       25.325015   -0.419925   -1.682534
    112          6           0       25.569101   -1.273414   -2.690096
    113          6           0       25.553191   -0.530238   -3.921342
    114          6           0       25.337675    0.785786   -3.557664
    115          6           0       25.264423    0.844158   -2.163241
    116          6           0       25.756011   -1.024760   -5.340882
    117          6           0       25.244543    2.119902   -4.156630
    118          8           0       25.377020    2.632684   -5.232023
    119          6           0       25.026018    3.060396   -2.942088
    120          6           0       26.145914    4.033166   -2.985879
    121          8           0       27.294627    3.668899   -3.012748
    122          8           0       25.729896    5.351403   -3.081295
    123          6           0       26.786037    6.359980   -3.429268
    124          1           0       24.776431    1.954560    3.995995
    125          1           0       26.015137   -4.283844    2.861991
    126          1           0       25.799745   -3.151808   -3.423721
    127          1           0       25.609842    4.511522    0.178316
    128          1           0       23.771196    3.768612    2.264540
    129          1           0       26.323729    5.011583    2.178955
    130          1           0       26.118952    3.922749    3.571081
    131          1           0       24.910635    5.188410    3.165202
    132          1           0       22.672234    4.651115    0.575791
    133          1           0       23.005202    3.910138   -0.930964
    134          1           0       23.603389    5.974658   -1.778698
    135          1           0       24.698965    6.239911   -0.463994
    136          1           0       24.431813   -0.454468    6.728869
    137          1           0       24.830131    1.092728    6.077921
    138          1           0       26.079600    0.201918    6.718654
    139          1           0       25.568545   -2.425995    7.175262
    140          1           0       27.193113   -1.783320    6.693023
    141          1           0       26.973219   -3.439511    7.443529
    142          1           0       25.651418   -5.748881    0.713575
    143          1           0       26.631858   -5.106418   -1.950859
    144          1           0       27.821038   -6.575018    0.541626
    145          1           0       28.403366   -5.161037    1.369307
    146          1           0       28.330332   -5.173901   -0.435320
    147          1           0       24.443349   -6.487815   -1.071396
    148          1           0       24.241274   -5.375994   -2.459175
    149          1           0       22.346066   -5.207327   -0.805901
    150          1           0       23.169178   -3.765079   -1.367155
    151          1           0       23.569783   -4.413224    0.233143
    152          1           0       25.000289   -1.731427   -5.683065
    153          1           0       26.715966   -1.538504   -5.296468
    154          1           0       25.886164   -0.211981   -6.055388
    155          1           0       24.093540    3.568530   -3.187170
    156          1           0       26.513994    7.135520   -2.713287
    157          1           0       26.689848    6.746695   -4.443643
    158          1           0       27.841535    6.102990   -3.343494
 ---------------------------------------------------------------------

 SCF Done:  E(RCAM-B3LYP) =  -4069.81286380     A.U. after   19 cycles

 Excitation energies and oscillator strengths:

 Excited State   1:      Singlet-A      1.7037 eV  727.75 nm  f=0.3994  <S**2>=0.000
     309 -> 316       -0.17557
     311 -> 313        0.68731
     309 <- 316       -0.10763
 This state for optimization and/or second-order correction.
 Total Energy, E(TD-HF/TD-DFT) =  -4069.75025519
 Copying the excited state density for this state as the 1-particle RhoCI density.

 Excited State   2:      Singlet-A      1.7683 eV  701.13 nm  f=0.3779  <S**2>=0.000
     310 -> 315        0.19166
     312 -> 314        0.68182
     310 <- 315        0.10600

 Excited State   3:      Singlet-A      2.1918 eV  565.68 nm  f=0.1389  <S**2>=0.000
     309 -> 313        0.65684
     311 -> 316        0.24837

 Excited State   4:      Singlet-A      2.2757 eV  544.83 nm  f=0.0579  <S**2>=0.000
     310 -> 314        0.61594
     312 -> 315       -0.33784

 Excited State   5:      Singlet-A      2.9248 eV  423.90 nm  f=0.0000  <S**2>=0.000
     312 -> 313        0.70711

 The electronic state is 1-A.
 Alpha  occ. eigenvalues --  -46.89578 -46.87974 -19.25177 -19.23927 -19.19952
 Alpha  occ. eigenvalues --  -19.19640 -19.19312 -19.18433 -19.18354 -19.17667
 Alpha  occ. eigenvalues --  -14.42146 -14.41956 -14.41726 -14.41077 -14.40018
 Alpha  occ. eigenvalues --  -14.39806 -14.39264 -14.38766 -10.38827 -10.38269
 Alpha  occ. eigenvalues --  -10.35982 -10.35190 -10.34408 -10.33562 -10.31841
 Alpha  occ. eigenvalues --  -10.31562 -10.30845 -10.30809 -10.30793 -10.30789
 Alpha  occ. eigenvalues --  -10.30671 -10.30601 -10.30468 -10.30275 -10.30260
 Alpha  occ. eigenvalues --  -10.30152 -10.29997 -10.29662 -10.29387 -10.29195
 Alpha  occ. eigenvalues --  -10.29048 -10.28982 -10.28944 -10.28734 -10.28711
 Alpha  occ. eigenvalues --  -10.28221 -10.28080 -10.28066 -10.28061 -10.28031
 Alpha  occ. eigenvalues --  -10.27925 -10.27869 -10.27843 -10.27827 -10.27799
 Alpha  occ. eigenvalues --  -10.27780 -10.27764 -10.27609 -10.27576 -10.27543
 Alpha  occ. eigenvalues --  -10.27506 -10.27427 -10.27343 -10.27256 -10.27065
 Alpha  occ. eigenvalues --  -10.27022 -10.26682 -10.26588 -10.26545 -10.26539
 Alpha  occ. eigenvalues --  -10.26511 -10.26307 -10.26280 -10.26208 -10.26056
 Alpha  occ. eigenvalues --  -10.26054 -10.25996 -10.25990 -10.25916 -10.25645
 Alpha  occ. eigenvalues --  -10.25581 -10.25233 -10.25095 -10.25076 -10.25071
 Alpha  occ. eigenvalues --  -10.24076  -3.17981  -3.16829  -1.92864  -1.92450
 Alpha  occ. eigenvalues --   -1.92274  -1.91694  -1.91298  -1.91162  -1.15723
 Alpha  occ. eigenvalues --   -1.14857  -1.11704  -1.11545  -1.11101  -1.09018
 Alpha  occ. eigenvalues --   -1.07656  -1.05936  -1.05604  -1.05222  -1.04715
 Alpha  occ. eigenvalues --   -1.04325  -1.04129  -1.03869  -1.03012  -1.02033
 Alpha  occ. eigenvalues --   -0.92395  -0.92357  -0.89646  -0.88913  -0.88847
 Alpha  occ. eigenvalues --   -0.88437  -0.88253  -0.88041  -0.87976  -0.87776
 Alpha  occ. eigenvalues --   -0.87483  -0.86578  -0.86574  -0.86365  -0.84446
 Alpha  occ. eigenvalues --   -0.84390  -0.83601  -0.83532  -0.82727  -0.82619
 Alpha  occ. eigenvalues --   -0.82542  -0.81245  -0.81079  -0.80898  -0.80542
 Alpha  occ. eigenvalues --   -0.80201  -0.79040  -0.78413  -0.77480  -0.77456
 Alpha  occ. eigenvalues --   -0.76998  -0.76798  -0.76200  -0.75718  -0.75258
 Alpha  occ. eigenvalues --   -0.75226  -0.73138  -0.72657  -0.71799  -0.71702
 Alpha  occ. eigenvalues --   -0.69660  -0.69402  -0.69232  -0.69044  -0.68166
 Alpha  occ. eigenvalues --   -0.68112  -0.67336  -0.67333  -0.65519  -0.65431
 Alpha  occ. eigenvalues --   -0.65356  -0.65192  -0.64990  -0.64762  -0.64475
 Alpha  occ. eigenvalues --   -0.63777  -0.62313  -0.61729  -0.61134  -0.60447
 Alpha  occ. eigenvalues --   -0.59754  -0.59334  -0.59319  -0.59300  -0.58786
 Alpha  occ. eigenvalues --   -0.58160  -0.57944  -0.57818  -0.57571  -0.57567
 Alpha  occ. eigenvalues --   -0.56321  -0.56021  -0.55404  -0.55332  -0.55258
 Alpha  occ. eigenvalues --   -0.55136  -0.54687  -0.54612  -0.54434  -0.54232
 Alpha  occ. eigenvalues --   -0.53652  -0.53461  -0.53222  -0.52977  -0.52705
 Alpha  occ. eigenvalues --   -0.52640  -0.52636  -0.52474  -0.52455  -0.52313
 Alpha  occ. eigenvalues --   -0.52162  -0.51920  -0.51647  -0.51528  -0.51296
 Alpha  occ. eigenvalues --   -0.51275  -0.50799  -0.50627  -0.50478  -0.50248
 Alpha  occ. eigenvalues --   -0.50066  -0.49833  -0.49541  -0.49516  -0.49417
 Alpha  occ. eigenvalues --   -0.49354  -0.49350  -0.49108  -0.49068  -0.48794
 Alpha  occ. eigenvalues --   -0.48590  -0.48441  -0.48323  -0.48079  -0.48029
 Alpha  occ. eigenvalues --   -0.47974  -0.47801  -0.47610  -0.47504  -0.47186
 Alpha  occ. eigenvalues --   -0.47042  -0.46815  -0.46672  -0.46529  -0.46466
 Alpha  occ. eigenvalues --   -0.46167  -0.46133  -0.45932  -0.45724  -0.45629
 Alpha  occ. eigenvalues --   -0.45498  -0.45341  -0.45266  -0.45138  -0.44844
 Alpha  occ. eigenvalues --   -0.44552  -0.44527  -0.44132  -0.44090  -0.43927
 Alpha  occ. eigenvalues --   -0.43848  -0.43721  -0.43481  -0.43420  -0.43365
 Alpha  occ. eigenvalues --   -0.43190  -0.43090  -0.42934  -0.42925  -0.42863
 Alpha  occ. eigenvalues --   -0.42471  -0.42454  -0.42344  -0.42155  -0.42107
 Alpha  occ. eigenvalues --   -0.42021  -0.41861  -0.41590  -0.41498  -0.41403
 Alpha  occ. eigenvalues --   -0.41267  -0.41077  -0.40957  -0.40764  -0.40536
 Alpha  occ. eigenvalues --   -0.40350  -0.39768  -0.39605  -0.39223  -0.39117
 Alpha  occ. eigenvalues --   -0.38485  -0.38362  -0.38212  -0.38100  -0.37874
 Alpha  occ. eigenvalues --   -0.37058  -0.37019  -0.36464  -0.36397  -0.36290
 Alpha  occ. eigenvalues --   -0.36270  -0.35167  -0.34437  -0.34374  -0.34116
 Alpha  occ. eigenvalues --   -0.33431  -0.33294  -0.32956  -0.32511  -0.31652
 Alpha  occ. eigenvalues --   -0.31380  -0.31255  -0.30732  -0.30425  -0.30335
 Alpha  occ. eigenvalues --   -0.30185  -0.30107  -0.29727  -0.24212  -0.23829
 Alpha  occ. eigenvalues --   -0.21615  -0.20624
 Alpha virt. eigenvalues --   -0.09207  -0.07845  -0.01768  -0.01463   0.00206
 Alpha virt. eigenvalues --    0.00523   0.01652   0.02260   0.02476   0.03007
 Alpha virt. eigenvalues --    0.05007   0.05274   0.05638   0.06094   0.06354

 Mulliken charges:
               1
     1  Mg   0.850567
     2  C    0.012169
     3  C   -0.109467
     4  C   -0.070334
     5  C   -0.108746
     6  N   -0.257943
     7  C   -0.051843
     8  C   -0.000869
     9  C   -0.101386
    10  C    0.045301
    11  C    0.094737
    12  C    0.048932
    13  C   -0.072547
    14  H    0.013007
    15  N   -0.419476
    16  C    0.163739
    17  C   -0.108897
    18  C   -0.091243
    19  C    0.161842
    20  C    0.094035
    21  C    0.026214
    22  O   -0.168451
    23  C    0.036220
    24  N   -0.251388
    25  C    0.003049
    26  C   -0.036973
    27  C    0.001972
    28  C   -0.034607
    29  C    0.070309
    30  C    0.035378
    31  C    0.008537
    32  N   -0.312656
    33  C    0.155302
    34  C   -0.183092
    35  C    0.078810
    36  C    0.062742
    37  C    0.144281
    38  C   -0.022477
    39  O   -0.177542
    40  C    0.001675
    41  C    0.195329
    42  O   -0.239430
    43  O   -0.323700
    44  C    0.190509
    45  H   -0.033060
    46  H   -0.010551
    47  H   -0.035032
    48  H    0.022042
    49  H    0.005866
    50  H    0.023440
    51  H    0.016541
    52  H    0.024995
    53  H    0.008936
    54  H    0.018135
    55  H    0.025929
    56  H    0.040068
    57  H    0.037380
    58  H    0.007431
    59  H    0.045219
    60  H    0.040687
    61  H    0.049188
    62  H    0.021277
    63  H    0.008505
    64  H    0.002548
    65  H    0.016675
    66  H    0.005071
    67  H    0.028210
    68  H    0.006572
    69  H    0.007645
    70  H    0.009855
    71  H    0.017898
    72  H    0.021342
    73  H    0.036319
    74  H    0.041573
    75  H   -0.001560
    76  H    0.044052
    77  H    0.042898
    78  H    0.040289
    79  H    0.012027
    80  Mg   0.813061
    81  C   -0.023625
    82  C   -0.077266
    83  C   -0.062025
    84  C   -0.064319
    85  N   -0.302464
    86  C   -0.035127
    87  C    0.006889
    88  C   -0.058613
    89  C    0.050783
    90  C    0.068889
    91  C    0.056708
    92  C   -0.088695
    93  H    0.008324
    94  N   -0.363114
    95  C    0.161214
    96  C   -0.117003
    97  C   -0.041629
    98  C    0.130651
    99  C    0.062504
   100  C   -0.022264
   101  O   -0.176327
   102  C    0.054561
   103  N   -0.263233
   104  C    0.030075
   105  C   -0.035234
   106  C   -0.014424
   107  C    0.032488
   108  C    0.066524
   109  C    0.004389
   110  C   -0.014666
   111  N   -0.320737
   112  C    0.065142
   113  C   -0.162609
   114  C   -0.035092
   115  C    0.140025
   116  C    0.116963
   117  C    0.069098
   118  O   -0.136696
   119  C    0.003818
   120  C    0.181201
   121  O   -0.201504
   122  O   -0.351216
   123  C    0.165221
   124  H   -0.034090
   125  H   -0.000964
   126  H   -0.031191
   127  H    0.018642
   128  H    0.008108
   129  H    0.008581
   130  H    0.022457
   131  H    0.009347
   132  H    0.019134
   133  H    0.009126
   134  H    0.046112
   135  H    0.015659
   136  H    0.027184
   137  H    0.003884
   138  H    0.033312
   139  H    0.021859
   140  H    0.036841
   141  H    0.022645
   142  H    0.016583
   143  H    0.012847
   144  H    0.017363
   145  H    0.035572
   146  H    0.016235
   147  H    0.020208
   148  H    0.002063
   149  H    0.023652
   150  H    0.021694
   151  H    0.021068
   152  H    0.029115
   153  H    0.019766
   154  H    0.036351
   155  H    0.033813
   156  H    0.035893
   157  H    0.044045
   158  H    0.056439
 Sum of Mulliken charges =  -0.00000

 Dipole moment (field-independent basis, Debye):
    X=              1.8698    Y=              0.9294    Z=             -1.1292  Tot=              2.3738
 Quadrupole moment (field-independent basis, Debye-Ang):
   XX=           -864.3299   YY=           -478.5705   ZZ=           -516.8030
   XY=             25.3080   XZ=            138.0245   YZ=             10.6152

 Normal termination of Gaussian 16 at Tue Aug 31 16:27:55 2021.
