 Gaussian 16, Revision A.03,
 Gaussian 16:  ES64L-G16RevA.03 25-Dec-2016

 -----------------------------------
 #p cam-b3lyp/Def2SVP td=(nstates=5)
 -----------------------------------

 --------------------------------
 TDDFT excited states in gaussian
 --------------------------------
 Symbolic Z-matrix:
 Charge =  0 Multiplicity = 1

                         Standard orientation:
 ---------------------------------------------------------------------
 Center     Atomic      Atomic             Coordinates (Angstroms)
 Number     Number       Type             X           Y           Z
 ---------------------------------------------------------------------
      1         12           0      -11.593758   -0.085857   -0.074050
      2          6           0       -8.400496   -1.360060    0.952446
      3          6           0      -10.279659    3.120110    0.794740
      4          6           0      -13.982658    1.463013   -1.858152
      5          6           0      -12.280787   -3.131793   -1.469248
      6          7           0       -9.578375    0.722937    0.727549
      7          6           0       -8.459581    0.031465    1.090381
      8          6           0       -7.336312    0.981560    1.634548
      9          6           0       -8.177797    2.316178    1.920014
     10          6           0       -9.384134    2.065410    1.029246
     11          6           0       -8.609805    2.496256    3.357234
     12          6           0       -6.122721    1.067100    0.723774
     13          6           0       -4.722789    1.003264    1.387956
     14          1           0       -3.871414    2.333482    1.640025
     15          7           0      -12.158575    2.060928   -0.417923
     16          6           0      -11.513282    3.191761    0.124628
     17          6           0      -12.268160    4.391831   -0.256285
     18          6           0      -13.402731    3.893803   -1.010254
     19          6           0      -13.186046    2.475672   -1.200200
     20          6           0      -11.913035    5.801733    0.032652
     21          6           0      -14.566141    4.731355   -1.478718
     22          8           0      -14.647060    5.870710   -1.078029
     23          6           0      -15.651847    4.241059   -2.408719
     24          7           0      -12.799160   -0.750783   -1.504846
     25          6           0      -13.817927    0.075025   -1.971689
     26          6           0      -14.676545   -0.755480   -2.928418
     27          6           0      -14.256913   -2.240483   -2.625740
     28          6           0      -13.053191   -2.031894   -1.770158
     29          6           0      -16.227975   -0.497824   -2.950158
     30          6           0      -14.038289   -3.202906   -3.833303
     31          6           0      -14.805791   -4.484469   -3.855842
     32          7           0      -10.668469   -1.912901   -0.154015
     33          6           0      -11.096647   -3.112194   -0.696009
     34          6           0      -10.222011   -4.221337   -0.268844
     35          6           0       -9.108569   -3.518412    0.335549
     36          6           0       -9.448956   -2.162327    0.350559
     37          6           0      -10.360320   -5.706343   -0.478074
     38          6           0       -7.786657   -3.737855    0.993122
     39          8           0       -7.139298   -4.736937    1.127342
     40          6           0       -7.269198   -2.334603    1.292284
     41          6           0       -6.934238   -2.272225    2.752639
     42          8           0       -7.830992   -2.367817    3.562780
     43          8           0       -5.569645   -2.001367    3.071328
     44          6           0       -5.261159   -1.731743    4.508486
     45          1           0       -9.935956    4.112199    1.095410
     46          1           0      -14.816037    1.802033   -2.475757
     47          1           0      -12.637008   -4.120638   -1.764462
     48          1           0       -7.012233    0.694277    2.634408
     49          1           0       -7.674148    3.197137    1.522259
     50          1           0       -9.496886    1.886659    3.527666
     51          1           0       -8.770164    3.563251    3.511234
     52          1           0       -7.934538    2.180748    4.153258
     53          1           0       -6.177857    2.043421    0.243247
     54          1           0       -6.273123    0.365798   -0.096947
     55          1           0       -4.165482    0.348323    0.717777
     56          1           0       -4.728939    0.516781    2.363429
     57          1           0      -12.498046    6.088414    0.906014
     58          1           0      -12.291419    6.436374   -0.768755
     59          1           0      -10.872447    6.085394    0.194680
     60          1           0      -16.358282    5.000785   -2.742610
     61          1           0      -16.207795    3.497339   -1.837709
     62          1           0      -15.376168    3.701872   -3.314262
     63          1           0      -14.354425   -0.369241   -3.895889
     64          1           0      -14.962233   -2.649107   -1.902718
     65          1           0      -16.548519   -0.003904   -2.032489
     66          1           0      -16.766423   -1.427604   -3.132790
     67          1           0      -16.492571    0.127345   -3.802669
     68          1           0      -12.976843   -3.440460   -3.903247
     69          1           0      -14.210198   -2.620823   -4.738594
     70          1           0      -14.128736   -5.308689   -3.632416
     71          1           0      -15.211540   -4.649302   -4.853897
     72          1           0      -15.639908   -4.585686   -3.161842
     73          1           0       -9.771220   -6.261039    0.251963
     74          1           0      -10.024177   -5.905753   -1.495979
     75          1           0      -11.424264   -5.943942   -0.477474
     76          1           0       -6.451906   -2.134810    0.599142
     77          1           0       -5.213333   -2.678618    5.046568
     78          1           0       -6.061133   -1.158993    4.977155
     79          1           0       -4.332072   -1.170507    4.606167
     80         12           0       11.168875    0.192339   -0.533757
     81          6           0        8.485743    0.804954    1.667997
     82          6           0       10.837053   -3.153046    0.268063
     83          6           0       13.832789   -0.538604   -2.539717
     84          6           0       11.597783    3.494752   -0.957290
     85          7           0        9.773041   -1.050551    0.806292
     86          6           0        8.657832   -0.617311    1.513265
     87          6           0        7.836974   -1.801111    1.983985
     88          6           0        8.819486   -3.017790    1.824264
     89          6           0        9.841713   -2.376627    0.912837
     90          6           0        9.383895   -3.624227    3.168486
     91          6           0        6.575362   -2.036960    1.140262
     92          6           0        5.345029   -2.518070    1.916910
     93          1           0        5.358100   -3.954298    2.510334
     94          7           0       12.137633   -1.587671   -1.136014
     95          6           0       11.837131   -2.807543   -0.633913
     96          6           0       12.775655   -3.753068   -1.144847
     97          6           0       13.618553   -3.093913   -2.105093
     98          6           0       13.252763   -1.701591   -1.913480
     99          6           0       12.762328   -5.198053   -0.729604
    100          6           0       14.746025   -3.611470   -2.998491
    101          8           0       15.251999   -2.902440   -3.896163
    102          6           0       15.380000   -4.984688   -2.807666
    103          7           0       12.445979    1.301439   -1.652648
    104          6           0       13.537884    0.814611   -2.364928
    105          6           0       14.298660    1.966775   -2.936382
    106          6           0       13.595845    3.310709   -2.526314
    107          6           0       12.447193    2.713196   -1.697600
    108          6           0       15.837113    1.916227   -2.693239
    109          6           0       13.081549    4.177801   -3.695846
    110          6           0       14.056938    5.297965   -4.106093
    111          7           0       10.318077    1.822960    0.192994
    112          6           0       10.524082    3.171485   -0.094685
    113          6           0        9.534594    4.072948    0.603930
    114          6           0        8.770882    3.131401    1.312711
    115          6           0        9.229194    1.810840    1.002051
    116          6           0        9.458332    5.586137    0.513176
    117          6           0        7.647107    3.047390    2.233276
    118          8           0        6.968042    3.928520    2.761983
    119          6           0        7.362087    1.493218    2.387287
    120          6           0        7.316166    1.239147    3.906868
    121          8           0        8.046135    1.730389    4.742934
    122          8           0        6.185414    0.477253    4.194878
    123          6           0        6.042994    0.183138    5.620942
    124          1           0       10.653663   -4.208046    0.481175
    125          1           0       14.688434   -0.657273   -3.207393
    126          1           0       11.881005    4.544958   -1.050099
    127          1           0        7.534624   -1.756875    3.029990
    128          1           0        8.386052   -3.891957    1.338322
    129          1           0        8.957430   -3.214779    4.084678
    130          1           0       10.453414   -3.510421    3.343718
    131          1           0        9.153992   -4.687475    3.237609
    132          1           0        6.759626   -2.758641    0.344778
    133          1           0        6.242744   -1.108115    0.676458
    134          1           0        4.427132   -2.393426    1.342595
    135          1           0        5.133324   -1.866389    2.764354
    136          1           0       12.718405   -5.115058    0.356448
    137          1           0       13.643969   -5.798591   -0.953109
    138          1           0       11.891276   -5.761912   -1.062635
    139          1           0       15.660309   -5.141628   -1.765951
    140          1           0       16.239645   -4.929365   -3.475377
    141          1           0       14.682807   -5.779571   -3.072561
    142          1           0       14.320955    1.817414   -4.016299
    143          1           0       14.169197    3.946227   -1.850187
    144          1           0       16.045395    1.043878   -2.073400
    145          1           0       16.134940    2.809031   -2.144072
    146          1           0       16.257416    1.814930   -3.694390
    147          1           0       12.074832    4.504966   -3.436821
    148          1           0       13.027160    3.595173   -4.615718
    149          1           0       15.071230    5.030776   -3.808926
    150          1           0       13.918142    6.266802   -3.625951
    151          1           0       14.047461    5.368125   -5.194197
    152          1           0        9.069049    5.829194   -0.475658
    153          1           0       10.408126    6.112463    0.605806
    154          1           0        8.759450    5.891549    1.291724
    155          1           0        6.433217    1.137152    1.942131
    156          1           0        6.531164   -0.734712    5.949958
    157          1           0        4.963922    0.144104    5.769220
    158          1           0        6.434393    0.890882    6.351681
 ---------------------------------------------------------------------

 SCF Done:  E(RCAM-B3LYP) =  -4069.84105565     A.U. after   17 cycles

 Excitation energies and oscillator strengths:

 Excited State   1:      Singlet-A      1.6711 eV  741.91 nm  f=0.3561  <S**2>=0.000
     309 -> 316        0.16903
     311 -> 313        0.68770
     309 <- 316        0.10643
 This state for optimization and/or second-order correction.
 Total Energy, E(TD-HF/TD-DFT) =  -4069.77964239
 Copying the excited state density for this state as the 1-particle RhoCI density.

 Excited State   2:      Singlet-A      1.7015 eV  728.68 nm  f=0.4127  <S**2>=0.000
     310 -> 315        0.18623
     312 -> 314        0.68289
     310 <- 315        0.10939

 Excited State   3:      Singlet-A      2.2321 eV  555.47 nm  f=0.1193  <S**2>=0.000
     309 -> 313       -0.17173
     310 -> 314        0.61286
     312 -> 315       -0.28810

 Excited State   4:      Singlet-A      2.2363 eV  554.42 nm  f=0.1113  <S**2>=0.000
     309 -> 313        0.61777
     310 -> 314        0.16927
     311 -> 316       -0.27134

 Excited State   5:      Singlet-A      2.8604 eV  433.45 nm  f=0.0000  <S**2>=0.000
     312 -> 313        0.70706

 The electronic state is 1-A.
 Alpha  occ. eigenvalues --  -46.89319 -46.87629 -19.25762 -19.25267 -19.20736
 Alpha  occ. eigenvalues --  -19.20408 -19.19734 -19.19186 -19.19087 -19.17975
 Alpha  occ. eigenvalues --  -14.42752 -14.42654 -14.41709 -14.41258 -14.39876
 Alpha  occ. eigenvalues --  -14.39462 -14.39333 -14.39152 -10.40227 -10.39681
 Alpha  occ. eigenvalues --  -10.35826 -10.35415 -10.35069 -10.34504 -10.32280
 Alpha  occ. eigenvalues --  -10.31487 -10.31417 -10.31384 -10.31284 -10.30854
 Alpha  occ. eigenvalues --  -10.30727 -10.30710 -10.30689 -10.30508 -10.30306
 Alpha  occ. eigenvalues --  -10.30279 -10.30257 -10.30226 -10.29567 -10.29486
 Alpha  occ. eigenvalues --  -10.29203 -10.29185 -10.29097 -10.29054 -10.28839
 Alpha  occ. eigenvalues --  -10.28725 -10.28721 -10.28694 -10.28658 -10.28633
 Alpha  occ. eigenvalues --  -10.28599 -10.28552 -10.28547 -10.28349 -10.28057
 Alpha  occ. eigenvalues --  -10.27972 -10.27839 -10.27771 -10.27600 -10.27528
 Alpha  occ. eigenvalues --  -10.27331 -10.27213 -10.27186 -10.27045 -10.27021
 Alpha  occ. eigenvalues --  -10.27006 -10.26890 -10.26574 -10.26569 -10.26522
 Alpha  occ. eigenvalues --  -10.26518 -10.26502 -10.26403 -10.26394 -10.26321
 Alpha  occ. eigenvalues --  -10.26308 -10.26023 -10.25991 -10.25971 -10.25884
 Alpha  occ. eigenvalues --  -10.25740 -10.25677 -10.25647 -10.25548 -10.25529
 Alpha  occ. eigenvalues --  -10.25353  -3.17888  -3.16412  -1.92737  -1.92349
 Alpha  occ. eigenvalues --   -1.92196  -1.91310  -1.90843  -1.90756  -1.16300
 Alpha  occ. eigenvalues --   -1.15376  -1.11736  -1.10205  -1.09224  -1.08909
 Alpha  occ. eigenvalues --   -1.08172  -1.07876  -1.04694  -1.04590  -1.03648
 Alpha  occ. eigenvalues --   -1.03571  -1.03056  -1.02769  -1.01507  -1.01439
 Alpha  occ. eigenvalues --   -0.92755  -0.92559  -0.89407  -0.89403  -0.89004
 Alpha  occ. eigenvalues --   -0.88868  -0.88452  -0.88280  -0.87605  -0.87465
 Alpha  occ. eigenvalues --   -0.86995  -0.86228  -0.86131  -0.85643  -0.84481
 Alpha  occ. eigenvalues --   -0.84390  -0.83961  -0.83535  -0.82487  -0.82282
 Alpha  occ. eigenvalues --   -0.81837  -0.81709  -0.80974  -0.80556  -0.80200
 Alpha  occ. eigenvalues --   -0.80072  -0.78438  -0.78166  -0.77485  -0.77452
 Alpha  occ. eigenvalues --   -0.77265  -0.76796  -0.76333  -0.76140  -0.75216
 Alpha  occ. eigenvalues --   -0.75044  -0.72665  -0.72643  -0.71775  -0.71645
 Alpha  occ. eigenvalues --   -0.69553  -0.69362  -0.68923  -0.68803  -0.68164
 Alpha  occ. eigenvalues --   -0.67913  -0.67295  -0.66702  -0.65943  -0.65764
 Alpha  occ. eigenvalues --   -0.65490  -0.65085  -0.64538  -0.64475  -0.64311
 Alpha  occ. eigenvalues --   -0.64153  -0.62570  -0.62329  -0.60353  -0.60135
 Alpha  occ. eigenvalues --   -0.59793  -0.59554  -0.59188  -0.59066  -0.58921
 Alpha  occ. eigenvalues --   -0.58484  -0.58322  -0.57742  -0.57645  -0.57485
 Alpha  occ. eigenvalues --   -0.56532  -0.56004  -0.55663  -0.55435  -0.55428
 Alpha  occ. eigenvalues --   -0.55104  -0.54693  -0.54332  -0.53865  -0.53784
 Alpha  occ. eigenvalues --   -0.53483  -0.53358  -0.53118  -0.53083  -0.52962
 Alpha  occ. eigenvalues --   -0.52863  -0.52555  -0.52241  -0.52133  -0.51833
 Alpha  occ. eigenvalues --   -0.51828  -0.51732  -0.51719  -0.51296  -0.51213
 Alpha  occ. eigenvalues --   -0.51095  -0.50924  -0.50474  -0.50437  -0.50196
 Alpha  occ. eigenvalues --   -0.50024  -0.49942  -0.49868  -0.49779  -0.49734
 Alpha  occ. eigenvalues --   -0.49352  -0.49298  -0.49111  -0.49058  -0.48889
 Alpha  occ. eigenvalues --   -0.48696  -0.48592  -0.48479  -0.48228  -0.48175
 Alpha  occ. eigenvalues --   -0.48066  -0.47686  -0.47602  -0.47388  -0.47084
 Alpha  occ. eigenvalues --   -0.46978  -0.46831  -0.46646  -0.46516  -0.46413
 Alpha  occ. eigenvalues --   -0.46382  -0.46265  -0.46179  -0.46054  -0.45962
 Alpha  occ. eigenvalues --   -0.45891  -0.45820  -0.45504  -0.45246  -0.44946
 Alpha  occ. eigenvalues --   -0.44904  -0.44648  -0.44604  -0.44510  -0.44340
 Alpha  occ. eigenvalues --   -0.44331  -0.43767  -0.43612  -0.43581  -0.43484
 Alpha  occ. eigenvalues --   -0.43448  -0.43298  -0.43183  -0.42993  -0.42894
 Alpha  occ. eigenvalues --   -0.42673  -0.42639  -0.42551  -0.42435  -0.42346
 Alpha  occ. eigenvalues --   -0.41922  -0.41914  -0.41731  -0.41587  -0.41542
 Alpha  occ. eigenvalues --   -0.41207  -0.41119  -0.41030  -0.40813  -0.40568
 Alpha  occ. eigenvalues --   -0.40434  -0.40257  -0.40214  -0.39676  -0.39286
 Alpha  occ. eigenvalues --   -0.38694  -0.38443  -0.38295  -0.37912  -0.37691
 Alpha  occ. eigenvalues --   -0.37332  -0.37253  -0.37163  -0.36850  -0.36622
 Alpha  occ. eigenvalues --   -0.36504  -0.35802  -0.35141  -0.35053  -0.34950
 Alpha  occ. eigenvalues --   -0.34392  -0.33180  -0.32839  -0.31611  -0.31503
 Alpha  occ. eigenvalues --   -0.31105  -0.30960  -0.30932  -0.30543  -0.30486
 Alpha  occ. eigenvalues --   -0.29981  -0.29674  -0.28735  -0.24304  -0.23935
 Alpha  occ. eigenvalues --   -0.21121  -0.21061
 Alpha virt. eigenvalues --   -0.08983  -0.08557  -0.01763  -0.01493   0.00011
 Alpha virt. eigenvalues --    0.00470   0.01246   0.01761   0.02638   0.03756
 Alpha virt. eigenvalues --    0.04390   0.04451   0.04768   0.05041   0.05609

 Mulliken charges:
               1
     1  Mg   0.850169
     2  C   -0.068685
     3  C   -0.046477
     4  C   -0.070176
     5  C   -0.117833
     6  N   -0.248521
     7  C   -0.056117
     8  C   -0.029251
     9  C   -0.067554
    10  C    0.027910
    11  C    0.088616
    12  C    0.079526
    13  C   -0.054627
    14  H    0.010062
    15  N   -0.346079
    16  C    0.095316
    17  C   -0.125827
    18  C   -0.029151
    19  C    0.139916
    20  C    0.130466
    21  C   -0.009019
    22  O   -0.204338
    23  C    0.048539
    24  N   -0.372409
    25  C    0.069256
    26  C   -0.081057
    27  C    0.022227
    28  C    0.057842
    29  C    0.063542
    30  C    0.049727
    31  C    0.008734
    32  N   -0.354535
    33  C    0.126903
    34  C   -0.181123
    35  C   -0.064069
    36  C    0.147670
    37  C    0.135406
    38  C    0.052945
    39  O   -0.136711
    40  C    0.059819
    41  C    0.212813
    42  O   -0.206810
    43  O   -0.375294
    44  C    0.175386
    45  H   -0.030623
    46  H   -0.056687
    47  H   -0.037451
    48  H    0.003936
    49  H    0.002187
    50  H    0.021848
    51  H    0.020576
    52  H    0.014526
    53  H    0.012726
    54  H    0.016447
    55  H    0.032206
    56  H    0.026978
    57  H    0.030914
    58  H    0.030894
    59  H    0.014704
    60  H    0.024125
    61  H    0.029732
    62  H    0.037066
    63  H    0.024829
    64  H    0.007103
    65  H    0.023811
    66  H    0.015756
    67  H    0.009102
    68  H    0.014381
    69  H   -0.000397
    70  H    0.015630
    71  H    0.013693
    72  H    0.015182
    73  H    0.047696
    74  H    0.030398
    75  H    0.013016
    76  H    0.041924
    77  H    0.044311
    78  H    0.035004
    79  H    0.047333
    80  Mg   0.856990
    81  C   -0.058779
    82  C   -0.109455
    83  C   -0.071387
    84  C   -0.087107
    85  N   -0.241883
    86  C   -0.013965
    87  C    0.014337
    88  C   -0.051430
    89  C   -0.006613
    90  C    0.052911
    91  C    0.064806
    92  C   -0.070667
    93  H    0.002817
    94  N   -0.342961
    95  C    0.211747
    96  C   -0.159377
    97  C   -0.006358
    98  C    0.104300
    99  C    0.108351
   100  C    0.005868
   101  O   -0.228244
   102  C    0.038013
   103  N   -0.379047
   104  C    0.084289
   105  C   -0.051039
   106  C   -0.001757
   107  C    0.029947
   108  C    0.063124
   109  C    0.045042
   110  C   -0.000572
   111  N   -0.392717
   112  C    0.133042
   113  C   -0.159747
   114  C   -0.023347
   115  C    0.156276
   116  C    0.124932
   117  C    0.083815
   118  O   -0.173179
   119  C   -0.034134
   120  C    0.197868
   121  O   -0.193198
   122  O   -0.339628
   123  C    0.167311
   124  H   -0.033640
   125  H   -0.010987
   126  H   -0.037369
   127  H    0.007681
   128  H    0.014910
   129  H    0.012983
   130  H    0.020374
   131  H    0.012991
   132  H    0.016930
   133  H    0.011931
   134  H    0.025171
   135  H    0.028203
   136  H    0.024996
   137  H    0.003832
   138  H    0.035115
   139  H    0.040279
   140  H    0.037941
   141  H    0.041792
   142  H    0.016580
   143  H    0.017646
   144  H    0.022115
   145  H    0.012444
   146  H    0.021701
   147  H    0.012872
   148  H    0.003412
   149  H    0.004427
   150  H    0.019115
   151  H    0.018455
   152  H    0.027651
   153  H    0.025976
   154  H    0.042166
   155  H    0.042792
   156  H    0.025900
   157  H    0.036840
   158  H    0.047582
 Sum of Mulliken charges =  -0.00000

 Dipole moment (field-independent basis, Debye):
    X=             -0.9322    Y=             -4.4984    Z=             -1.7292  Tot=              4.9086
 Quadrupole moment (field-independent basis, Debye-Ang):
   XX=           -464.4444   YY=           -525.7878   ZZ=           -508.4419
   XY=             18.3091   XZ=             27.4005   YZ=            -13.2206

 Normal termination of Gaussian 16 at Wed Sep  1 21:55:15 2021.
