 Gaussian 16, Revision A.03,
 Gaussian 16:  ES64L-G16RevA.03 25-Dec-2016

 -----------------------------------
 #p cam-b3lyp/Def2SVP td=(nstates=5)
 -----------------------------------

 --------------------------------
 TDDFT excited states in gaussian
 --------------------------------
 Symbolic Z-matrix:
 Charge =  0 Multiplicity = 1

                         Standard orientation:
 ---------------------------------------------------------------------
 Center     Atomic      Atomic             Coordinates (Angstroms)
 Number     Number       Type             X           Y           Z
 ---------------------------------------------------------------------
      1         12           0       24.034781   -0.857809    0.144895
      2          6           0       25.451563    2.198049   -0.435106
      3          6           0       22.644956    0.233569    2.969711
      4          6           0       22.963806   -3.897413    0.631059
      5          6           0       26.046287   -2.054233   -2.543035
      6          7           0       24.183129    0.992266    1.269746
      7          6           0       24.591490    2.149859    0.692481
      8          6           0       24.060515    3.356142    1.417478
      9          6           0       23.395648    2.674545    2.680082
     10          6           0       23.472042    1.199647    2.349905
     11          6           0       24.027874    3.070452    4.035999
     12          6           0       23.098294    4.331396    0.500744
     13          6           0       23.348009    5.846976    0.530830
     14          1           0       24.056180    6.421347    1.797909
     15          7           0       22.859492   -1.639592    1.448217
     16          6           0       22.354804   -1.080306    2.578787
     17          6           0       21.634179   -2.017956    3.405068
     18          6           0       21.545308   -3.148377    2.650221
     19          6           0       22.577108   -2.958623    1.583815
     20          6           0       21.224362   -1.549977    4.789487
     21          6           0       20.756430   -4.441743    2.935693
     22          8           0       20.787259   -5.423702    2.231047
     23          6           0       19.957608   -4.398374    4.204781
     24          7           0       24.610255   -2.736565   -0.746492
     25          6           0       23.882193   -3.815591   -0.407094
     26          6           0       24.230843   -5.012613   -1.297225
     27          6           0       24.972055   -4.345243   -2.505112
     28          6           0       25.263476   -2.955955   -1.901619
     29          6           0       25.040246   -6.219698   -0.657272
     30          6           0       24.138569   -4.176586   -3.831001
     31          6           0       22.850501   -3.398488   -3.891714
     32          7           0       25.412219   -0.149369   -1.315264
     33          6           0       26.226718   -0.738076   -2.287972
     34          6           0       27.063122    0.258669   -2.968636
     35          6           0       26.782043    1.443807   -2.272447
     36          6           0       25.782895    1.108601   -1.305212
     37          6           0       27.958035    0.068227   -4.166296
     38          6           0       27.076497    2.798374   -2.155487
     39          8           0       27.870039    3.532227   -2.723684
     40          6           0       26.073070    3.397655   -1.136392
     41          6           0       26.949400    4.221153   -0.272106
     42          8           0       27.657276    3.793812    0.643053
     43          8           0       26.969940    5.521247   -0.686882
     44          6           0       27.993364    6.429988   -0.160667
     45          1           0       22.051846    0.671948    3.775285
     46          1           0       22.602823   -4.925140    0.697745
     47          1           0       26.570020   -2.547854   -3.365229
     48          1           0       24.878628    3.951384    1.823185
     49          1           0       22.332284    2.912904    2.688388
     50          1           0       24.659375    2.252393    4.382315
     51          1           0       23.226843    3.213543    4.761258
     52          1           0       24.615420    3.970009    3.852061
     53          1           0       22.086983    4.128362    0.853272
     54          1           0       23.189690    4.074304   -0.554079
     55          1           0       22.399994    6.384191    0.538655
     56          1           0       23.844216    6.157053   -0.388729
     57          1           0       22.047976   -1.275597    5.448822
     58          1           0       20.785285   -2.248460    5.501580
     59          1           0       20.522918   -0.754865    4.536677
     60          1           0       19.273901   -3.549808    4.200311
     61          1           0       20.742639   -4.407844    4.960630
     62          1           0       19.261303   -5.209269    4.415579
     63          1           0       23.240514   -5.401895   -1.536140
     64          1           0       25.930337   -4.845846   -2.645418
     65          1           0       25.231801   -6.010006    0.394802
     66          1           0       26.041927   -6.280311   -1.081129
     67          1           0       24.600294   -7.212273   -0.765266
     68          1           0       23.979999   -5.227143   -4.075830
     69          1           0       24.723250   -3.720513   -4.629269
     70          1           0       22.535157   -3.136661   -2.880867
     71          1           0       22.054791   -4.009646   -4.317392
     72          1           0       22.886764   -2.437882   -4.405156
     73          1           0       29.014805    0.103016   -3.905218
     74          1           0       27.737840    0.829260   -4.915116
     75          1           0       27.746933   -0.958436   -4.466510
     76          1           0       25.267690    3.941673   -1.630199
     77          1           0       28.205753    7.251867   -0.845432
     78          1           0       28.863576    5.892219    0.212560
     79          1           0       27.689023    6.908091    0.770225
     80         12           0      -24.729504   -0.503426   -0.199033
     81          6           0      -23.610430    2.787957   -0.779277
     82          6           0      -25.043358    0.374201    3.129013
     83          6           0      -25.713825   -3.689061    0.534066
     84          6           0      -24.055182   -1.312902   -3.386400
     85          7           0      -24.395547    1.404550    1.040708
     86          6           0      -24.067064    2.674810    0.582735
     87          6           0      -24.274499    3.702048    1.677504
     88          6           0      -24.377848    2.833173    2.983460
     89          6           0      -24.632861    1.484367    2.349088
     90          6           0      -23.137428    2.909379    3.957526
     91          6           0      -25.557719    4.526958    1.498544
     92          6           0      -25.456835    5.998736    1.913345
     93          1           0      -25.312336    6.334864    3.423712
     94          7           0      -25.382745   -1.497076    1.548988
     95          6           0      -25.377953   -0.928481    2.776657
     96          6           0      -25.736412   -1.919970    3.738091
     97          6           0      -26.096804   -3.126540    3.044304
     98          6           0      -25.687750   -2.819729    1.685032
     99          6           0      -25.762308   -1.631385    5.213434
    100          6           0      -26.608953   -4.477256    3.544793
    101          8           0      -27.026018   -5.355232    2.757542
    102          6           0      -26.573296   -4.874754    5.016115
    103          7           0      -24.947476   -2.203554   -1.283039
    104          6           0      -25.303811   -3.450726   -0.778868
    105          6           0      -25.216747   -4.461707   -1.875755
    106          6           0      -24.752505   -3.755655   -3.200229
    107          6           0      -24.606313   -2.328474   -2.647987
    108          6           0      -24.440674   -5.760931   -1.503952
    109          6           0      -25.748870   -3.826178   -4.377699
    110          6           0      -25.447265   -4.964921   -5.371054
    111          7           0      -23.962017    0.444410   -1.755798
    112          6           0      -23.777007    0.039226   -3.076902
    113          6           0      -23.282814    1.156540   -3.964126
    114          6           0      -23.192271    2.210126   -3.040062
    115          6           0      -23.653156    1.765387   -1.759346
    116          6           0      -22.983866    1.076047   -5.450041
    117          6           0      -22.816810    3.613482   -2.956443
    118          8           0      -22.363157    4.380615   -3.806593
    119          6           0      -23.205407    4.051833   -1.480893
    120          6           0      -21.941954    4.728824   -0.914186
    121          8           0      -20.794977    4.366056   -1.075506
    122          8           0      -22.313439    5.932749   -0.318708
    123          6           0      -21.179800    6.662731    0.249127
    124          1           0      -25.206997    0.706593    4.156053
    125          1           0      -26.019426   -4.730440    0.652977
    126          1           0      -23.748794   -1.687106   -4.365103
    127          1           0      -23.446708    4.398322    1.809649
    128          1           0      -25.206618    3.096391    3.640751
    129          1           0      -22.372715    3.638777    3.688972
    130          1           0      -22.552246    1.997544    4.074352
    131          1           0      -23.448472    3.226378    4.952961
    132          1           0      -26.389788    4.090512    2.050584
    133          1           0      -25.843126    4.572456    0.447367
    134          1           0      -26.275479    6.592786    1.507344
    135          1           0      -24.607744    6.486487    1.435000
    136          1           0      -24.792122   -1.157209    5.362497
    137          1           0      -25.793794   -2.480308    5.896245
    138          1           0      -26.534894   -0.930686    5.529204
    139          1           0      -25.586221   -4.695999    5.442851
    140          1           0      -26.830528   -5.932804    4.968679
    141          1           0      -27.282827   -4.287540    5.599068
    142          1           0      -26.207447   -4.908727   -1.963567
    143          1           0      -23.767041   -4.051380   -3.562407
    144          1           0      -24.047885   -5.634112   -0.494890
    145          1           0      -23.601330   -5.876363   -2.189198
    146          1           0      -25.200032   -6.542211   -1.550822
    147          1           0      -25.806205   -2.828458   -4.812301
    148          1           0      -26.742898   -4.106037   -4.028178
    149          1           0      -24.877147   -5.748504   -4.871606
    150          1           0      -24.811561   -4.716246   -6.221047
    151          1           0      -26.397900   -5.402734   -5.676985
    152          1           0      -23.941422    1.011574   -5.967090
    153          1           0      -22.405457    0.208941   -5.768283
    154          1           0      -22.471012    2.005597   -5.696552
    155          1           0      -24.043080    4.744201   -1.399189
    156          1           0      -20.953073    6.420043    1.287735
    157          1           0      -21.461175    7.708852    0.129273
    158          1           0      -20.194249    6.549515   -0.202475
 ---------------------------------------------------------------------

 SCF Done:  E(RCAM-B3LYP) =  -4069.83485130     A.U. after   18 cycles

 Excitation energies and oscillator strengths:

 Excited State   1:      Singlet-A      1.7014 eV  728.70 nm  f=0.3738  <S**2>=0.000
     309 -> 315       -0.18653
     311 -> 313        0.68387
     309 <- 315       -0.10956
 This state for optimization and/or second-order correction.
 Total Energy, E(TD-HF/TD-DFT) =  -4069.77232479
 Copying the excited state density for this state as the 1-particle RhoCI density.

 Excited State   2:      Singlet-A      1.7683 eV  701.14 nm  f=0.3769  <S**2>=0.000
     310 -> 316        0.19166
     312 -> 314        0.68182
     310 <- 316        0.10600

 Excited State   3:      Singlet-A      2.2323 eV  555.40 nm  f=0.0990  <S**2>=0.000
     309 -> 313        0.63577
     311 -> 315        0.29946

 Excited State   4:      Singlet-A      2.2756 eV  544.83 nm  f=0.0580  <S**2>=0.000
     310 -> 314        0.61599
     312 -> 316       -0.33777

 Excited State   5:      Singlet-A      3.0790 eV  402.68 nm  f=0.0000  <S**2>=0.000
     312 -> 313        0.70711

 The electronic state is 1-A.
 Alpha  occ. eigenvalues --  -46.87955 -46.87667 -19.25784 -19.23908 -19.20432
 Alpha  occ. eigenvalues --  -19.19934 -19.19225 -19.19116 -19.18336 -19.17648
 Alpha  occ. eigenvalues --  -14.42694 -14.41708 -14.41296 -14.41058 -14.40000
 Alpha  occ. eigenvalues --  -14.39913 -14.39500 -14.38747 -10.39706 -10.38251
 Alpha  occ. eigenvalues --  -10.35964 -10.35864 -10.35099 -10.33544 -10.31500
 Alpha  occ. eigenvalues --  -10.31458 -10.30893 -10.30827 -10.30763 -10.30746
 Alpha  occ. eigenvalues --  -10.30654 -10.30582 -10.30450 -10.30344 -10.30296
 Alpha  occ. eigenvalues --  -10.30242 -10.30134 -10.29604 -10.29240 -10.29123
 Alpha  occ. eigenvalues --  -10.29028 -10.28964 -10.28925 -10.28763 -10.28758
 Alpha  occ. eigenvalues --  -10.28732 -10.28715 -10.28648 -10.28579 -10.28398
 Alpha  occ. eigenvalues --  -10.28061 -10.27873 -10.27850 -10.27824 -10.27809
 Alpha  occ. eigenvalues --  -10.27760 -10.27746 -10.27591 -10.27566 -10.27557
 Alpha  occ. eigenvalues --  -10.27487 -10.27390 -10.27325 -10.27238 -10.27221
 Alpha  occ. eigenvalues --  -10.27086 -10.27065 -10.26623 -10.26521 -10.26493
 Alpha  occ. eigenvalues --  -10.26443 -10.26423 -10.26353 -10.26261 -10.26039
 Alpha  occ. eigenvalues --  -10.26036 -10.26028 -10.26008 -10.25898 -10.25713
 Alpha  occ. eigenvalues --  -10.25681 -10.25579 -10.25562 -10.25212 -10.25053
 Alpha  occ. eigenvalues --  -10.24058  -3.16810  -3.16450  -1.91675  -1.91348
 Alpha  occ. eigenvalues --   -1.91279  -1.91143  -1.90881  -1.90794  -1.16323
 Alpha  occ. eigenvalues --   -1.14839  -1.11527  -1.09252  -1.08999  -1.08947
 Alpha  occ. eigenvalues --   -1.08196  -1.05918  -1.05586  -1.04735  -1.04696
 Alpha  occ. eigenvalues --   -1.04111  -1.03686  -1.03093  -1.02993  -1.01476
 Alpha  occ. eigenvalues --   -0.92594  -0.92338  -0.89627  -0.89454  -0.89040
 Alpha  occ. eigenvalues --   -0.88419  -0.88316  -0.88022  -0.87957  -0.87503
 Alpha  occ. eigenvalues --   -0.87465  -0.87034  -0.86555  -0.86166  -0.84436
 Alpha  occ. eigenvalues --   -0.84371  -0.83583  -0.83568  -0.82709  -0.82600
 Alpha  occ. eigenvalues --   -0.82320  -0.81749  -0.81061  -0.81008  -0.80523
 Alpha  occ. eigenvalues --   -0.80106  -0.79022  -0.78476  -0.77487  -0.77462
 Alpha  occ. eigenvalues --   -0.77309  -0.76980  -0.76174  -0.75700  -0.75208
 Alpha  occ. eigenvalues --   -0.75080  -0.72702  -0.72639  -0.71684  -0.71684
 Alpha  occ. eigenvalues --   -0.69641  -0.69405  -0.69026  -0.68837  -0.68208
 Alpha  occ. eigenvalues --   -0.68148  -0.67337  -0.67314  -0.65809  -0.65526
 Alpha  occ. eigenvalues --   -0.65412  -0.64972  -0.64744  -0.64513  -0.64185
 Alpha  occ. eigenvalues --   -0.63759  -0.62599  -0.61711  -0.61116  -0.60395
 Alpha  occ. eigenvalues --   -0.60173  -0.59316  -0.59282  -0.58957  -0.58521
 Alpha  occ. eigenvalues --   -0.57926  -0.57799  -0.57772  -0.57548  -0.57521
 Alpha  occ. eigenvalues --   -0.56303  -0.56042  -0.55473  -0.55313  -0.55136
 Alpha  occ. eigenvalues --   -0.55117  -0.54716  -0.54669  -0.54416  -0.53826
 Alpha  occ. eigenvalues --   -0.53633  -0.53518  -0.53204  -0.53157  -0.52900
 Alpha  occ. eigenvalues --   -0.52622  -0.52618  -0.52589  -0.52436  -0.52294
 Alpha  occ. eigenvalues --   -0.52172  -0.51876  -0.51772  -0.51629  -0.51257
 Alpha  occ. eigenvalues --   -0.51246  -0.50608  -0.50507  -0.50460  -0.50237
 Alpha  occ. eigenvalues --   -0.50229  -0.50064  -0.49817  -0.49498  -0.49389
 Alpha  occ. eigenvalues --   -0.49332  -0.49092  -0.49090  -0.48924  -0.48775
 Alpha  occ. eigenvalues --   -0.48571  -0.48516  -0.48263  -0.48108  -0.48061
 Alpha  occ. eigenvalues --   -0.48010  -0.47783  -0.47641  -0.47424  -0.47168
 Alpha  occ. eigenvalues --   -0.46876  -0.46796  -0.46683  -0.46653  -0.46549
 Alpha  occ. eigenvalues --   -0.46510  -0.46298  -0.45927  -0.45706  -0.45538
 Alpha  occ. eigenvalues --   -0.45480  -0.45248  -0.44943  -0.44826  -0.44647
 Alpha  occ. eigenvalues --   -0.44554  -0.44508  -0.44376  -0.44366  -0.44114
 Alpha  occ. eigenvalues --   -0.43908  -0.43830  -0.43612  -0.43517  -0.43463
 Alpha  occ. eigenvalues --   -0.43210  -0.43171  -0.43036  -0.42907  -0.42845
 Alpha  occ. eigenvalues --   -0.42707  -0.42435  -0.42380  -0.42136  -0.41960
 Alpha  occ. eigenvalues --   -0.41843  -0.41772  -0.41631  -0.41571  -0.41251
 Alpha  occ. eigenvalues --   -0.41248  -0.41073  -0.41058  -0.40746  -0.40518
 Alpha  occ. eigenvalues --   -0.40470  -0.40266  -0.39711  -0.39586  -0.39204
 Alpha  occ. eigenvalues --   -0.38731  -0.38466  -0.38333  -0.38193  -0.37955
 Alpha  occ. eigenvalues --   -0.37288  -0.37000  -0.36896  -0.36659  -0.36446
 Alpha  occ. eigenvalues --   -0.36271  -0.35180  -0.35149  -0.34978  -0.34356
 Alpha  occ. eigenvalues --   -0.33276  -0.32938  -0.32875  -0.32493  -0.31541
 Alpha  occ. eigenvalues --   -0.31361  -0.30997  -0.30963  -0.30714  -0.30577
 Alpha  occ. eigenvalues --   -0.30088  -0.30020  -0.29709  -0.23973  -0.23810
 Alpha  occ. eigenvalues --   -0.21099  -0.20605
 Alpha virt. eigenvalues --   -0.08595  -0.07826  -0.01802  -0.01750  -0.00025
 Alpha virt. eigenvalues --    0.00225   0.01725   0.02279   0.03026   0.03717
 Alpha virt. eigenvalues --    0.04732   0.05006   0.05026   0.05583   0.06113

 Mulliken charges:
               1
     1  Mg   0.850574
     2  C    0.012159
     3  C   -0.109464
     4  C   -0.070332
     5  C   -0.108736
     6  N   -0.257942
     7  C   -0.051825
     8  C   -0.000878
     9  C   -0.101378
    10  C    0.045274
    11  C    0.094744
    12  C    0.048926
    13  C   -0.072534
    14  H    0.012976
    15  N   -0.419473
    16  C    0.163747
    17  C   -0.108906
    18  C   -0.091227
    19  C    0.161838
    20  C    0.094042
    21  C    0.026220
    22  O   -0.168448
    23  C    0.036208
    24  N   -0.251379
    25  C    0.003047
    26  C   -0.036984
    27  C    0.001995
    28  C   -0.034639
    29  C    0.070315
    30  C    0.035372
    31  C    0.008533
    32  N   -0.312631
    33  C    0.155299
    34  C   -0.183095
    35  C    0.078814
    36  C    0.062728
    37  C    0.144282
    38  C   -0.022477
    39  O   -0.177544
    40  C    0.001675
    41  C    0.195351
    42  O   -0.239448
    43  O   -0.323700
    44  C    0.190514
    45  H   -0.033065
    46  H   -0.010556
    47  H   -0.035038
    48  H    0.022036
    49  H    0.005880
    50  H    0.023420
    51  H    0.016536
    52  H    0.024988
    53  H    0.008954
    54  H    0.018149
    55  H    0.025953
    56  H    0.040071
    57  H    0.037359
    58  H    0.007414
    59  H    0.045234
    60  H    0.040706
    61  H    0.049165
    62  H    0.021274
    63  H    0.008517
    64  H    0.002533
    65  H    0.016659
    66  H    0.005058
    67  H    0.028207
    68  H    0.006571
    69  H    0.007650
    70  H    0.009856
    71  H    0.017919
    72  H    0.021357
    73  H    0.036303
    74  H    0.041586
    75  H   -0.001558
    76  H    0.044072
    77  H    0.042904
    78  H    0.040274
    79  H    0.012021
    80  Mg   0.856936
    81  C   -0.058717
    82  C   -0.109487
    83  C   -0.071361
    84  C   -0.087090
    85  N   -0.241842
    86  C   -0.014059
    87  C    0.014360
    88  C   -0.051396
    89  C   -0.006690
    90  C    0.052946
    91  C    0.064887
    92  C   -0.070545
    93  H    0.002368
    94  N   -0.342933
    95  C    0.211718
    96  C   -0.159423
    97  C   -0.006372
    98  C    0.104267
    99  C    0.108380
   100  C    0.005851
   101  O   -0.228222
   102  C    0.038020
   103  N   -0.379053
   104  C    0.084273
   105  C   -0.051042
   106  C   -0.001756
   107  C    0.029972
   108  C    0.063119
   109  C    0.045011
   110  C   -0.000573
   111  N   -0.392743
   112  C    0.133061
   113  C   -0.159684
   114  C   -0.023312
   115  C    0.156270
   116  C    0.124932
   117  C    0.083864
   118  O   -0.172893
   119  C   -0.034182
   120  C    0.197908
   121  O   -0.193152
   122  O   -0.339662
   123  C    0.167153
   124  H   -0.033790
   125  H   -0.010969
   126  H   -0.037299
   127  H    0.007763
   128  H    0.014694
   129  H    0.013036
   130  H    0.020430
   131  H    0.012818
   132  H    0.016744
   133  H    0.012006
   134  H    0.024810
   135  H    0.028560
   136  H    0.024969
   137  H    0.003814
   138  H    0.034968
   139  H    0.040270
   140  H    0.037969
   141  H    0.041735
   142  H    0.016591
   143  H    0.017674
   144  H    0.022102
   145  H    0.012467
   146  H    0.021723
   147  H    0.012891
   148  H    0.003417
   149  H    0.004430
   150  H    0.019155
   151  H    0.018484
   152  H    0.027695
   153  H    0.026009
   154  H    0.042288
   155  H    0.042764
   156  H    0.025723
   157  H    0.037249
   158  H    0.047702
 Sum of Mulliken charges =  -0.00000

 Dipole moment (field-independent basis, Debye):
    X=             -6.3739    Y=             -1.2090    Z=              6.0438  Tot=              8.8665
 Quadrupole moment (field-independent basis, Debye-Ang):
   XX=           -693.6533   YY=           -513.8901   ZZ=           -472.7228
   XY=            -42.5628   XZ=            -32.0958   YZ=             43.2458

 Normal termination of Gaussian 16 at Tue Aug 31 16:40:17 2021.
