 Gaussian 16, Revision A.03,
 Gaussian 16:  ES64L-G16RevA.03 25-Dec-2016

 ----------------------------------------------------------
 #p cam-b3lyp/Def2SVP td=(nstates=5) density=(transition=1)
 ----------------------------------------------------------

 --------------------------------
 TDDFT excited states in gaussian
 --------------------------------
 Symbolic Z-matrix:
 Charge =  0 Multiplicity = 1

                         Standard orientation:
 ---------------------------------------------------------------------
 Center     Atomic      Atomic             Coordinates (Angstroms)
 Number     Number       Type             X           Y           Z
 ---------------------------------------------------------------------
      1         12           0        8.587480    0.485809    0.426278
      2          6           0        7.375166   -0.942314   -2.430403
      3          6           0        7.565783    3.628049   -0.894741
      4          6           0        9.405557    1.887265    3.384755
      5          6           0        8.666574   -2.656839    1.927824
      6          7           0        7.195069    1.216710   -1.378661
      7          6           0        7.064750    0.444887   -2.494020
      8          6           0        6.373864    1.226578   -3.576879
      9          6           0        6.405712    2.730494   -3.060382
     10          6           0        7.113013    2.581827   -1.676252
     11          6           0        6.721871    3.771009   -4.071764
     12          6           0        4.954124    0.735697   -4.132537
     13          6           0        4.028414    0.029746   -3.186671
     14          1           0        2.583191    0.506357   -3.148415
     15          7           0        8.714938    2.492842    1.038673
     16          6           0        8.292276    3.605614    0.380000
     17          6           0        8.503128    4.798463    1.145688
     18          6           0        9.165842    4.306468    2.385872
     19          6           0        9.124887    2.829736    2.309536
     20          6           0        8.196286    6.174016    0.788368
     21          6           0        9.769253    5.110490    3.528587
     22          8           0        9.616998    6.278930    3.585746
     23          6           0       10.501045    4.559123    4.720769
     24          7           0        8.844343   -0.258820    2.369844
     25          6           0        9.351299    0.510685    3.345143
     26          6           0        9.430885   -0.309479    4.737258
     27          6           0        9.555938   -1.790802    4.129391
     28          6           0        8.943481   -1.552761    2.769681
     29          6           0       10.585874    0.068133    5.668974
     30          6           0        8.923233   -2.863049    5.034713
     31          6           0        9.680085   -4.154044    5.368391
     32          7           0        8.015156   -1.418960   -0.086179
     33          6           0        8.130948   -2.629949    0.584919
     34          6           0        7.818836   -3.720829   -0.254219
     35          6           0        7.558250   -3.150619   -1.489337
     36          6           0        7.688040   -1.723177   -1.351944
     37          6           0        7.848696   -5.179107    0.084923
     38          6           0        7.263607   -3.325791   -2.850359
     39          8           0        7.066110   -4.387776   -3.437266
     40          6           0        6.959490   -1.939239   -3.485846
     41          6           0        7.825017   -1.936558   -4.737311
     42          8           0        7.398846   -1.683051   -5.883996
     43          8           0        9.128603   -2.113762   -4.337498
     44          6           0       10.270196   -1.920398   -5.264780
     45          1           0        7.118344    4.538119   -1.299587
     46          1           0        9.469316    2.334710    4.378707
     47          1           0        8.762851   -3.643137    2.385737
     48          1           0        6.956594    1.131030   -4.493797
     49          1           0        5.387622    2.957708   -2.745529
     50          1           0        7.485604    4.476379   -3.744465
     51          1           0        5.826087    4.259798   -4.454885
     52          1           0        7.181128    3.299032   -4.940390
     53          1           0        5.014927    0.027528   -4.958997
     54          1           0        4.354185    1.604016   -4.406713
     55          1           0        4.435447   -0.139875   -2.190405
     56          1           0        3.857800   -0.965128   -3.599350
     57          1           0        8.279540    6.280927   -0.292727
     58          1           0        8.838873    6.912334    1.266542
     59          1           0        7.165417    6.353270    1.095903
     60          1           0       10.926904    3.709673    4.186213
     61          1           0        9.831823    4.226738    5.513730
     62          1           0       11.259920    5.194646    5.177485
     63          1           0        8.444554   -0.211965    5.191862
     64          1           0       10.547108   -2.175464    3.890417
     65          1           0       11.317904   -0.737492    5.606152
     66          1           0       10.204166    0.362912    6.646040
     67          1           0       11.115329    0.966389    5.352699
     68          1           0        7.980652   -3.146468    4.565641
     69          1           0        8.594813   -2.372236    5.950993
     70          1           0        9.746451   -4.465939    6.410815
     71          1           0       10.667272   -4.200080    4.906700
     72          1           0        9.157313   -4.882722    4.749666
     73          1           0        8.150512   -5.831905   -0.734495
     74          1           0        6.853483   -5.475241    0.417330
     75          1           0        8.564457   -5.424326    0.870648
     76          1           0        5.891268   -1.999691   -3.690454
     77          1           0       11.123022   -1.440513   -4.784994
     78          1           0        9.930582   -1.299359   -6.093837
     79          1           0       10.728514   -2.770882   -5.767930
     80         12           0       -8.882722    0.164539   -0.291340
     81          6           0       -6.531741   -2.471181   -0.215554
     82          6           0       -6.626329    2.174176   -1.612133
     83          6           0      -10.924662    2.778271    0.528246
     84          6           0      -10.860079   -1.857775    2.090992
     85          7           0       -6.785942   -0.150198   -0.786152
     86          6           0       -6.129489   -1.322951   -0.900188
     87          6           0       -4.846163   -1.105070   -1.725521
     88          6           0       -4.891456    0.320011   -2.175450
     89          6           0       -6.163338    0.866904   -1.459293
     90          6           0       -3.517307    1.078011   -1.964661
     91          6           0       -4.518979   -2.113400   -2.877295
     92          6           0       -3.819857   -1.663684   -4.231176
     93          1           0       -2.678457   -2.527330   -4.787718
     94          7           0       -8.872839    2.163117   -0.745919
     95          6           0       -7.808015    2.818636   -1.321686
     96          6           0       -8.195504    4.186000   -1.522341
     97          6           0       -9.462254    4.444686   -0.867431
     98          6           0       -9.777601    3.122499   -0.283055
     99          6           0       -7.230568    5.092239   -2.173014
    100          6           0      -10.336823    5.722038   -0.823414
    101          8           0      -11.336985    5.739446   -0.184765
    102          6           0      -10.075714    6.849235   -1.768616
    103          7           0      -10.618432    0.402915    1.173990
    104          6           0      -11.297247    1.571881    1.150724
    105          6           0      -12.563119    1.533845    2.065384
    106          6           0      -12.584772    0.049967    2.544072
    107          6           0      -11.286091   -0.534549    1.935322
    108          6           0      -12.564773    2.504215    3.216564
    109          6           0      -13.825803   -0.831784    2.165455
    110          6           0      -13.936729   -1.377304    0.781915
    111          7           0       -8.840542   -1.749241    0.768243
    112          6           0       -9.706123   -2.395120    1.603761
    113          6           0       -9.228218   -3.735048    1.843055
    114          6           0       -7.984472   -3.848304    1.167801
    115          6           0       -7.775543   -2.590229    0.567121
    116          6           0       -9.793490   -4.752763    2.769822
    117          6           0       -6.856208   -4.691633    0.893541
    118          8           0       -6.582509   -5.851454    1.180201
    119          6           0       -5.883850   -3.858288   -0.056415
    120          6           0       -4.440543   -3.865440    0.418275
    121          8           0       -4.069616   -3.361571    1.446900
    122          8           0       -3.651038   -4.491745   -0.532983
    123          6           0       -2.242172   -4.579841   -0.147377
    124          1           0       -6.024262    2.848385   -2.225473
    125          1           0      -11.554694    3.652851    0.701701
    126          1           0      -11.494183   -2.496467    2.709254
    127          1           0       -4.120417   -1.305092   -0.937228
    128          1           0       -5.014178    0.316060   -3.258862
    129          1           0       -2.754559    0.363955   -1.654542
    130          1           0       -3.707341    1.925922   -1.306666
    131          1           0       -3.112010    1.432564   -2.912539
    132          1           0       -5.466397   -2.567132   -3.169238
    133          1           0       -3.922584   -2.954617   -2.523101
    134          1           0       -3.456637   -0.657016   -4.023350
    135          1           0       -4.579205   -1.573161   -5.007991
    136          1           0       -7.352221    6.053529   -1.674299
    137          1           0       -7.553794    5.211958   -3.206403
    138          1           0       -6.164047    4.869842   -2.211104
    139          1           0       -9.405359    7.483400   -1.189951
    140          1           0      -11.028293    7.271011   -2.090689
    141          1           0       -9.494704    6.586446   -2.652899
    142          1           0      -13.483141    1.636996    1.489690
    143          1           0      -12.422281   -0.178963    3.596833
    144          1           0      -11.758526    3.233173    3.125040
    145          1           0      -12.399706    2.009059    4.173838
    146          1           0      -13.534275    3.000226    3.177527
    147          1           0      -14.742480   -0.271903    2.351070
    148          1           0      -13.917666   -1.611353    2.922056
    149          1           0      -13.346230   -0.767628    0.097753
    150          1           0      -14.895642   -1.410530    0.264247
    151          1           0      -13.621160   -2.417699    0.866205
    152          1           0       -9.844283   -4.443980    3.813539
    153          1           0       -9.015672   -5.509957    2.871709
    154          1           0      -10.747065   -5.141982    2.411955
    155          1           0       -5.961720   -4.325720   -1.038224
    156          1           0       -1.978922   -3.875862   -0.936208
    157          1           0       -1.986046   -5.614260   -0.375235
    158          1           0       -2.055756   -4.258157    0.877482
 ---------------------------------------------------------------------

 SCF Done:  E(RCAM-B3LYP) =  -4069.74343248     A.U. after   19 cycles

 Excitation energies and oscillator strengths:

 Excited State   1:      Singlet-A      1.6342 eV  758.68 nm  f=0.3342  <S**2>=0.000
     309 -> 315       -0.16870
     311 -> 313        0.68695
     309 <- 315       -0.10851
 This state for optimization and/or second-order correction.
 Total Energy, E(TD-HF/TD-DFT) =  -4069.68337673
 Copying the excited state density for this state as the 1-particle RhoCI density.

 Excited State   2:      Singlet-A      1.7018 eV  728.54 nm  f=0.4148  <S**2>=0.000
     310 -> 316        0.18649
     312 -> 314        0.68201
     310 <- 316        0.10993

 Excited State   3:      Singlet-A      2.1487 eV  577.03 nm  f=0.1470  <S**2>=0.000
     309 -> 313        0.65161
     311 -> 315        0.25524

 Excited State   4:      Singlet-A      2.1893 eV  566.31 nm  f=0.1123  <S**2>=0.000
     310 -> 314        0.64196
     312 -> 316       -0.28195

 Excited State   5:      Singlet-A      2.5138 eV  493.22 nm  f=0.0000  <S**2>=0.000
     312 -> 313        0.70699

 The electronic state is 1-A.
 Alpha  occ. eigenvalues --  -46.90032 -46.89917 -19.26325 -19.24606 -19.20437
 Alpha  occ. eigenvalues --  -19.19914 -19.19515 -19.18572 -19.18550 -19.17307
 Alpha  occ. eigenvalues --  -14.42659 -14.42133 -14.42128 -14.41708 -14.40136
 Alpha  occ. eigenvalues --  -14.39743 -14.39421 -14.38732 -10.40588 -10.39006
 Alpha  occ. eigenvalues --  -10.35664 -10.34714 -10.34374 -10.33643 -10.32916
 Alpha  occ. eigenvalues --  -10.32193 -10.31674 -10.31542 -10.31113 -10.31101
 Alpha  occ. eigenvalues --  -10.31037 -10.30995 -10.30836 -10.30813 -10.30776
 Alpha  occ. eigenvalues --  -10.30640 -10.30294 -10.30266 -10.29478 -10.29420
 Alpha  occ. eigenvalues --  -10.29370 -10.28939 -10.28938 -10.28936 -10.28602
 Alpha  occ. eigenvalues --  -10.28580 -10.28573 -10.28517 -10.28336 -10.28290
 Alpha  occ. eigenvalues --  -10.28196 -10.28107 -10.28098 -10.27933 -10.27886
 Alpha  occ. eigenvalues --  -10.27856 -10.27734 -10.27605 -10.27595 -10.27541
 Alpha  occ. eigenvalues --  -10.27484 -10.27307 -10.27304 -10.27235 -10.26960
 Alpha  occ. eigenvalues --  -10.26922 -10.26841 -10.26808 -10.26773 -10.26643
 Alpha  occ. eigenvalues --  -10.26640 -10.26504 -10.26424 -10.26378 -10.26277
 Alpha  occ. eigenvalues --  -10.26228 -10.26213 -10.26187 -10.26074 -10.25598
 Alpha  occ. eigenvalues --  -10.25331 -10.25219 -10.25169 -10.25050 -10.24913
 Alpha  occ. eigenvalues --  -10.24803  -3.18503  -3.18226  -1.93361  -1.93100
 Alpha  occ. eigenvalues --   -1.92995  -1.92778  -1.92690  -1.92517  -1.16168
 Alpha  occ. eigenvalues --   -1.15787  -1.12836  -1.11483  -1.09454  -1.09126
 Alpha  occ. eigenvalues --   -1.08421  -1.07364  -1.05247  -1.04445  -1.04135
 Alpha  occ. eigenvalues --   -1.03066  -1.03035  -1.02408  -1.02247  -1.01762
 Alpha  occ. eigenvalues --   -0.93791  -0.91528  -0.89887  -0.89190  -0.88873
 Alpha  occ. eigenvalues --   -0.88815  -0.88501  -0.88185  -0.88026  -0.87349
 Alpha  occ. eigenvalues --   -0.87294  -0.87104  -0.86022  -0.85981  -0.84662
 Alpha  occ. eigenvalues --   -0.84055  -0.83934  -0.83566  -0.83214  -0.82462
 Alpha  occ. eigenvalues --   -0.82264  -0.81894  -0.81068  -0.80736  -0.80675
 Alpha  occ. eigenvalues --   -0.80305  -0.78587  -0.78215  -0.77906  -0.77114
 Alpha  occ. eigenvalues --   -0.77062  -0.77014  -0.76779  -0.75754  -0.75574
 Alpha  occ. eigenvalues --   -0.74575  -0.73677  -0.72253  -0.71848  -0.71380
 Alpha  occ. eigenvalues --   -0.70069  -0.69721  -0.69488  -0.69197  -0.68560
 Alpha  occ. eigenvalues --   -0.68117  -0.66831  -0.66663  -0.66329  -0.65588
 Alpha  occ. eigenvalues --   -0.64836  -0.64828  -0.64529  -0.64239  -0.64027
 Alpha  occ. eigenvalues --   -0.63921  -0.63696  -0.61588  -0.60370  -0.59956
 Alpha  occ. eigenvalues --   -0.59486  -0.59460  -0.58971  -0.58719  -0.58257
 Alpha  occ. eigenvalues --   -0.58157  -0.57910  -0.57726  -0.57329  -0.57313
 Alpha  occ. eigenvalues --   -0.56620  -0.56038  -0.55891  -0.55799  -0.55445
 Alpha  occ. eigenvalues --   -0.55295  -0.55234  -0.54974  -0.54543  -0.54484
 Alpha  occ. eigenvalues --   -0.54074  -0.53980  -0.53653  -0.53382  -0.53276
 Alpha  occ. eigenvalues --   -0.53236  -0.52684  -0.52625  -0.52301  -0.52160
 Alpha  occ. eigenvalues --   -0.51921  -0.51911  -0.51639  -0.51448  -0.51168
 Alpha  occ. eigenvalues --   -0.51112  -0.50854  -0.50760  -0.50748  -0.50692
 Alpha  occ. eigenvalues --   -0.50507  -0.50222  -0.50068  -0.49935  -0.49825
 Alpha  occ. eigenvalues --   -0.49558  -0.49414  -0.49272  -0.49136  -0.49088
 Alpha  occ. eigenvalues --   -0.48900  -0.48680  -0.48499  -0.48304  -0.48265
 Alpha  occ. eigenvalues --   -0.47979  -0.47651  -0.47621  -0.47402  -0.47329
 Alpha  occ. eigenvalues --   -0.47166  -0.47118  -0.47065  -0.47003  -0.46684
 Alpha  occ. eigenvalues --   -0.46504  -0.46222  -0.45934  -0.45695  -0.45690
 Alpha  occ. eigenvalues --   -0.45629  -0.45484  -0.45409  -0.45350  -0.45155
 Alpha  occ. eigenvalues --   -0.44981  -0.44549  -0.44478  -0.44247  -0.44246
 Alpha  occ. eigenvalues --   -0.44062  -0.43982  -0.43637  -0.43558  -0.43476
 Alpha  occ. eigenvalues --   -0.43164  -0.43155  -0.42920  -0.42838  -0.42817
 Alpha  occ. eigenvalues --   -0.42687  -0.42528  -0.42486  -0.42262  -0.42193
 Alpha  occ. eigenvalues --   -0.42015  -0.41960  -0.41840  -0.41721  -0.41553
 Alpha  occ. eigenvalues --   -0.41358  -0.41335  -0.40786  -0.40633  -0.40505
 Alpha  occ. eigenvalues --   -0.40372  -0.40060  -0.39153  -0.39096  -0.38901
 Alpha  occ. eigenvalues --   -0.38782  -0.38077  -0.38023  -0.37781  -0.37473
 Alpha  occ. eigenvalues --   -0.37308  -0.36993  -0.36822  -0.36341  -0.35780
 Alpha  occ. eigenvalues --   -0.35709  -0.35623  -0.34886  -0.34517  -0.33956
 Alpha  occ. eigenvalues --   -0.33483  -0.33174  -0.33074  -0.31729  -0.31661
 Alpha  occ. eigenvalues --   -0.30988  -0.30758  -0.30603  -0.30527  -0.29758
 Alpha  occ. eigenvalues --   -0.29621  -0.29268  -0.28430  -0.24548  -0.23746
 Alpha  occ. eigenvalues --   -0.21807  -0.20978
 Alpha virt. eigenvalues --   -0.09753  -0.08568  -0.02045  -0.01548   0.00053
 Alpha virt. eigenvalues --    0.00391   0.00917   0.01234   0.02591   0.02611
 Alpha virt. eigenvalues --    0.04458   0.04670   0.04787   0.05700   0.05800

 Mulliken charges:
               1
     1  Mg  12.003254
     2  C    6.005704
     3  C    5.977250
     4  C    5.977658
     5  C    6.020380
     6  N    6.992750
     7  C    5.972120
     8  C    6.010472
     9  C    5.984646
    10  C    6.039525
    11  C    5.998829
    12  C    6.000793
    13  C    6.003201
    14  H    0.988694
    15  N    6.993050
    16  C    6.050471
    17  C    6.023699
    18  C    6.007352
    19  C    6.047221
    20  C    5.993732
    21  C    6.010859
    22  O    8.020480
    23  C    6.000175
    24  N    7.003959
    25  C    6.030801
    26  C    5.989666
    27  C    6.012993
    28  C    5.960676
    29  C    5.999537
    30  C    6.001967
    31  C    5.998647
    32  N    7.004415
    33  C    5.959813
    34  C    5.976479
    35  C    5.990800
    36  C    5.970939
    37  C    6.003711
    38  C    5.984451
    39  O    7.964129
    40  C    6.000963
    41  C    5.993968
    42  O    7.988701
    43  O    8.005371
    44  C    6.005664
    45  H    1.008802
    46  H    1.006745
    47  H    0.992308
    48  H    1.001516
    49  H    1.005836
    50  H    0.994105
    51  H    1.004316
    52  H    1.009563
    53  H    1.002940
    54  H    0.990028
    55  H    1.004477
    56  H    1.003775
    57  H    1.020229
    58  H    1.016855
    59  H    1.023596
    60  H    1.004762
    61  H    1.012490
    62  H    1.013555
    63  H    1.004513
    64  H    0.995864
    65  H    1.008529
    66  H    1.001193
    67  H    0.992984
    68  H    1.003072
    69  H    0.989342
    70  H    0.994994
    71  H    0.998904
    72  H    1.005071
    73  H    0.985532
    74  H    0.980708
    75  H    0.980799
    76  H    0.991331
    77  H    0.992570
    78  H    0.993036
    79  H    0.995694
    80  Mg  11.999727
    81  C    5.998165
    82  C    6.000874
    83  C    6.000946
    84  C    5.999184
    85  N    6.999166
    86  C    6.002780
    87  C    5.999299
    88  C    6.001184
    89  C    5.997283
    90  C    5.999710
    91  C    5.999741
    92  C    5.999564
    93  H    1.002578
    94  N    7.000850
    95  C    5.996783
    96  C    5.998496
    97  C    5.998368
    98  C    5.997530
    99  C    6.000780
   100  C    5.998715
   101  O    7.998036
   102  C    6.000478
   103  N    6.999868
   104  C    5.997888
   105  C    6.000982
   106  C    5.999633
   107  C    6.002039
   108  C    6.000210
   109  C    5.999734
   110  C    5.999417
   111  N    6.999615
   112  C    6.002740
   113  C    6.002516
   114  C    6.000281
   115  C    6.002575
   116  C    5.999773
   117  C    6.001089
   118  O    8.002867
   119  C    6.000482
   120  C    6.000311
   121  O    7.999926
   122  O    8.000128
   123  C    5.999959
   124  H    0.999192
   125  H    0.999212
   126  H    1.000654
   127  H    1.000360
   128  H    0.999771
   129  H    1.000378
   130  H    0.998979
   131  H    0.999825
   132  H    0.999519
   133  H    1.000730
   134  H    1.000178
   135  H    0.999622
   136  H    0.997953
   137  H    0.998373
   138  H    0.997979
   139  H    0.998757
   140  H    0.998813
   141  H    0.999677
   142  H    0.999697
   143  H    0.999719
   144  H    1.000235
   145  H    0.999095
   146  H    0.999646
   147  H    1.000603
   148  H    0.999844
   149  H    1.000806
   150  H    1.000443
   151  H    0.999645
   152  H    1.001526
   153  H    1.001297
   154  H    1.001482
   155  H    1.000892
   156  H    1.001179
   157  H    1.001411
   158  H    1.000241
 Sum of Mulliken charges = 624.00000

 Dipole moment (field-independent basis, Debye):
    X=              1.6719    Y=              9.4147    Z=              4.0540  Tot=             10.3859
 Quadrupole moment (field-independent basis, Debye-Ang):
   XX=             23.4045   YY=             12.4654   ZZ=             -1.0762
   XY=             94.2296   XZ=             30.8300   YZ=              6.1676

 Normal termination of Gaussian 16 at Wed Sep 22 01:02:15 2021.
