 Gaussian 16, Revision A.03,
 Gaussian 16:  ES64L-G16RevA.03 25-Dec-2016

 -----------------------------------
 #p cam-b3lyp/Def2SVP td=(nstates=5)
 -----------------------------------

 --------------------------------
 TDDFT excited states in gaussian
 --------------------------------
 Symbolic Z-matrix:
 Charge =  0 Multiplicity = 1

                         Standard orientation:
 ---------------------------------------------------------------------
 Center     Atomic      Atomic             Coordinates (Angstroms)
 Number     Number       Type             X           Y           Z
 ---------------------------------------------------------------------
      1         12           0       23.975542    0.356973   -0.311178
      2          6           0       22.215854   -1.700855    2.038675
      3          6           0       23.233192    3.066172    1.688994
      4          6           0       25.023480    2.256086   -2.754619
      5          6           0       24.397595   -2.491113   -2.240093
      6          7           0       22.573068    0.690105    1.561622
      7          6           0       22.111228   -0.336780    2.339651
      8          6           0       21.664202    0.219034    3.718287
      9          6           0       21.932561    1.777295    3.595344
     10          6           0       22.611700    1.916154    2.184155
     11          6           0       20.687716    2.755095    3.702405
     12          6           0       22.395632   -0.389552    4.944437
     13          6           0       21.572828   -0.776217    6.121526
     14          1           0       20.117222   -0.230329    6.383072
     15          7           0       24.118347    2.439975   -0.548262
     16          6           0       23.896063    3.411962    0.426843
     17          6           0       24.142391    4.742019   -0.162534
     18          6           0       24.780807    4.487236   -1.436711
     19          6           0       24.655999    3.024826   -1.637351
     20          6           0       23.859681    6.061839    0.488901
     21          6           0       25.433679    5.450258   -2.456117
     22          8           0       26.216449    5.105913   -3.366606
     23          6           0       25.253545    6.898293   -2.235162
     24          7           0       24.537736   -0.067438   -2.179593
     25          6           0       24.876085    0.955887   -3.037544
     26          6           0       25.517066    0.405786   -4.341755
     27          6           0       25.641018   -1.140988   -3.982562
     28          6           0       24.821918   -1.258344   -2.708893
     29          6           0       24.775433    0.679750   -5.713322
     30          6           0       27.043018   -1.694394   -3.782610
     31          6           0       27.501987   -2.740523   -4.819929
     32          7           0       23.609210   -1.712934   -0.087260
     33          6           0       23.812309   -2.742083   -0.975934
     34          6           0       23.276303   -3.993808   -0.425338
     35          6           0       22.703061   -3.612922    0.774951
     36          6           0       22.923652   -2.227481    0.941655
     37          6           0       23.260343   -5.358890   -1.029990
     38          6           0       22.021921   -4.154673    1.895333
     39          8           0       21.748437   -5.342824    2.228538
     40          6           0       21.681091   -2.994246    2.730806
     41          6           0       20.208295   -2.991763    3.039462
     42          8           0       19.345397   -2.762695    2.262566
     43          8           0       20.016547   -3.217659    4.338951
     44          6           0       18.716654   -3.564227    4.804432
     45          1           0       23.032086    3.978117    2.255291
     46          1           0       25.438059    2.755655   -3.633693
     47          1           0       24.466344   -3.365550   -2.889292
     48          1           0       20.598783   -0.001063    3.795181
     49          1           0       22.656387    2.089188    4.347671
     50          1           0       19.751776    2.287510    4.006868
     51          1           0       20.496845    3.128800    2.695361
     52          1           0       20.923402    3.602578    4.346803
     53          1           0       23.138549    0.284737    5.372076
     54          1           0       22.925471   -1.310934    4.704439
     55          1           0       22.068416   -0.453644    7.037691
     56          1           0       21.509672   -1.864022    6.126613
     57          1           0       23.232533    6.662743   -0.169299
     58          1           0       24.823624    6.557590    0.603595
     59          1           0       23.519967    5.937165    1.517600
     60          1           0       24.188400    7.112642   -2.323008
     61          1           0       25.746337    7.380890   -3.078827
     62          1           0       25.762936    7.242542   -1.335509
     63          1           0       26.520245    0.832238   -4.371598
     64          1           0       25.181299   -1.690171   -4.804182
     65          1           0       23.869759    1.259916   -5.540168
     66          1           0       24.607071   -0.225576   -6.297796
     67          1           0       25.463041    1.247605   -6.340291
     68          1           0       27.293876   -2.039531   -2.779488
     69          1           0       27.728808   -0.858826   -3.918666
     70          1           0       28.018582   -3.621135   -4.438676
     71          1           0       28.323918   -2.286584   -5.374179
     72          1           0       26.721648   -3.124774   -5.475445
     73          1           0       23.976865   -5.465011   -1.845011
     74          1           0       22.316204   -5.526227   -1.548151
     75          1           0       23.322712   -6.063376   -0.200679
     76          1           0       22.251309   -3.114574    3.651558
     77          1           0       18.547801   -4.595644    4.491768
     78          1           0       17.949892   -2.990852    4.283240
     79          1           0       18.668126   -3.538841    5.893379
     80         12           0      -23.674238    0.547346    0.591641
     81          6           0      -22.158525   -2.575474   -0.510882
     82          6           0      -20.524799    1.914633    0.558013
     83          6           0      -25.066882    3.550974    0.121353
     84          6           0      -26.693007   -1.008681    0.701911
     85          7           0      -21.593783   -0.233151   -0.122180
     86          6           0      -21.212833   -1.581601   -0.460542
     87          6           0      -19.685882   -1.677127   -0.524363
     88          6           0      -19.186790   -0.375996    0.170482
     89          6           0      -20.486174    0.540286    0.247429
     90          6           0      -18.587633   -0.619833    1.635830
     91          6           0      -19.073617   -2.018868   -1.851281
     92          6           0      -19.955262   -1.845735   -3.110573
     93          1           0      -19.527207   -2.064722   -4.573196
     94          7           0      -22.896395    2.514366    0.506941
     95          6           0      -21.561820    2.854620    0.489070
     96          6           0      -21.463010    4.347205    0.522873
     97          6           0      -22.765840    4.775168    0.280691
     98          6           0      -23.668043    3.626926    0.234357
     99          6           0      -20.144371    5.023627    0.652524
    100          6           0      -23.180294    6.261457    0.076131
    101          8           0      -22.296045    7.098711    0.041564
    102          6           0      -24.567150    6.721018   -0.230240
    103          7           0      -25.626691    1.101154    0.281408
    104          6           0      -25.929439    2.462124    0.259045
    105          6           0      -27.440644    2.688087    0.304738
    106          6           0      -27.980956    1.294201    0.789929
    107          6           0      -26.726369    0.432368    0.631218
    108          6           0      -27.988845    3.852810    1.168789
    109          6           0      -29.230294    0.739265    0.033446
    110          6           0      -30.609041    0.779027    0.838303
    111          7           0      -24.340783   -1.411790    0.268700
    112          6           0      -25.625319   -1.907024    0.439814
    113          6           0      -25.593376   -3.345016    0.333401
    114          6           0      -24.285705   -3.587675   -0.108507
    115          6           0      -23.573071   -2.363185   -0.101041
    116          6           0      -26.832543   -4.241605    0.499574
    117          6           0      -23.344475   -4.600231   -0.477323
    118          8           0      -23.578962   -5.825362   -0.499218
    119          6           0      -21.861632   -4.038180   -0.627090
    120          6           0      -21.413390   -4.534876   -1.943335
    121          8           0      -22.031647   -4.460772   -3.010468
    122          8           0      -20.141283   -4.972453   -1.776762
    123          6           0      -19.533506   -5.700848   -2.934230
    124          1           0      -19.525077    2.351987    0.529961
    125          1           0      -25.507647    4.540516   -0.018326
    126          1           0      -27.655205   -1.497129    0.867161
    127          1           0      -19.572441   -2.513097    0.165888
    128          1           0      -18.522599    0.215377   -0.460027
    129          1           0      -17.530497   -0.388290    1.511805
    130          1           0      -18.795776   -1.643889    1.946736
    131          1           0      -19.060838    0.128799    2.272220
    132          1           0      -18.667257   -3.024434   -1.744137
    133          1           0      -18.227232   -1.331378   -1.865916
    134          1           0      -20.328675   -0.823290   -3.045256
    135          1           0      -20.807360   -2.523430   -3.054364
    136          1           0      -19.960363    5.503067   -0.308480
    137          1           0      -19.396702    4.266850    0.888042
    138          1           0      -20.174688    5.715067    1.495331
    139          1           0      -25.013763    6.415872   -1.175795
    140          1           0      -24.635769    7.802460   -0.344325
    141          1           0      -25.084291    6.400617    0.674091
    142          1           0      -27.577424    2.881898   -0.759767
    143          1           0      -28.165847    1.431341    1.855575
    144          1           0      -28.241494    4.742171    0.590570
    145          1           0      -27.219046    4.182021    1.865939
    146          1           0      -28.832096    3.464637    1.741103
    147          1           0      -29.113824   -0.279575   -0.337068
    148          1           0      -29.277921    1.346495   -0.870579
    149          1           0      -31.299898    1.144450    0.078925
    150          1           0      -30.614459    1.432580    1.710752
    151          1           0      -30.770883   -0.224355    1.230559
    152          1           0      -26.633438   -5.247584    0.869644
    153          1           0      -27.172916   -4.307826   -0.533231
    154          1           0      -27.486187   -3.840431    1.273803
    155          1           0      -21.253896   -4.404137    0.201763
    156          1           0      -18.514006   -5.992417   -2.679462
    157          1           0      -19.482517   -5.064572   -3.817979
    158          1           0      -20.207079   -6.549677   -3.043381
 ---------------------------------------------------------------------

 SCF Done:  E(RCAM-B3LYP) =  -4069.77262071     A.U. after   19 cycles

 Excitation energies and oscillator strengths:

 Excited State   1:      Singlet-A      1.6561 eV  748.63 nm  f=0.3553  <S**2>=0.000
     309 -> 315       -0.15661
     312 -> 314        0.69070
     309 <- 315       -0.10158
 This state for optimization and/or second-order correction.
 Total Energy, E(TD-HF/TD-DFT) =  -4069.71175857
 Copying the excited state density for this state as the 1-particle RhoCI density.

 Excited State   2:      Singlet-A      1.7200 eV  720.84 nm  f=0.4242  <S**2>=0.000
     310 -> 316        0.17639
     311 -> 313        0.68703
     310 <- 316        0.10598

 Excited State   3:      Singlet-A      2.2103 eV  560.94 nm  f=0.1295  <S**2>=0.000
     310 -> 313        0.65015
     311 -> 316       -0.26633

 Excited State   4:      Singlet-A      2.2759 eV  544.76 nm  f=0.0762  <S**2>=0.000
     309 -> 314        0.61915
     312 -> 315        0.32532

 Excited State   5:      Singlet-A      3.0164 eV  411.03 nm  f=0.0000  <S**2>=0.000
     312 -> 313        0.70710

 The electronic state is 1-A.
 Alpha  occ. eigenvalues --  -46.89305 -46.88921 -19.25359 -19.25011 -19.19663
 Alpha  occ. eigenvalues --  -19.19420 -19.19077 -19.19035 -19.18557 -19.17073
 Alpha  occ. eigenvalues --  -14.42469 -14.42065 -14.41629 -14.41545 -14.39726
 Alpha  occ. eigenvalues --  -14.39705 -14.39568 -14.38741 -10.39133 -10.39057
 Alpha  occ. eigenvalues --  -10.35503 -10.34969 -10.34718 -10.33533 -10.32125
 Alpha  occ. eigenvalues --  -10.31933 -10.31710 -10.31653 -10.31516 -10.31037
 Alpha  occ. eigenvalues --  -10.31005 -10.30965 -10.30874 -10.30811 -10.30558
 Alpha  occ. eigenvalues --  -10.30500 -10.30167 -10.29708 -10.29559 -10.29306
 Alpha  occ. eigenvalues --  -10.29007 -10.28835 -10.28767 -10.28760 -10.28715
 Alpha  occ. eigenvalues --  -10.28517 -10.28477 -10.28394 -10.28393 -10.28378
 Alpha  occ. eigenvalues --  -10.28276 -10.28207 -10.28108 -10.27876 -10.27857
 Alpha  occ. eigenvalues --  -10.27673 -10.27634 -10.27609 -10.27575 -10.27554
 Alpha  occ. eigenvalues --  -10.27524 -10.27299 -10.27236 -10.27196 -10.27167
 Alpha  occ. eigenvalues --  -10.27121 -10.27064 -10.27006 -10.26922 -10.26891
 Alpha  occ. eigenvalues --  -10.26788 -10.26776 -10.26741 -10.26480 -10.26392
 Alpha  occ. eigenvalues --  -10.26259 -10.26215 -10.26032 -10.25939 -10.25926
 Alpha  occ. eigenvalues --  -10.25903 -10.25590 -10.25456 -10.25201 -10.25192
 Alpha  occ. eigenvalues --  -10.23976  -3.17792  -3.17498  -1.92665  -1.92381
 Alpha  occ. eigenvalues --   -1.92270  -1.92074  -1.91968  -1.91797  -1.18630
 Alpha  occ. eigenvalues --   -1.16079  -1.10687  -1.09719  -1.08317  -1.08093
 Alpha  occ. eigenvalues --   -1.07478  -1.06676  -1.04841  -1.04838  -1.04021
 Alpha  occ. eigenvalues --   -1.03780  -1.02821  -1.02541  -1.01795  -1.00350
 Alpha  occ. eigenvalues --   -0.93582  -0.91935  -0.89346  -0.89138  -0.88972
 Alpha  occ. eigenvalues --   -0.88606  -0.88555  -0.88381  -0.87750  -0.86892
 Alpha  occ. eigenvalues --   -0.86822  -0.86648  -0.86297  -0.86084  -0.84565
 Alpha  occ. eigenvalues --   -0.84374  -0.83698  -0.83537  -0.82730  -0.82634
 Alpha  occ. eigenvalues --   -0.82350  -0.82070  -0.81727  -0.80964  -0.80517
 Alpha  occ. eigenvalues --   -0.80166  -0.78312  -0.78021  -0.77756  -0.77721
 Alpha  occ. eigenvalues --   -0.77169  -0.76488  -0.76369  -0.75998  -0.75247
 Alpha  occ. eigenvalues --   -0.75211  -0.73185  -0.73030  -0.71680  -0.71503
 Alpha  occ. eigenvalues --   -0.69636  -0.69411  -0.69010  -0.68984  -0.67606
 Alpha  occ. eigenvalues --   -0.67504  -0.66909  -0.66263  -0.66186  -0.65932
 Alpha  occ. eigenvalues --   -0.65366  -0.64929  -0.64860  -0.64663  -0.64484
 Alpha  occ. eigenvalues --   -0.63539  -0.63042  -0.62117  -0.60344  -0.59873
 Alpha  occ. eigenvalues --   -0.59624  -0.59347  -0.59150  -0.59117  -0.59044
 Alpha  occ. eigenvalues --   -0.58222  -0.58022  -0.57767  -0.57498  -0.57196
 Alpha  occ. eigenvalues --   -0.56770  -0.56505  -0.56279  -0.56120  -0.55189
 Alpha  occ. eigenvalues --   -0.55173  -0.54926  -0.54567  -0.54240  -0.53764
 Alpha  occ. eigenvalues --   -0.53665  -0.53456  -0.53441  -0.53261  -0.53028
 Alpha  occ. eigenvalues --   -0.52856  -0.52806  -0.52548  -0.52417  -0.52291
 Alpha  occ. eigenvalues --   -0.51833  -0.51663  -0.51591  -0.51497  -0.51378
 Alpha  occ. eigenvalues --   -0.51205  -0.51127  -0.51042  -0.50649  -0.50089
 Alpha  occ. eigenvalues --   -0.50046  -0.49973  -0.49893  -0.49660  -0.49532
 Alpha  occ. eigenvalues --   -0.49265  -0.49100  -0.48943  -0.48776  -0.48765
 Alpha  occ. eigenvalues --   -0.48589  -0.48346  -0.48343  -0.48247  -0.48112
 Alpha  occ. eigenvalues --   -0.47753  -0.47718  -0.47602  -0.47425  -0.47150
 Alpha  occ. eigenvalues --   -0.46922  -0.46906  -0.46791  -0.46788  -0.46544
 Alpha  occ. eigenvalues --   -0.46234  -0.46223  -0.46124  -0.46062  -0.45816
 Alpha  occ. eigenvalues --   -0.45712  -0.45458  -0.45292  -0.45185  -0.44951
 Alpha  occ. eigenvalues --   -0.44797  -0.44551  -0.44459  -0.44441  -0.43987
 Alpha  occ. eigenvalues --   -0.43940  -0.43653  -0.43476  -0.43451  -0.43414
 Alpha  occ. eigenvalues --   -0.43043  -0.42822  -0.42730  -0.42696  -0.42619
 Alpha  occ. eigenvalues --   -0.42555  -0.42277  -0.42163  -0.42119  -0.41923
 Alpha  occ. eigenvalues --   -0.41869  -0.41743  -0.41637  -0.41443  -0.41182
 Alpha  occ. eigenvalues --   -0.41072  -0.40976  -0.40762  -0.40278  -0.40093
 Alpha  occ. eigenvalues --   -0.39917  -0.39693  -0.39348  -0.39134  -0.39082
 Alpha  occ. eigenvalues --   -0.38501  -0.38195  -0.37920  -0.37404  -0.37094
 Alpha  occ. eigenvalues --   -0.36958  -0.36579  -0.36540  -0.36341  -0.36275
 Alpha  occ. eigenvalues --   -0.35860  -0.35834  -0.34690  -0.34375  -0.34136
 Alpha  occ. eigenvalues --   -0.33823  -0.32915  -0.32690  -0.31607  -0.31525
 Alpha  occ. eigenvalues --   -0.31450  -0.31171  -0.30771  -0.30609  -0.30103
 Alpha  occ. eigenvalues --   -0.29492  -0.29430  -0.29231  -0.24452  -0.24124
 Alpha  occ. eigenvalues --   -0.21316  -0.20753
 Alpha virt. eigenvalues --   -0.08946  -0.08583  -0.01791  -0.01482  -0.00199
 Alpha virt. eigenvalues --    0.00927   0.01472   0.01920   0.02355   0.02499
 Alpha virt. eigenvalues --    0.04888   0.05262   0.05409   0.06107   0.06113

 Mulliken charges:
               1
     1  Mg   0.831107
     2  C   -0.003506
     3  C   -0.022628
     4  C   -0.061399
     5  C   -0.094170
     6  N   -0.252742
     7  C   -0.054209
     8  C    0.021069
     9  C   -0.061043
    10  C    0.018200
    11  C    0.057387
    12  C    0.048945
    13  C   -0.081515
    14  H    0.000613
    15  N   -0.364185
    16  C    0.090936
    17  C   -0.170515
    18  C   -0.041465
    19  C    0.129268
    20  C    0.140602
    21  C    0.009631
    22  O   -0.229733
    23  C    0.054900
    24  N   -0.351669
    25  C    0.076926
    26  C   -0.074948
    27  C   -0.035835
    28  C    0.084636
    29  C    0.075266
    30  C    0.058351
    31  C   -0.010533
    32  N   -0.321549
    33  C    0.100469
    34  C   -0.161309
    35  C   -0.007624
    36  C    0.104587
    37  C    0.130298
    38  C    0.044988
    39  O   -0.216246
    40  C    0.039337
    41  C    0.154799
    42  O   -0.173648
    43  O   -0.300077
    44  C    0.179706
    45  H   -0.038465
    46  H   -0.005588
    47  H   -0.029178
    48  H    0.021584
    49  H    0.016310
    50  H    0.019309
    51  H    0.019360
    52  H    0.018315
    53  H    0.008909
    54  H    0.007782
    55  H    0.022212
    56  H    0.037189
    57  H    0.036384
    58  H    0.019936
    59  H    0.011623
    60  H    0.032301
    61  H    0.020480
    62  H    0.045027
    63  H    0.021388
    64  H    0.000793
    65  H    0.029702
    66  H    0.014104
    67  H    0.016462
    68  H    0.016406
    69  H   -0.002375
    70  H    0.007283
    71  H    0.010581
    72  H    0.017263
    73  H    0.008820
    74  H    0.034166
    75  H    0.049478
    76  H    0.040253
    77  H    0.029066
    78  H    0.038738
    79  H    0.042910
    80  Mg   0.820336
    81  C   -0.030339
    82  C   -0.063573
    83  C   -0.071129
    84  C   -0.075664
    85  N   -0.309268
    86  C   -0.098350
    87  C    0.032399
    88  C   -0.088971
    89  C    0.017998
    90  C    0.083153
    91  C    0.077570
    92  C   -0.047009
    93  H    0.019793
    94  N   -0.391663
    95  C    0.125446
    96  C   -0.145348
    97  C   -0.034508
    98  C    0.142966
    99  C    0.154403
   100  C   -0.013493
   101  O   -0.198126
   102  C    0.066667
   103  N   -0.314488
   104  C    0.069838
   105  C   -0.078992
   106  C    0.038579
   107  C   -0.001188
   108  C    0.080945
   109  C    0.022889
   110  C   -0.006873
   111  N   -0.284809
   112  C    0.084286
   113  C   -0.172562
   114  C    0.043290
   115  C    0.082281
   116  C    0.114719
   117  C    0.003072
   118  O   -0.216401
   119  C    0.045265
   120  C    0.197735
   121  O   -0.231858
   122  O   -0.339261
   123  C    0.180674
   124  H   -0.019392
   125  H   -0.063794
   126  H   -0.033489
   127  H    0.001489
   128  H    0.014769
   129  H    0.026246
   130  H    0.029007
   131  H    0.019935
   132  H    0.006723
   133  H   -0.007996
   134  H    0.024295
   135  H    0.048669
   136  H    0.049569
   137  H   -0.000641
   138  H    0.036233
   139  H    0.054904
   140  H    0.021102
   141  H    0.037893
   142  H    0.025849
   143  H    0.005550
   144  H    0.018950
   145  H    0.015429
   146  H    0.020811
   147  H    0.021154
   148  H   -0.000057
   149  H    0.029351
   150  H    0.015077
   151  H    0.025945
   152  H    0.027723
   153  H    0.049112
   154  H    0.018925
   155  H    0.043781
   156  H    0.041314
   157  H    0.050541
   158  H    0.054596
 Sum of Mulliken charges =  -0.00000

 Dipole moment (field-independent basis, Debye):
    X=              0.6517    Y=              4.8436    Z=              4.8543  Tot=              6.8883
 Quadrupole moment (field-independent basis, Debye-Ang):
   XX=           -381.4947   YY=           -553.5334   ZZ=           -495.7882
   XY=            -71.0307   XZ=            -44.9282   YZ=             18.3765

 Normal termination of Gaussian 16 at Thu Sep  2 16:16:56 2021.
