 Gaussian 16, Revision A.03,
 Gaussian 16:  ES64L-G16RevA.03 25-Dec-2016

 ----------------------------------------------------------
 #p cam-b3lyp/Def2SVP td=(nstates=5) density=(transition=1)
 ----------------------------------------------------------

 --------------------------------
 TDDFT excited states in gaussian
 --------------------------------
 Symbolic Z-matrix:
 Charge =  0 Multiplicity = 1

                         Standard orientation:
 ---------------------------------------------------------------------
 Center     Atomic      Atomic             Coordinates (Angstroms)
 Number     Number       Type             X           Y           Z
 ---------------------------------------------------------------------
      1         12           0      -18.278658    0.407579   -0.258523
      2          6           0      -15.925454   -1.957250    0.580454
      3          6           0      -20.393029   -0.665782    2.212253
      4          6           0      -20.570870    2.948811   -1.006395
      5          6           0      -15.939218    2.091152   -2.160840
      6          7           0      -18.000240   -1.025437    1.344672
      7          6           0      -17.044272   -2.041216    1.430742
      8          6           0      -17.294358   -2.944100    2.641333
      9          6           0      -18.767101   -2.564856    2.940027
     10          6           0      -19.087138   -1.262298    2.178421
     11          6           0      -19.752760   -3.730245    2.704591
     12          6           0      -16.323298   -2.647669    3.801304
     13          6           0      -15.733362   -3.884083    4.563535
     14          1           0      -15.432573   -3.684132    5.997576
     15          7           0      -20.189724    0.990027    0.456515
     16          6           0      -20.927832    0.373981    1.408096
     17          6           0      -22.280344    0.842739    1.456941
     18          6           0      -22.408962    1.802710    0.439726
     19          6           0      -21.003546    1.942705   -0.126081
     20          6           0      -23.370947    0.244609    2.347925
     21          6           0      -23.705851    2.597337    0.043624
     22          8           0      -24.739836    2.439688    0.741996
     23          6           0      -23.813720    3.527245   -1.240613
     24          7           0      -18.162629    2.421786   -1.183886
     25          6           0      -19.257493    3.163548   -1.480145
     26          6           0      -18.966346    4.279130   -2.450844
     27          6           0      -17.478541    4.059892   -2.800342
     28          6           0      -17.166591    2.765015   -2.045779
     29          6           0      -19.935850    4.348377   -3.677102
     30          6           0      -16.557167    5.329595   -2.472325
     31          6           0      -16.114221    6.133045   -3.700574
     32          7           0      -16.347046    0.129289   -0.768540
     33          6           0      -15.474288    0.872706   -1.593275
     34          6           0      -14.255089    0.090568   -1.836905
     35          6           0      -14.447588   -1.043484   -1.060238
     36          6           0      -15.655806   -0.887577   -0.361104
     37          6           0      -13.064904    0.404414   -2.670931
     38          6           0      -13.819138   -2.307147   -0.649512
     39          8           0      -12.847726   -2.933818   -1.103707
     40          6           0      -14.781264   -2.981478    0.408828
     41          6           0      -15.283763   -4.333326   -0.079955
     42          8           0      -15.715747   -4.616819   -1.201743
     43          8           0      -15.074913   -5.154424    0.988064
     44          6           0      -15.298480   -6.573622    0.768901
     45          1           0      -21.078502   -1.002608    2.992605
     46          1           0      -21.220716    3.740367   -1.385479
     47          1           0      -15.156714    2.566152   -2.755966
     48          1           0      -17.156183   -3.986879    2.353714
     49          1           0      -18.757980   -2.357445    4.010029
     50          1           0      -19.382051   -4.755245    2.702505
     51          1           0      -20.137849   -3.585126    1.695373
     52          1           0      -20.572281   -3.728199    3.422876
     53          1           0      -16.731857   -1.944204    4.526271
     54          1           0      -15.543359   -2.026826    3.359792
     55          1           0      -14.818190   -4.202639    4.064528
     56          1           0      -16.474453   -4.684416    4.546058
     57          1           0      -24.165559   -0.063487    1.668765
     58          1           0      -23.583962    0.923458    3.173781
     59          1           0      -22.929717   -0.674777    2.732717
     60          1           0      -23.424098    4.499463   -0.941093
     61          1           0      -24.876660    3.606894   -1.467265
     62          1           0      -23.378868    2.960090   -2.064064
     63          1           0      -19.083777    5.223763   -1.919671
     64          1           0      -17.262771    3.728302   -3.815747
     65          1           0      -19.391990    4.487906   -4.610961
     66          1           0      -20.661021    5.157622   -3.593331
     67          1           0      -20.554936    3.452305   -3.690745
     68          1           0      -15.616109    5.050135   -1.998779
     69          1           0      -17.048446    5.966758   -1.737037
     70          1           0      -16.133205    7.198083   -3.468741
     71          1           0      -16.791160    5.936875   -4.531782
     72          1           0      -15.113145    5.885852   -4.053424
     73          1           0      -13.277777    1.329592   -3.206535
     74          1           0      -12.744539   -0.486145   -3.212009
     75          1           0      -12.278798    0.689861   -1.971068
     76          1           0      -14.314384   -3.084551    1.388730
     77          1           0      -16.212362   -6.797398    0.217121
     78          1           0      -15.305060   -7.216494    1.649092
     79          1           0      -14.472483   -6.989706    0.191528
     80         12           0       18.537377    0.585571   -0.111055
     81          6           0       15.495347   -1.214209    0.034721
     82          6           0       19.491572   -1.492331   -2.465842
     83          6           0       21.604570    1.617619    0.566610
     84          6           0       17.459817    2.164237    2.884784
     85          7           0       17.426440   -1.069021   -1.187911
     86          6           0       16.250107   -1.564241   -1.056415
     87          6           0       15.910038   -2.495716   -2.238023
     88          6           0       17.363350   -2.950738   -2.769406
     89          6           0       18.196895   -1.812458   -2.046427
     90          6           0       17.835106   -4.406983   -2.378277
     91          6           0       15.139416   -1.683579   -3.404839
     92          6           0       14.066633   -2.395831   -4.290820
     93          1           0       14.260079   -3.941903   -4.507829
     94          7           0       20.285007    0.283371   -0.987067
     95          6           0       20.449868   -0.615310   -2.030304
     96          6           0       21.890804   -0.574361   -2.464213
     97          6           0       22.504499    0.394337   -1.564842
     98          6           0       21.526769    0.850328   -0.573095
     99          6           0       22.403212   -1.469369   -3.576785
    100          6           0       23.932863    0.891530   -1.601210
    101          8           0       24.422645    1.686259   -0.786765
    102          6           0       24.812001    0.439639   -2.695922
    103          7           0       19.418229    1.859119    1.499635
    104          6           0       20.723106    2.061656    1.525373
    105          6           0       21.074011    3.231343    2.548678
    106          6           0       19.652759    3.363344    3.323083
    107          6           0       18.773170    2.430189    2.495307
    108          6           0       22.315368    2.931668    3.452457
    109          6           0       19.017846    4.786475    3.455870
    110          6           0       18.963797    5.385511    4.837778
    111          7           0       16.742303    0.695326    1.128785
    112          6           0       16.509070    1.393067    2.297181
    113          6           0       15.262648    1.033113    2.832005
    114          6           0       14.851017   -0.019986    1.993355
    115          6           0       15.764183   -0.238942    0.989218
    116          6           0       14.609540    1.552742    4.012105
    117          6           0       13.746630   -0.874915    1.789400
    118          8           0       12.603646   -1.015055    2.303334
    119          6           0       14.247801   -1.881574    0.658696
    120          6           0       13.156117   -2.152922   -0.310293
    121          8           0       12.598154   -1.356156   -1.061935
    122          8           0       12.931292   -3.565723   -0.304660
    123          6           0       11.876855   -4.079214   -1.188329
    124          1           0       19.710834   -2.114087   -3.336847
    125          1           0       22.613000    1.997786    0.738964
    126          1           0       17.105840    2.712445    3.761114
    127          1           0       15.508635   -3.415009   -1.812342
    128          1           0       17.329719   -2.990018   -3.857639
    129          1           0       17.204751   -4.845464   -1.604956
    130          1           0       18.835997   -4.402736   -1.947007
    131          1           0       17.773064   -4.993054   -3.295146
    132          1           0       15.849773   -1.195683   -4.072444
    133          1           0       14.660652   -0.816907   -2.948596
    134          1           0       13.980273   -1.979654   -5.295047
    135          1           0       13.142906   -2.405025   -3.710915
    136          1           0       23.043815   -0.930466   -4.275787
    137          1           0       21.605265   -1.949060   -4.143641
    138          1           0       22.864232   -2.355541   -3.141295
    139          1           0       24.897126   -0.647320   -2.709001
    140          1           0       25.801199    0.883159   -2.582045
    141          1           0       24.511598    0.744411   -3.698408
    142          1           0       21.231808    4.189435    2.053572
    143          1           0       19.657486    2.841885    4.281379
    144          1           0       22.667543    1.913176    3.287926
    145          1           0       21.917234    3.193650    4.432950
    146          1           0       23.050932    3.706398    3.239934
    147          1           0       17.987987    4.714209    3.105503
    148          1           0       19.531491    5.475916    2.785540
    149          1           0       19.564801    4.697185    5.430523
    150          1           0       17.932593    5.320277    5.186787
    151          1           0       19.416036    6.374555    4.899747
    152          1           0       14.604726    2.638015    3.914380
    153          1           0       15.172459    1.477112    4.942475
    154          1           0       13.585103    1.182637    4.056798
    155          1           0       14.555951   -2.808269    1.143879
    156          1           0       11.733778   -5.149457   -1.037019
    157          1           0       12.238046   -4.037519   -2.216069
    158          1           0       10.936518   -3.584309   -0.947866
 ---------------------------------------------------------------------

 SCF Done:  E(RCAM-B3LYP) =  -4069.79572106     A.U. after   19 cycles

 Excitation energies and oscillator strengths:

 Excited State   1:      Singlet-A      1.7086 eV  725.67 nm  f=0.3729  <S**2>=0.000
     309 -> 316       -0.17445
     312 -> 314        0.68606
     309 <- 316       -0.10518
 This state for optimization and/or second-order correction.
 Total Energy, E(TD-HF/TD-DFT) =  -4069.73293279
 Copying the excited state density for this state as the 1-particle RhoCI density.

 Excited State   2:      Singlet-A      1.7997 eV  688.90 nm  f=0.3596  <S**2>=0.000
     310 -> 315       -0.21221
     311 -> 313        0.67492
     310 <- 315       -0.10954

 Excited State   3:      Singlet-A      2.2244 eV  557.37 nm  f=0.0807  <S**2>=0.000
     310 -> 313        0.62928
     311 -> 315        0.30800

 Excited State   4:      Singlet-A      2.2475 eV  551.66 nm  f=0.0931  <S**2>=0.000
     309 -> 314        0.62546
     312 -> 316        0.31552

 Excited State   5:      Singlet-A      3.1239 eV  396.90 nm  f=0.0000  <S**2>=0.000
     312 -> 313        0.70709

 The electronic state is 1-A.
 Alpha  occ. eigenvalues --  -46.89385 -46.89136 -19.26321 -19.23924 -19.20224
 Alpha  occ. eigenvalues --  -19.20203 -19.19651 -19.18993 -19.18441 -19.18404
 Alpha  occ. eigenvalues --  -14.42368 -14.42144 -14.42135 -14.41716 -14.40190
 Alpha  occ. eigenvalues --  -14.39965 -14.39069 -14.38559 -10.39915 -10.39276
 Alpha  occ. eigenvalues --  -10.36643 -10.35120 -10.34709 -10.34477 -10.32160
 Alpha  occ. eigenvalues --  -10.32009 -10.31554 -10.31514 -10.31146 -10.31065
 Alpha  occ. eigenvalues --  -10.31054 -10.30958 -10.30744 -10.30699 -10.30613
 Alpha  occ. eigenvalues --  -10.30442 -10.30360 -10.30303 -10.30241 -10.29636
 Alpha  occ. eigenvalues --  -10.29315 -10.28769 -10.28650 -10.28634 -10.28564
 Alpha  occ. eigenvalues --  -10.28455 -10.28439 -10.28386 -10.28377 -10.28313
 Alpha  occ. eigenvalues --  -10.28303 -10.28121 -10.28005 -10.27982 -10.27976
 Alpha  occ. eigenvalues --  -10.27930 -10.27874 -10.27825 -10.27703 -10.27672
 Alpha  occ. eigenvalues --  -10.27591 -10.27573 -10.27531 -10.27477 -10.27460
 Alpha  occ. eigenvalues --  -10.27440 -10.27257 -10.26967 -10.26950 -10.26875
 Alpha  occ. eigenvalues --  -10.26701 -10.26527 -10.26375 -10.26365 -10.26246
 Alpha  occ. eigenvalues --  -10.26226 -10.26020 -10.26018 -10.25927 -10.25901
 Alpha  occ. eigenvalues --  -10.25823 -10.25808 -10.25724 -10.25403 -10.24633
 Alpha  occ. eigenvalues --  -10.24547  -3.17838  -3.17668  -1.92742  -1.92534
 Alpha  occ. eigenvalues --   -1.92304  -1.92124  -1.92111  -1.91998  -1.16796
 Alpha  occ. eigenvalues --   -1.13949  -1.09416  -1.08584  -1.08318  -1.07710
 Alpha  occ. eigenvalues --   -1.07276  -1.06710  -1.05774  -1.05205  -1.04636
 Alpha  occ. eigenvalues --   -1.03964  -1.03481  -1.03481  -1.02112  -1.01462
 Alpha  occ. eigenvalues --   -0.92948  -0.91379  -0.89492  -0.88839  -0.88799
 Alpha  occ. eigenvalues --   -0.88654  -0.88604  -0.87890  -0.87545  -0.87366
 Alpha  occ. eigenvalues --   -0.87238  -0.86949  -0.86903  -0.86354  -0.84274
 Alpha  occ. eigenvalues --   -0.84264  -0.83968  -0.83857  -0.82717  -0.82468
 Alpha  occ. eigenvalues --   -0.82050  -0.81602  -0.81502  -0.81083  -0.80657
 Alpha  occ. eigenvalues --   -0.80151  -0.78962  -0.77898  -0.77706  -0.77440
 Alpha  occ. eigenvalues --   -0.76959  -0.76705  -0.75877  -0.75849  -0.75255
 Alpha  occ. eigenvalues --   -0.75227  -0.73215  -0.72667  -0.72247  -0.71686
 Alpha  occ. eigenvalues --   -0.69158  -0.68929  -0.68922  -0.68592  -0.67915
 Alpha  occ. eigenvalues --   -0.67844  -0.67217  -0.67213  -0.66091  -0.65917
 Alpha  occ. eigenvalues --   -0.65653  -0.65586  -0.65039  -0.64954  -0.64591
 Alpha  occ. eigenvalues --   -0.64517  -0.62647  -0.61243  -0.60530  -0.60137
 Alpha  occ. eigenvalues --   -0.59907  -0.59556  -0.59279  -0.58883  -0.58568
 Alpha  occ. eigenvalues --   -0.58338  -0.57735  -0.57688  -0.57328  -0.57195
 Alpha  occ. eigenvalues --   -0.56985  -0.55928  -0.55760  -0.55717  -0.55468
 Alpha  occ. eigenvalues --   -0.55304  -0.54977  -0.54434  -0.53787  -0.53728
 Alpha  occ. eigenvalues --   -0.53521  -0.53331  -0.53212  -0.53100  -0.52957
 Alpha  occ. eigenvalues --   -0.52759  -0.52599  -0.52560  -0.52462  -0.52234
 Alpha  occ. eigenvalues --   -0.51975  -0.51547  -0.51543  -0.51316  -0.51144
 Alpha  occ. eigenvalues --   -0.51101  -0.51059  -0.50910  -0.50829  -0.50544
 Alpha  occ. eigenvalues --   -0.50341  -0.49905  -0.49860  -0.49550  -0.49423
 Alpha  occ. eigenvalues --   -0.49288  -0.49188  -0.49017  -0.48778  -0.48657
 Alpha  occ. eigenvalues --   -0.48472  -0.48375  -0.48230  -0.48106  -0.48035
 Alpha  occ. eigenvalues --   -0.47807  -0.47804  -0.47646  -0.47605  -0.47437
 Alpha  occ. eigenvalues --   -0.47302  -0.47139  -0.47025  -0.46824  -0.46786
 Alpha  occ. eigenvalues --   -0.46538  -0.46344  -0.46292  -0.46094  -0.45967
 Alpha  occ. eigenvalues --   -0.45577  -0.45528  -0.45333  -0.45210  -0.44905
 Alpha  occ. eigenvalues --   -0.44735  -0.44393  -0.44216  -0.44083  -0.43921
 Alpha  occ. eigenvalues --   -0.43905  -0.43750  -0.43729  -0.43549  -0.43442
 Alpha  occ. eigenvalues --   -0.43328  -0.43240  -0.42981  -0.42906  -0.42596
 Alpha  occ. eigenvalues --   -0.42432  -0.42417  -0.42079  -0.41926  -0.41919
 Alpha  occ. eigenvalues --   -0.41675  -0.41575  -0.41538  -0.41158  -0.41109
 Alpha  occ. eigenvalues --   -0.41051  -0.40758  -0.40752  -0.40640  -0.40565
 Alpha  occ. eigenvalues --   -0.40282  -0.40044  -0.39675  -0.39322  -0.39018
 Alpha  occ. eigenvalues --   -0.38638  -0.38483  -0.38344  -0.38115  -0.37822
 Alpha  occ. eigenvalues --   -0.37391  -0.37341  -0.36813  -0.36439  -0.36376
 Alpha  occ. eigenvalues --   -0.36089  -0.35623  -0.34830  -0.34755  -0.34464
 Alpha  occ. eigenvalues --   -0.33891  -0.33541  -0.32993  -0.31787  -0.31546
 Alpha  occ. eigenvalues --   -0.31289  -0.31162  -0.30494  -0.30455  -0.30409
 Alpha  occ. eigenvalues --   -0.30237  -0.29794  -0.29285  -0.24160  -0.24152
 Alpha  occ. eigenvalues --   -0.21664  -0.21043
 Alpha virt. eigenvalues --   -0.08604  -0.08542  -0.02641  -0.01984  -0.00228
 Alpha virt. eigenvalues --    0.00209   0.01676   0.02019   0.02267   0.02330
 Alpha virt. eigenvalues --    0.04596   0.05028   0.05087   0.05524   0.05618

 Mulliken charges:
               1
     1  Mg  11.997959
     2  C    6.032762
     3  C    5.981593
     4  C    5.967825
     5  C    6.005087
     6  N    7.016239
     7  C    5.961296
     8  C    6.007712
     9  C    5.990505
    10  C    6.034314
    11  C    5.996821
    12  C    5.999682
    13  C    6.001438
    14  H    0.995875
    15  N    6.990228
    16  C    6.041807
    17  C    6.019396
    18  C    6.013293
    19  C    6.047989
    20  C    5.996742
    21  C    6.009789
    22  O    8.020465
    23  C    6.001317
    24  N    6.992166
    25  C    6.040838
    26  C    5.986510
    27  C    6.008868
    28  C    5.967365
    29  C    5.999388
    30  C    6.003462
    31  C    6.000874
    32  N    7.002387
    33  C    5.956414
    34  C    5.976501
    35  C    5.994464
    36  C    5.968832
    37  C    6.003707
    38  C    5.984087
    39  O    7.968023
    40  C    5.998438
    41  C    5.994721
    42  O    7.997862
    43  O    7.998298
    44  C    6.002121
    45  H    1.010181
    46  H    1.005406
    47  H    0.986084
    48  H    1.001728
    49  H    1.005954
    50  H    1.014006
    51  H    1.000896
    52  H    0.999432
    53  H    0.990572
    54  H    1.007873
    55  H    1.004983
    56  H    0.995664
    57  H    1.015521
    58  H    1.017989
    59  H    1.016797
    60  H    1.010255
    61  H    1.011341
    62  H    1.008355
    63  H    1.002178
    64  H    1.003224
    65  H    1.011095
    66  H    0.998254
    67  H    0.996854
    68  H    1.003692
    69  H    0.987883
    70  H    0.994369
    71  H    0.994202
    72  H    1.002403
    73  H    0.983342
    74  H    0.983017
    75  H    0.979606
    76  H    0.992373
    77  H    0.994879
    78  H    0.994548
    79  H    0.999584
    80  Mg  12.000016
    81  C    5.999914
    82  C    6.000139
    83  C    6.000084
    84  C    5.999883
    85  N    6.999931
    86  C    6.000289
    87  C    5.999959
    88  C    6.000113
    89  C    5.999686
    90  C    6.000044
    91  C    5.999967
    92  C    5.999983
    93  H    1.000060
    94  N    7.000143
    95  C    5.999593
    96  C    5.999740
    97  C    5.999855
    98  C    5.999638
    99  C    6.000091
   100  C    5.999864
   101  O    7.999655
   102  C    6.000135
   103  N    6.999977
   104  C    5.999681
   105  C    6.000141
   106  C    5.999910
   107  C    6.000284
   108  C    6.000044
   109  C    5.999962
   110  C    6.000001
   111  N    6.999919
   112  C    6.000363
   113  C    6.000360
   114  C    6.000046
   115  C    6.000342
   116  C    5.999909
   117  C    6.000121
   118  O    8.000570
   119  C    6.000015
   120  C    6.000062
   121  O    8.000168
   122  O    7.999966
   123  C    5.999910
   124  H    0.999923
   125  H    0.999851
   126  H    1.000032
   127  H    1.000025
   128  H    0.999961
   129  H    0.999895
   130  H    0.999954
   131  H    0.999945
   132  H    1.000070
   133  H    0.999988
   134  H    1.000086
   135  H    1.000095
   136  H    0.999757
   137  H    0.999817
   138  H    0.999722
   139  H    0.999909
   140  H    0.999750
   141  H    0.999897
   142  H    0.999908
   143  H    0.999941
   144  H    1.000011
   145  H    0.999845
   146  H    0.999919
   147  H    1.000013
   148  H    1.000075
   149  H    0.999986
   150  H    1.000005
   151  H    0.999987
   152  H    1.000211
   153  H    1.000196
   154  H    1.000262
   155  H    1.000066
   156  H    1.000093
   157  H    1.000045
   158  H    1.000231
 Sum of Mulliken charges = 624.00000

 Dipole moment (field-independent basis, Debye):
    X=            -10.0511    Y=              1.5840    Z=              3.4003  Tot=             10.7282
 Quadrupole moment (field-independent basis, Debye-Ang):
   XX=            359.0116   YY=             -2.5362   ZZ=             -0.8319
   XY=            -33.6943   XZ=            -56.9200   YZ=              0.9388

 Normal termination of Gaussian 16 at Thu Sep 23 11:02:14 2021.
