 Gaussian 16, Revision A.03,
 Gaussian 16:  ES64L-G16RevA.03 25-Dec-2016

 -----------------------------------
 #p cam-b3lyp/Def2SVP td=(nstates=5)
 -----------------------------------

 --------------------------------
 TDDFT excited states in gaussian
 --------------------------------
 Symbolic Z-matrix:
 Charge =  0 Multiplicity = 1

                         Standard orientation:
 ---------------------------------------------------------------------
 Center     Atomic      Atomic             Coordinates (Angstroms)
 Number     Number       Type             X           Y           Z
 ---------------------------------------------------------------------
      1         12           0       13.530536   -0.684373    0.121859
      2          6           0       12.056415    2.025921   -1.692938
      3          6           0       16.091702    1.429539    0.905996
      4          6           0       15.067988   -3.174794    1.342786
      5          6           0       11.488154   -2.830198   -1.713834
      6          7           0       13.911301    1.436323   -0.386386
      7          6           0       13.238781    2.379270   -1.038873
      8          6           0       13.869690    3.796942   -0.899109
      9          6           0       15.371161    3.373006   -0.570690
     10          6           0       15.108855    2.013399    0.052678
     11          6           0       16.236729    3.185254   -1.812481
     12          6           0       13.235988    4.616603    0.274905
     13          6           0       13.559219    6.113558    0.275691
     14          1           0       12.539132    7.050012    0.722709
     15          7           0       15.045694   -0.760010    1.387334
     16          6           0       15.981692    0.198550    1.588222
     17          6           0       16.891126   -0.331150    2.626985
     18          6           0       16.518456   -1.751288    2.876827
     19          6           0       15.533488   -1.962700    1.847011
     20          6           0       17.941730    0.497042    3.300838
     21          6           0       16.984798   -2.761205    3.877189
     22          8           0       16.700358   -4.003306    3.773008
     23          6           0       17.868697   -2.265698    4.947813
     24          7           0       13.476646   -2.729439   -0.293394
     25          6           0       14.199491   -3.598125    0.422053
     26          6           0       13.790426   -5.013045    0.138141
     27          6           0       12.463759   -4.920783   -0.745711
     28          6           0       12.384026   -3.381103   -0.891651
     29          6           0       14.829583   -5.876888   -0.589830
     30          6           0       11.216852   -5.677722   -0.223517
     31          6           0       10.720658   -5.031727    1.050680
     32          7           0       11.907811   -0.465247   -1.302849
     33          6           0       11.217059   -1.494407   -1.958871
     34          6           0       10.284114   -0.854225   -2.904307
     35          6           0       10.510202    0.511370   -2.743442
     36          6           0       11.538841    0.710753   -1.778849
     37          6           0        9.417421   -1.531145   -3.807112
     38          6           0       10.139347    1.847703   -3.179949
     39          8           0        9.260866    2.308872   -3.910078
     40          6           0       11.210214    2.877360   -2.606469
     41          6           0       10.454607    4.026480   -1.996641
     42          8           0        9.756739    3.862996   -0.975065
     43          8           0       10.856919    5.174054   -2.563880
     44          6           0       10.167094    6.356857   -1.983128
     45          1           0       17.056806    1.927603    1.017570
     46          1           0       15.495028   -4.060187    1.818344
     47          1           0       10.759856   -3.433408   -2.258971
     48          1           0       13.842922    4.397965   -1.808218
     49          1           0       15.832712    4.040645    0.156600
     50          1           0       15.643651    3.248178   -2.724742
     51          1           0       16.677599    2.193201   -1.712693
     52          1           0       17.072156    3.885852   -1.811873
     53          1           0       13.707889    4.324412    1.212985
     54          1           0       12.154134    4.481356    0.299920
     55          1           0       13.977271    6.431550   -0.679831
     56          1           0       14.360139    6.289654    0.993827
     57          1           0       18.088248    1.449195    2.792426
     58          1           0       18.889173   -0.026646    3.175087
     59          1           0       17.736504    0.635873    4.362412
     60          1           0       18.761535   -1.826053    4.502727
     61          1           0       18.028752   -3.108236    5.619648
     62          1           0       17.362125   -1.459371    5.479010
     63          1           0       13.568713   -5.548558    1.060364
     64          1           0       12.613432   -5.316352   -1.750597
     65          1           0       15.097823   -6.786108   -0.051248
     66          1           0       15.708034   -5.260310   -0.778102
     67          1           0       14.551050   -6.171847   -1.601183
     68          1           0       11.472831   -6.708741    0.018187
     69          1           0       10.395220   -5.699125   -0.939559
     70          1           0       11.351258   -5.484752    1.814842
     71          1           0        9.670603   -5.274835    1.216493
     72          1           0       10.919725   -3.959899    1.057288
     73          1           0        8.459777   -1.013101   -3.756926
     74          1           0        9.313089   -2.583084   -3.542267
     75          1           0        9.952090   -1.387968   -4.745987
     76          1           0       11.824558    3.192627   -3.449268
     77          1           0        9.697421    6.891861   -2.808605
     78          1           0       10.911749    6.890843   -1.392576
     79          1           0        9.301249    6.148890   -1.353524
     80         12           0      -13.559635   -0.671263   -0.178783
     81          6           0      -11.910555    2.375864    0.742367
     82          6           0      -16.459135    1.155512   -0.562609
     83          6           0      -15.146031   -3.519390   -0.394946
     84          6           0      -10.571923   -2.296875    0.485593
     85          7           0      -14.195625    1.543833    0.344812
     86          6           0      -13.291169    2.544633    0.576063
     87          6           0      -13.984322    3.921280    0.392268
     88          6           0      -15.479660    3.538584    0.027824
     89          6           0      -15.438682    1.969465   -0.062475
     90          6           0      -16.626783    3.999957    1.022026
     91          6           0      -13.352545    4.839934   -0.687427
     92          6           0      -13.154934    6.274546   -0.348465
     93          1           0      -13.913779    7.004119    0.825020
     94          7           0      -15.584487   -1.168473   -0.440047
     95          6           0      -16.633739   -0.292735   -0.717806
     96          6           0      -17.879144   -1.071618   -0.857102
     97          6           0      -17.462867   -2.456763   -0.921155
     98          6           0      -16.023107   -2.436205   -0.573098
     99          6           0      -19.261597   -0.508565   -0.991307
    100          6           0      -18.263231   -3.744660   -1.227064
    101          8           0      -17.759627   -4.839832   -1.554590
    102          6           0      -19.732695   -3.630174   -1.302193
    103          7           0      -12.951387   -2.556124    0.075180
    104          6           0      -13.864917   -3.583585   -0.011652
    105          6           0      -13.154623   -4.965387   -0.034908
    106          6           0      -11.629597   -4.514249   -0.122446
    107          6           0      -11.703336   -3.021299    0.146984
    108          6           0      -13.448531   -5.977804    1.146151
    109          6           0      -10.898004   -4.798206   -1.424746
    110          6           0       -9.738653   -5.812268   -1.331734
    111          7           0      -11.578262   -0.103436    0.290883
    112          6           0      -10.480287   -0.886243    0.558843
    113          6           0       -9.350598   -0.042465    0.970079
    114          6           0       -9.878034    1.236520    0.989601
    115          6           0      -11.226304    1.157005    0.575184
    116          6           0       -7.967999   -0.445142    1.364515
    117          6           0       -9.503955    2.582401    1.237339
    118          8           0       -8.387528    3.120454    1.485559
    119          6           0      -10.747843    3.353908    1.102103
    120          6           0      -10.974775    4.192076    2.331077
    121          8           0      -11.276310    3.777322    3.397702
    122          8           0      -10.854878    5.484352    2.027574
    123          6           0      -10.721826    6.439480    3.074728
    124          1           0      -17.422005    1.653628   -0.695050
    125          1           0      -15.529966   -4.538332   -0.487514
    126          1           0       -9.659783   -2.825499    0.767345
    127          1           0      -13.920548    4.416920    1.361673
    128          1           0      -15.730839    3.924575   -0.959657
    129          1           0      -16.313656    4.683010    1.811145
    130          1           0      -16.963588    3.104810    1.546906
    131          1           0      -17.469354    4.412472    0.466214
    132          1           0      -13.940119    4.880793   -1.605334
    133          1           0      -12.353512    4.519313   -0.981381
    134          1           0      -13.458287    6.896049   -1.191513
    135          1           0      -12.088906    6.420664   -0.176509
    136          1           0      -19.904616   -0.943076   -0.226223
    137          1           0      -19.623320   -0.819540   -1.971389
    138          1           0      -19.246529    0.579313   -1.065247
    139          1           0      -20.088584   -3.333206   -0.315607
    140          1           0      -20.090984   -4.644144   -1.478287
    141          1           0      -20.054566   -3.031404   -2.153800
    142          1           0      -13.433845   -5.416626   -0.987557
    143          1           0      -11.102809   -5.037753    0.675325
    144          1           0      -14.159019   -5.540293    1.846587
    145          1           0      -12.542886   -6.354272    1.623278
    146          1           0      -13.876559   -6.874954    0.698636
    147          1           0      -10.580801   -3.932341   -2.006091
    148          1           0      -11.619796   -5.271940   -2.089264
    149          1           0       -8.818353   -5.560702   -1.858481
    150          1           0      -10.039553   -6.680754   -1.918262
    151          1           0       -9.429573   -6.080081   -0.322267
    152          1           0       -7.714754   -1.453301    1.035267
    153          1           0       -7.904346   -0.548373    2.447651
    154          1           0       -7.311788    0.370628    1.061440
    155          1           0      -10.603254    3.999443    0.236199
    156          1           0       -9.707627    6.326928    3.460507
    157          1           0      -11.365259    6.186566    3.917551
    158          1           0      -10.817833    7.456942    2.694781
 ---------------------------------------------------------------------

 SCF Done:  E(RCAM-B3LYP) =  -4069.81064521     A.U. after   18 cycles

 Excitation energies and oscillator strengths:

 Excited State   1:      Singlet-A      1.6797 eV  738.12 nm  f=0.4337  <S**2>=0.000
     310 -> 315       -0.17514
     312 -> 314        0.68440
     310 <- 315       -0.10490
 This state for optimization and/or second-order correction.
 Total Energy, E(TD-HF/TD-DFT) =  -4069.74891641
 Copying the excited state density for this state as the 1-particle RhoCI density.

 Excited State   2:      Singlet-A      1.7207 eV  720.53 nm  f=0.3842  <S**2>=0.000
     309 -> 316        0.17606
     311 -> 313        0.68572
     309 <- 316        0.10575

 Excited State   3:      Singlet-A      2.1925 eV  565.50 nm  f=0.0920  <S**2>=0.000
     310 -> 314        0.64052
     312 -> 315        0.27813

 Excited State   4:      Singlet-A      2.2106 eV  560.85 nm  f=0.1335  <S**2>=0.000
     309 -> 313        0.64988
     311 -> 316       -0.26635

 Excited State   5:      Singlet-A      2.9694 eV  417.54 nm  f=0.0000  <S**2>=0.000
     312 -> 313        0.70705

 The electronic state is 1-A.
 Alpha  occ. eigenvalues --  -46.88840 -46.87748 -19.26225 -19.24924 -19.19577
 Alpha  occ. eigenvalues --  -19.18960 -19.18943 -19.18769 -19.18485 -19.18119
 Alpha  occ. eigenvalues --  -14.42402 -14.41984 -14.41550 -14.41403 -14.39623
 Alpha  occ. eigenvalues --  -14.39489 -14.39355 -14.38538 -10.39021 -10.38970
 Alpha  occ. eigenvalues --  -10.35402 -10.34898 -10.34626 -10.34338 -10.31632
 Alpha  occ. eigenvalues --  -10.31617 -10.31429 -10.31357 -10.30960 -10.30883
 Alpha  occ. eigenvalues --  -10.30860 -10.30522 -10.30479 -10.30460 -10.30161
 Alpha  occ. eigenvalues --  -10.30084 -10.29874 -10.29627 -10.29583 -10.29477
 Alpha  occ. eigenvalues --  -10.29226 -10.29207 -10.28698 -10.28683 -10.28679
 Alpha  occ. eigenvalues --  -10.28482 -10.28316 -10.28313 -10.28296 -10.28198
 Alpha  occ. eigenvalues --  -10.28119 -10.28068 -10.28029 -10.27745 -10.27680
 Alpha  occ. eigenvalues --  -10.27537 -10.27494 -10.27459 -10.27448 -10.27435
 Alpha  occ. eigenvalues --  -10.27407 -10.27355 -10.27119 -10.27106 -10.26985
 Alpha  occ. eigenvalues --  -10.26935 -10.26695 -10.26660 -10.26650 -10.26379
 Alpha  occ. eigenvalues --  -10.26364 -10.26189 -10.26142 -10.26136 -10.25973
 Alpha  occ. eigenvalues --  -10.25853 -10.25832 -10.25798 -10.25525 -10.25397
 Alpha  occ. eigenvalues --  -10.25376 -10.25116 -10.25113 -10.24784 -10.24741
 Alpha  occ. eigenvalues --  -10.24642  -3.17418  -3.16491  -1.92300  -1.91887
 Alpha  occ. eigenvalues --   -1.91717  -1.91373  -1.90959  -1.90802  -1.18543
 Alpha  occ. eigenvalues --   -1.16573  -1.09632  -1.08576  -1.08246  -1.08001
 Alpha  occ. eigenvalues --   -1.07170  -1.06583  -1.04760  -1.04533  -1.03713
 Alpha  occ. eigenvalues --   -1.03700  -1.03186  -1.02461  -1.02364  -1.01714
 Alpha  occ. eigenvalues --   -0.93497  -0.91923  -0.89474  -0.89138  -0.89058
 Alpha  occ. eigenvalues --   -0.88475  -0.88303  -0.88242  -0.87823  -0.87664
 Alpha  occ. eigenvalues --   -0.87625  -0.87227  -0.86815  -0.86216  -0.84933
 Alpha  occ. eigenvalues --   -0.84483  -0.83891  -0.83458  -0.82921  -0.82599
 Alpha  occ. eigenvalues --   -0.82554  -0.81996  -0.81646  -0.81533  -0.80546
 Alpha  occ. eigenvalues --   -0.80437  -0.78750  -0.78232  -0.77639  -0.77171
 Alpha  occ. eigenvalues --   -0.77088  -0.76884  -0.76290  -0.75873  -0.75134
 Alpha  occ. eigenvalues --   -0.74853  -0.73101  -0.72727  -0.71625  -0.71423
 Alpha  occ. eigenvalues --   -0.69863  -0.69330  -0.68905  -0.68824  -0.67593
 Alpha  occ. eigenvalues --   -0.67424  -0.67169  -0.66184  -0.65853  -0.65236
 Alpha  occ. eigenvalues --   -0.64848  -0.64804  -0.64779  -0.64571  -0.64403
 Alpha  occ. eigenvalues --   -0.64224  -0.62957  -0.62244  -0.60396  -0.60261
 Alpha  occ. eigenvalues --   -0.59792  -0.59755  -0.59266  -0.59064  -0.58940
 Alpha  occ. eigenvalues --   -0.58455  -0.58142  -0.57688  -0.57532  -0.57261
 Alpha  occ. eigenvalues --   -0.56420  -0.56262  -0.56040  -0.55924  -0.55472
 Alpha  occ. eigenvalues --   -0.55292  -0.55103  -0.54847  -0.54473  -0.53845
 Alpha  occ. eigenvalues --   -0.53685  -0.53360  -0.53251  -0.53178  -0.53173
 Alpha  occ. eigenvalues --   -0.52953  -0.52863  -0.52733  -0.52708  -0.52393
 Alpha  occ. eigenvalues --   -0.52335  -0.51868  -0.51579  -0.51566  -0.51512
 Alpha  occ. eigenvalues --   -0.51414  -0.51147  -0.51049  -0.50526  -0.50011
 Alpha  occ. eigenvalues --   -0.49987  -0.49962  -0.49871  -0.49815  -0.49466
 Alpha  occ. eigenvalues --   -0.49180  -0.49166  -0.49047  -0.49020  -0.48683
 Alpha  occ. eigenvalues --   -0.48543  -0.48510  -0.48416  -0.48396  -0.48265
 Alpha  occ. eigenvalues --   -0.48170  -0.47646  -0.47642  -0.47347  -0.47250
 Alpha  occ. eigenvalues --   -0.46838  -0.46750  -0.46710  -0.46505  -0.46311
 Alpha  occ. eigenvalues --   -0.46142  -0.46115  -0.46039  -0.45978  -0.45772
 Alpha  occ. eigenvalues --   -0.45730  -0.45213  -0.45157  -0.44713  -0.44528
 Alpha  occ. eigenvalues --   -0.44469  -0.44459  -0.44371  -0.44097  -0.44040
 Alpha  occ. eigenvalues --   -0.43970  -0.43572  -0.43443  -0.43374  -0.43338
 Alpha  occ. eigenvalues --   -0.42979  -0.42966  -0.42647  -0.42623  -0.42604
 Alpha  occ. eigenvalues --   -0.42540  -0.42078  -0.41962  -0.41784  -0.41655
 Alpha  occ. eigenvalues --   -0.41559  -0.41484  -0.41364  -0.41107  -0.41094
 Alpha  occ. eigenvalues --   -0.40896  -0.40821  -0.40776  -0.40526  -0.40202
 Alpha  occ. eigenvalues --   -0.40182  -0.40013  -0.39615  -0.39397  -0.39054
 Alpha  occ. eigenvalues --   -0.38424  -0.38116  -0.37839  -0.37696  -0.37274
 Alpha  occ. eigenvalues --   -0.37213  -0.36877  -0.36659  -0.36454  -0.36194
 Alpha  occ. eigenvalues --   -0.36142  -0.35781  -0.34604  -0.34238  -0.34055
 Alpha  occ. eigenvalues --   -0.33712  -0.33138  -0.32834  -0.31516  -0.31367
 Alpha  occ. eigenvalues --   -0.31298  -0.30988  -0.30698  -0.30525  -0.29978
 Alpha  occ. eigenvalues --   -0.29414  -0.29401  -0.29273  -0.24043  -0.24033
 Alpha  occ. eigenvalues --   -0.21236  -0.21080
 Alpha virt. eigenvalues --   -0.08863  -0.08726  -0.01703  -0.01402  -0.00115
 Alpha virt. eigenvalues --   -0.00010   0.01999   0.02249   0.02434   0.03176
 Alpha virt. eigenvalues --    0.04767   0.05156   0.05341   0.06187   0.06230

 Mulliken charges:
               1
     1  Mg   0.838834
     2  C   -0.002883
     3  C   -0.094072
     4  C   -0.045879
     5  C   -0.063989
     6  N   -0.256774
     7  C   -0.052445
     8  C   -0.014045
     9  C   -0.086987
    10  C    0.046335
    11  C    0.104824
    12  C    0.053462
    13  C   -0.071837
    14  H    0.036285
    15  N   -0.433129
    16  C    0.168412
    17  C   -0.177149
    18  C   -0.004025
    19  C    0.148727
    20  C    0.110187
    21  C    0.012291
    22  O   -0.249666
    23  C    0.062468
    24  N   -0.341153
    25  C    0.041210
    26  C   -0.028164
    27  C   -0.023956
    28  C    0.074865
    29  C    0.076200
    30  C    0.035136
    31  C   -0.004497
    32  N   -0.310491
    33  C    0.080439
    34  C   -0.169702
    35  C    0.008385
    36  C    0.083020
    37  C    0.127294
    38  C    0.046156
    39  O   -0.188374
    40  C   -0.005376
    41  C    0.212900
    42  O   -0.256949
    43  O   -0.304865
    44  C    0.157633
    45  H   -0.017639
    46  H   -0.016882
    47  H   -0.041561
    48  H    0.000917
    49  H   -0.004017
    50  H    0.025441
    51  H    0.016403
    52  H    0.016617
    53  H    0.011237
    54  H    0.044226
    55  H    0.017798
    56  H    0.017931
    57  H    0.005867
    58  H    0.026766
    59  H    0.039594
    60  H    0.037307
    61  H    0.035627
    62  H    0.031564
    63  H    0.016551
    64  H    0.009375
    65  H    0.023162
    66  H    0.012526
    67  H    0.004677
    68  H    0.006283
    69  H    0.004669
    70  H    0.008780
    71  H    0.018151
    72  H    0.029076
    73  H    0.047653
    74  H    0.009045
    75  H    0.045921
    76  H    0.035083
    77  H    0.042939
    78  H    0.046374
    79  H    0.053880
    80  Mg   0.831048
    81  C   -0.003518
    82  C   -0.022651
    83  C   -0.061411
    84  C   -0.094132
    85  N   -0.252784
    86  C   -0.054151
    87  C    0.021036
    88  C   -0.061005
    89  C    0.018193
    90  C    0.057407
    91  C    0.048921
    92  C   -0.081468
    93  H    0.000482
    94  N   -0.364148
    95  C    0.090873
    96  C   -0.170596
    97  C   -0.041528
    98  C    0.129217
    99  C    0.140630
   100  C    0.009562
   101  O   -0.229833
   102  C    0.054951
   103  N   -0.351641
   104  C    0.076874
   105  C   -0.074923
   106  C   -0.035803
   107  C    0.084638
   108  C    0.075291
   109  C    0.058333
   110  C   -0.010556
   111  N   -0.321598
   112  C    0.100519
   113  C   -0.161178
   114  C   -0.007561
   115  C    0.104631
   116  C    0.130295
   117  C    0.045062
   118  O   -0.215855
   119  C    0.039285
   120  C    0.154812
   121  O   -0.173696
   122  O   -0.300049
   123  C    0.179697
   124  H   -0.038575
   125  H   -0.005695
   126  H   -0.029080
   127  H    0.021577
   128  H    0.016273
   129  H    0.019263
   130  H    0.019313
   131  H    0.018229
   132  H    0.008891
   133  H    0.007901
   134  H    0.022182
   135  H    0.037296
   136  H    0.036260
   137  H    0.019837
   138  H    0.011569
   139  H    0.032238
   140  H    0.020349
   141  H    0.044976
   142  H    0.021338
   143  H    0.000775
   144  H    0.029644
   145  H    0.014063
   146  H    0.016358
   147  H    0.016530
   148  H   -0.002432
   149  H    0.007450
   150  H    0.010473
   151  H    0.017246
   152  H    0.008919
   153  H    0.034207
   154  H    0.049858
   155  H    0.040371
   156  H    0.029203
   157  H    0.038637
   158  H    0.042884
 Sum of Mulliken charges =  -0.00000

 Dipole moment (field-independent basis, Debye):
    X=              2.6860    Y=              1.9909    Z=             -1.1391  Tot=              3.5321
 Quadrupole moment (field-independent basis, Debye-Ang):
   XX=           -353.8519   YY=           -478.3695   ZZ=           -524.7981
   XY=              3.4300   XZ=             30.0203   YZ=              7.9453

 Normal termination of Gaussian 16 at Wed Sep  1 16:56:59 2021.
