 Gaussian 16, Revision A.03,
 Gaussian 16:  ES64L-G16RevA.03 25-Dec-2016

 -----------------------------------
 #p cam-b3lyp/Def2SVP td=(nstates=5)
 -----------------------------------

 --------------------------------
 TDDFT excited states in gaussian
 --------------------------------
 Symbolic Z-matrix:
 Charge =  0 Multiplicity = 1

                         Standard orientation:
 ---------------------------------------------------------------------
 Center     Atomic      Atomic             Coordinates (Angstroms)
 Number     Number       Type             X           Y           Z
 ---------------------------------------------------------------------
      1         12           0       -9.335825    0.191376    0.770385
      2          6           0       -8.798941   -2.130074   -1.832884
      3          6           0       -6.357132   -0.863441    2.247690
      4          6           0       -9.374972    3.058204    2.612706
      5          6           0      -12.054534    1.451109   -1.192153
      6          7           0       -7.826049   -1.319504    0.272055
      7          6           0       -7.797295   -2.108689   -0.822789
      8          6           0       -6.471535   -2.934920   -0.885125
      9          6           0       -5.953439   -2.753674    0.615352
     10          6           0       -6.797336   -1.549867    1.146182
     11          6           0       -6.104478   -3.892651    1.649098
     12          6           0       -5.529637   -2.305198   -1.979889
     13          6           0       -4.689657   -3.347883   -2.768506
     14          1           0       -3.194352   -2.929067   -3.075605
     15          7           0       -8.130334    0.920009    2.412598
     16          6           0       -7.000343    0.285128    2.855380
     17          6           0       -6.529763    1.024053    3.964770
     18          6           0       -7.308081    2.212598    4.094044
     19          6           0       -8.378734    2.101799    3.047449
     20          6           0       -5.331680    0.653434    4.806607
     21          6           0       -7.015810    3.382462    4.970533
     22          8           0       -5.997935    3.448438    5.640849
     23          6           0       -7.836783    4.560862    5.071547
     24          7           0      -10.518492    2.063291    0.612046
     25          6           0      -10.414050    3.012318    1.639699
     26          6           0      -11.504829    4.031145    1.527954
     27          6           0      -12.344556    3.581617    0.275468
     28          6           0      -11.630777    2.308906   -0.146374
     29          6           0      -12.295239    4.062303    2.842314
     30          6           0      -12.594354    4.734943   -0.767835
     31          6           0      -14.021179    5.049152   -1.101656
     32          7           0      -10.317554   -0.242878   -1.138124
     33          6           0      -11.417862    0.328584   -1.728627
     34          6           0      -11.831428   -0.453079   -2.914670
     35          6           0      -10.758334   -1.380341   -2.988925
     36          6           0       -9.950748   -1.263695   -1.873166
     37          6           0      -12.960095   -0.193376   -3.900086
     38          6           0      -10.173380   -2.370516   -3.853536
     39          8           0      -10.533766   -2.761234   -4.974839
     40          6           0       -8.916612   -2.930073   -3.187506
     41          6           0       -8.993719   -4.396071   -3.046047
     42          8           0       -8.202324   -5.121487   -3.529835
     43          8           0       -9.937333   -4.811021   -2.151402
     44          6           0       -9.785912   -6.253562   -1.862166
     45          1           0       -5.471649   -1.220021    2.778863
     46          1           0       -9.383313    3.905007    3.300764
     47          1           0      -12.815890    1.707034   -1.932712
     48          1           0       -6.726996   -3.964649   -1.135729
     49          1           0       -4.986886   -2.260496    0.717268
     50          1           0       -6.940501   -4.539742    1.381255
     51          1           0       -6.216733   -3.590713    2.690461
     52          1           0       -5.198273   -4.490796    1.559763
     53          1           0       -4.883226   -1.543641   -1.542748
     54          1           0       -6.209429   -1.793245   -2.661050
     55          1           0       -5.248655   -3.468396   -3.696627
     56          1           0       -4.808770   -4.251011   -2.169539
     57          1           0       -5.296363    1.076898    5.810447
     58          1           0       -4.488700    1.009390    4.214955
     59          1           0       -5.053418   -0.400352    4.822249
     60          1           0       -8.809879    4.234483    5.440737
     61          1           0       -7.898312    5.081838    4.115657
     62          1           0       -7.375952    5.241150    5.787808
     63          1           0      -11.097510    4.998258    1.234165
     64          1           0      -13.294755    3.079256    0.458063
     65          1           0      -11.783391    3.562322    3.664945
     66          1           0      -13.256316    3.556891    2.747495
     67          1           0      -12.305765    5.078494    3.235333
     68          1           0      -12.054684    4.415476   -1.659357
     69          1           0      -12.275820    5.718491   -0.424414
     70          1           0      -14.119328    4.977204   -2.184508
     71          1           0      -14.284421    6.073125   -0.835897
     72          1           0      -14.736524    4.453989   -0.533979
     73          1           0      -12.692027    0.536081   -4.664642
     74          1           0      -13.900431    0.074514   -3.416673
     75          1           0      -13.001692   -1.151104   -4.418712
     76          1           0       -8.063235   -2.804252   -3.852611
     77          1           0      -10.560074   -6.529752   -1.145805
     78          1           0       -8.794982   -6.464178   -1.460161
     79          1           0      -10.013790   -6.906791   -2.703755
     80         12           0        9.448108    0.587819   -0.471262
     81          6           0        8.669969   -2.502815    0.843441
     82          6           0        5.927704    1.037797   -0.953097
     83          6           0       10.052596    3.383836   -2.042899
     84          6           0       12.827456   -0.118824   -0.257095
     85          7           0        7.517406   -0.751406   -0.263073
     86          6           0        7.486081   -1.836873    0.491698
     87          6           0        6.038092   -2.141849    0.969098
     88          6           0        5.228809   -1.321915   -0.095663
     89          6           0        6.249218   -0.246235   -0.500995
     90          6           0        4.774984   -2.204400   -1.312420
     91          6           0        5.935981   -1.587661    2.407590
     92          6           0        4.638542   -1.892243    3.168714
     93          1           0        3.444821   -2.473941    2.438330
     94          7           0        8.260957    2.087625   -1.285618
     95          6           0        6.824824    2.084033   -1.344364
     96          6           0        6.440752    3.411045   -1.805864
     97          6           0        7.650644    4.142089   -2.021470
     98          6           0        8.749932    3.199070   -1.820698
     99          6           0        4.956959    3.913406   -1.961343
    100          6           0        7.784970    5.660302   -2.374363
    101          8           0        8.876893    6.083385   -2.638798
    102          6           0        6.578391    6.540703   -2.416980
    103          7           0       11.218723    1.554037   -0.989121
    104          6           0       11.234154    2.734053   -1.649104
    105          6           0       12.642780    3.208318   -2.004546
    106          6           0       13.522103    2.146374   -1.304470
    107          6           0       12.436938    1.106296   -0.808804
    108          6           0       12.948063    3.344246   -3.541516
    109          6           0       14.516963    2.634178   -0.282385
    110          6           0       14.111682    3.647889    0.814751
    111          7           0       10.601445   -0.954693    0.130844
    112          6           0       11.955952   -1.120590    0.180640
    113          6           0       12.206945   -2.377787    0.853178
    114          6           0       10.948974   -2.988813    1.184960
    115          6           0        9.999162   -2.052667    0.692018
    116          6           0       13.573977   -2.922411    1.127479
    117          6           0       10.286329   -4.127678    1.725876
    118          8           0       10.700608   -5.201033    2.215377
    119          6           0        8.747976   -3.920324    1.245711
    120          6           0        7.865948   -4.429861    2.386759
    121          8           0        7.933901   -4.089538    3.505611
    122          8           0        7.024689   -5.377145    1.876309
    123          6           0        5.863113   -5.747606    2.658316
    124          1           0        4.860189    1.139192   -1.157244
    125          1           0       10.312231    4.282515   -2.606331
    126          1           0       13.876146   -0.410102   -0.177350
    127          1           0        5.780193   -3.195034    0.858754
    128          1           0        4.403481   -0.905087    0.482066
    129          1           0        3.710971   -2.420563   -1.224468
    130          1           0        5.373014   -3.115853   -1.303338
    131          1           0        4.875160   -1.702802   -2.274993
    132          1           0        5.968014   -0.500693    2.337561
    133          1           0        6.821110   -1.818475    2.999565
    134          1           0        4.368697   -1.115419    3.884486
    135          1           0        4.932593   -2.641907    3.903555
    136          1           0        4.770043    4.359152   -2.938765
    137          1           0        4.795169    4.603525   -1.133453
    138          1           0        4.271759    3.087420   -1.766906
    139          1           0        7.004488    7.512570   -2.166956
    140          1           0        5.874076    6.328351   -1.613463
    141          1           0        5.869093    6.470435   -3.241591
    142          1           0       12.736661    4.185380   -1.531114
    143          1           0       14.082896    1.528787   -2.006003
    144          1           0       13.992700    3.056379   -3.656659
    145          1           0       12.804359    4.411607   -3.710699
    146          1           0       12.208837    2.797565   -4.126912
    147          1           0       15.137913    3.267491   -0.915086
    148          1           0       15.119701    1.886105    0.233674
    149          1           0       14.608735    4.616927    0.830572
    150          1           0       14.391582    3.292583    1.806447
    151          1           0       13.044302    3.854005    0.733951
    152          1           0       13.412292   -3.898653    1.583657
    153          1           0       14.078702   -2.305419    1.872112
    154          1           0       14.257484   -2.916577    0.278940
    155          1           0        8.668082   -4.489849    0.319543
    156          1           0        6.129691   -6.802980    2.599776
    157          1           0        4.920187   -5.394523    2.240253
    158          1           0        5.906247   -5.439988    3.703443
 ---------------------------------------------------------------------

 SCF Done:  E(RCAM-B3LYP) =  -4069.78045760     A.U. after   19 cycles

 Excitation energies and oscillator strengths:

 Excited State   1:      Singlet-A      1.6804 eV  737.80 nm  f=0.4149  <S**2>=0.000
     309 -> 315        0.17284
     311 -> 313        0.68688
     309 <- 315        0.10657
 This state for optimization and/or second-order correction.
 Total Energy, E(TD-HF/TD-DFT) =  -4069.71870224
 Copying the excited state density for this state as the 1-particle RhoCI density.

 Excited State   2:      Singlet-A      1.7337 eV  715.16 nm  f=0.3667  <S**2>=0.000
     310 -> 316       -0.19614
     312 -> 314        0.68074
     310 <- 316       -0.11068

 Excited State   3:      Singlet-A      2.2020 eV  563.06 nm  f=0.1148  <S**2>=0.000
     309 -> 313        0.63972
     311 -> 315       -0.28010

 Excited State   4:      Singlet-A      2.2194 eV  558.64 nm  f=0.0924  <S**2>=0.000
     310 -> 314        0.63268
     312 -> 316        0.29821

 Excited State   5:      Singlet-A      2.6155 eV  474.03 nm  f=0.0000  <S**2>=0.000
     312 -> 313        0.70696

 The electronic state is 1-A.
 Alpha  occ. eigenvalues --  -46.91015 -46.88202 -19.25270 -19.24338 -19.20209
 Alpha  occ. eigenvalues --  -19.20083 -19.19026 -19.19013 -19.18956 -19.17496
 Alpha  occ. eigenvalues --  -14.43150 -14.42886 -14.41668 -14.41665 -14.40084
 Alpha  occ. eigenvalues --  -14.39477 -14.39238 -14.39209 -10.38896 -10.38864
 Alpha  occ. eigenvalues --  -10.35205 -10.34998 -10.34943 -10.33679 -10.32433
 Alpha  occ. eigenvalues --  -10.32159 -10.32029 -10.31967 -10.31425 -10.31235
 Alpha  occ. eigenvalues --  -10.31176 -10.30645 -10.30555 -10.30529 -10.30363
 Alpha  occ. eigenvalues --  -10.30360 -10.30218 -10.30035 -10.29557 -10.29484
 Alpha  occ. eigenvalues --  -10.29263 -10.29248 -10.29244 -10.29088 -10.29030
 Alpha  occ. eigenvalues --  -10.28942 -10.28721 -10.28681 -10.28618 -10.28581
 Alpha  occ. eigenvalues --  -10.28534 -10.28388 -10.28359 -10.28343 -10.28014
 Alpha  occ. eigenvalues --  -10.27924 -10.27736 -10.27726 -10.27722 -10.27654
 Alpha  occ. eigenvalues --  -10.27638 -10.27587 -10.27538 -10.27522 -10.27518
 Alpha  occ. eigenvalues --  -10.27195 -10.27118 -10.27047 -10.26836 -10.26681
 Alpha  occ. eigenvalues --  -10.26663 -10.26592 -10.26494 -10.26406 -10.26398
 Alpha  occ. eigenvalues --  -10.26218 -10.26198 -10.26132 -10.25886 -10.25733
 Alpha  occ. eigenvalues --  -10.25680 -10.25624 -10.25455 -10.25454 -10.25214
 Alpha  occ. eigenvalues --  -10.24881  -3.19162  -3.16839  -1.94076  -1.93598
 Alpha  occ. eigenvalues --   -1.93457  -1.91739  -1.91311  -1.91129  -1.18135
 Alpha  occ. eigenvalues --   -1.17562  -1.11454  -1.09751  -1.09728  -1.09203
 Alpha  occ. eigenvalues --   -1.09123  -1.07949  -1.05293  -1.05172  -1.04016
 Alpha  occ. eigenvalues --   -1.03937  -1.03608  -1.02987  -1.02713  -1.02009
 Alpha  occ. eigenvalues --   -0.92958  -0.92807  -0.89579  -0.89321  -0.89195
 Alpha  occ. eigenvalues --   -0.88604  -0.88476  -0.88438  -0.88258  -0.87243
 Alpha  occ. eigenvalues --   -0.87188  -0.86369  -0.86004  -0.85612  -0.85059
 Alpha  occ. eigenvalues --   -0.84821  -0.84006  -0.83676  -0.82896  -0.82698
 Alpha  occ. eigenvalues --   -0.82370  -0.81693  -0.81368  -0.81102  -0.80730
 Alpha  occ. eigenvalues --   -0.80220  -0.78823  -0.77926  -0.77783  -0.77297
 Alpha  occ. eigenvalues --   -0.77039  -0.76760  -0.76695  -0.75815  -0.75616
 Alpha  occ. eigenvalues --   -0.75450  -0.73324  -0.72696  -0.72622  -0.71944
 Alpha  occ. eigenvalues --   -0.70212  -0.69544  -0.69432  -0.68822  -0.68157
 Alpha  occ. eigenvalues --   -0.68046  -0.67103  -0.66514  -0.66139  -0.65914
 Alpha  occ. eigenvalues --   -0.65175  -0.65127  -0.64862  -0.64833  -0.64240
 Alpha  occ. eigenvalues --   -0.64094  -0.63470  -0.62321  -0.60440  -0.60252
 Alpha  occ. eigenvalues --   -0.60199  -0.59591  -0.59177  -0.59101  -0.59061
 Alpha  occ. eigenvalues --   -0.58762  -0.58495  -0.58083  -0.57860  -0.57251
 Alpha  occ. eigenvalues --   -0.56680  -0.56256  -0.56176  -0.56071  -0.55738
 Alpha  occ. eigenvalues --   -0.55589  -0.55297  -0.55293  -0.54716  -0.54174
 Alpha  occ. eigenvalues --   -0.53682  -0.53581  -0.53555  -0.53460  -0.53356
 Alpha  occ. eigenvalues --   -0.53022  -0.52904  -0.52832  -0.52453  -0.52326
 Alpha  occ. eigenvalues --   -0.52241  -0.52026  -0.51965  -0.51753  -0.51637
 Alpha  occ. eigenvalues --   -0.51511  -0.51055  -0.50705  -0.50660  -0.50226
 Alpha  occ. eigenvalues --   -0.50087  -0.50018  -0.49926  -0.49748  -0.49624
 Alpha  occ. eigenvalues --   -0.49503  -0.49448  -0.49266  -0.49249  -0.49216
 Alpha  occ. eigenvalues --   -0.48789  -0.48719  -0.48574  -0.48374  -0.48170
 Alpha  occ. eigenvalues --   -0.48075  -0.47914  -0.47721  -0.47576  -0.47503
 Alpha  occ. eigenvalues --   -0.47131  -0.46970  -0.46854  -0.46787  -0.46565
 Alpha  occ. eigenvalues --   -0.46561  -0.46507  -0.46485  -0.45927  -0.45901
 Alpha  occ. eigenvalues --   -0.45772  -0.45529  -0.45316  -0.45254  -0.45153
 Alpha  occ. eigenvalues --   -0.45050  -0.44958  -0.44854  -0.44681  -0.44532
 Alpha  occ. eigenvalues --   -0.44192  -0.43797  -0.43781  -0.43514  -0.43293
 Alpha  occ. eigenvalues --   -0.43205  -0.43166  -0.43046  -0.42924  -0.42822
 Alpha  occ. eigenvalues --   -0.42802  -0.42635  -0.42470  -0.42247  -0.42031
 Alpha  occ. eigenvalues --   -0.41989  -0.41924  -0.41822  -0.41515  -0.41454
 Alpha  occ. eigenvalues --   -0.41372  -0.41199  -0.40968  -0.40933  -0.40287
 Alpha  occ. eigenvalues --   -0.40164  -0.39840  -0.39502  -0.39443  -0.39387
 Alpha  occ. eigenvalues --   -0.38850  -0.38342  -0.38124  -0.37899  -0.37807
 Alpha  occ. eigenvalues --   -0.37448  -0.37413  -0.37084  -0.37069  -0.36584
 Alpha  occ. eigenvalues --   -0.36340  -0.35792  -0.35091  -0.35081  -0.34318
 Alpha  occ. eigenvalues --   -0.33900  -0.33670  -0.33283  -0.31672  -0.31516
 Alpha  occ. eigenvalues --   -0.31144  -0.30950  -0.30564  -0.30358  -0.30184
 Alpha  occ. eigenvalues --   -0.29761  -0.29378  -0.29296  -0.24689  -0.23747
 Alpha  occ. eigenvalues --   -0.21752  -0.21033
 Alpha virt. eigenvalues --   -0.09560  -0.08373  -0.02428  -0.01825   0.00108
 Alpha virt. eigenvalues --    0.00251   0.01048   0.02253   0.02674   0.03089
 Alpha virt. eigenvalues --    0.04442   0.05229   0.05376   0.05912   0.05917

 Mulliken charges:
               1
     1  Mg   0.801299
     2  C    0.004384
     3  C   -0.071925
     4  C   -0.019832
     5  C   -0.047963
     6  N   -0.286896
     7  C   -0.055449
     8  C   -0.042445
     9  C   -0.052372
    10  C    0.058132
    11  C    0.080667
    12  C    0.048793
    13  C   -0.050170
    14  H    0.024360
    15  N   -0.365247
    16  C    0.114149
    17  C   -0.149780
    18  C   -0.022414
    19  C    0.090933
    20  C    0.140696
    21  C   -0.050315
    22  O   -0.214692
    23  C    0.079014
    24  N   -0.287424
    25  C    0.025721
    26  C   -0.009812
    27  C   -0.012893
    28  C    0.028442
    29  C    0.074361
    30  C    0.039484
    31  C   -0.004184
    32  N   -0.281412
    33  C    0.026119
    34  C   -0.154738
    35  C    0.014948
    36  C    0.076359
    37  C    0.107415
    38  C    0.020356
    39  O   -0.189733
    40  C    0.052608
    41  C    0.149312
    42  O   -0.180164
    43  O   -0.336466
    44  C    0.181832
    45  H   -0.018531
    46  H   -0.053162
    47  H   -0.026962
    48  H    0.012790
    49  H    0.008932
    50  H    0.010660
    51  H    0.025337
    52  H    0.016716
    53  H    0.017081
    54  H    0.013183
    55  H    0.043438
    56  H    0.032074
    57  H    0.047460
    58  H    0.014930
    59  H   -0.004992
    60  H    0.030273
    61  H    0.043324
    62  H    0.024903
    63  H    0.021271
    64  H    0.015356
    65  H    0.015013
    66  H    0.019138
    67  H    0.014771
    68  H    0.016861
    69  H    0.016028
    70  H    0.020748
    71  H    0.008841
    72  H    0.012893
    73  H    0.041517
    74  H    0.030114
    75  H    0.042083
    76  H    0.031233
    77  H    0.027748
    78  H    0.035835
    79  H    0.040041
    80  Mg   0.826107
    81  C   -0.012325
    82  C   -0.069228
    83  C   -0.074839
    84  C   -0.110790
    85  N   -0.226781
    86  C   -0.083312
    87  C   -0.038327
    88  C   -0.040726
    89  C    0.001591
    90  C    0.086731
    91  C    0.038171
    92  C   -0.033555
    93  H    0.029213
    94  N   -0.395530
    95  C    0.163819
    96  C   -0.170909
    97  C   -0.041623
    98  C    0.168887
    99  C    0.109723
   100  C    0.017463
   101  O   -0.181410
   102  C    0.052784
   103  N   -0.265997
   104  C   -0.012105
   105  C   -0.046940
   106  C   -0.006070
   107  C    0.066908
   108  C    0.083997
   109  C    0.038683
   110  C   -0.018415
   111  N   -0.393934
   112  C    0.127046
   113  C   -0.170539
   114  C    0.015036
   115  C    0.149484
   116  C    0.114119
   117  C    0.076120
   118  O   -0.199916
   119  C   -0.076679
   120  C    0.177508
   121  O   -0.154524
   122  O   -0.338104
   123  C    0.149898
   124  H   -0.021610
   125  H   -0.018222
   126  H   -0.032886
   127  H   -0.002389
   128  H   -0.002018
   129  H    0.017109
   130  H    0.023497
   131  H    0.018274
   132  H    0.001535
   133  H    0.042133
   134  H    0.019144
   135  H    0.015558
   136  H    0.037229
   137  H    0.036667
   138  H    0.006559
   139  H    0.032661
   140  H    0.000157
   141  H    0.047176
   142  H    0.021783
   143  H    0.003721
   144  H    0.024708
   145  H    0.025970
   146  H    0.031936
   147  H    0.004337
   148  H    0.015823
   149  H    0.010543
   150  H    0.010173
   151  H    0.020286
   152  H    0.037228
   153  H    0.019317
   154  H    0.024815
   155  H    0.054954
   156  H    0.050857
   157  H    0.045946
   158  H    0.046316
 Sum of Mulliken charges =  -0.00000

 Dipole moment (field-independent basis, Debye):
    X=             -6.7980    Y=              4.7008    Z=              0.9211  Tot=              8.3162
 Quadrupole moment (field-independent basis, Debye-Ang):
   XX=           -448.3229   YY=           -521.3652   ZZ=           -566.4657
   XY=              1.2307   XZ=            -56.1306   YZ=            -13.7666

 Normal termination of Gaussian 16 at Wed Sep  1 01:10:21 2021.
