 Gaussian 16, Revision A.03,
 Gaussian 16:  ES64L-G16RevA.03 25-Dec-2016

 -----------------------------------
 #p cam-b3lyp/Def2SVP td=(nstates=5)
 -----------------------------------

 --------------------------------
 TDDFT excited states in gaussian
 --------------------------------
 Symbolic Z-matrix:
 Charge =  0 Multiplicity = 1

                         Standard orientation:
 ---------------------------------------------------------------------
 Center     Atomic      Atomic             Coordinates (Angstroms)
 Number     Number       Type             X           Y           Z
 ---------------------------------------------------------------------
      1         12           0       -0.626746    0.045627    0.099593
      2          6           0        2.765606    0.189990    0.228469
      3          6           0       -0.695134   -3.403405    0.048896
      4          6           0       -4.033136    0.155316   -0.228797
      5          6           0       -0.669542    3.641691   -0.297116
      6          7           0        0.875374   -1.402301   -0.074740
      7          6           0        2.245796   -1.138583    0.260344
      8          6           0        2.968405   -2.392302    0.553204
      9          6           0        1.908402   -3.483519    0.075872
     10          6           0        0.584286   -2.757153   -0.005982
     11          6           0        2.281569   -4.152369   -1.340311
     12          6           0        3.544109   -2.492303    1.999282
     13          6           0        4.946155   -3.001999    2.093873
     14          1           0        5.323037   -4.184291    1.116617
     15          7           0       -2.161626   -1.426750    0.005704
     16          6           0       -1.922641   -2.768732   -0.012608
     17          6           0       -3.182885   -3.426840   -0.066605
     18          6           0       -4.226078   -2.420396   -0.060342
     19          6           0       -3.504050   -1.104785   -0.019083
     20          6           0       -3.304639   -4.959521   -0.211786
     21          6           0       -5.720879   -2.495647   -0.044422
     22          8           0       -6.537971   -1.573655   -0.146173
     23          6           0       -6.315550   -3.937187    0.180865
     24          7           0       -2.180996    1.691898   -0.332212
     25          6           0       -3.470392    1.462727   -0.311050
     26          6           0       -4.289962    2.749666   -0.242275
     27          6           0       -3.194540    3.853719   -0.264930
     28          6           0       -1.916007    3.019818   -0.319455
     29          6           0       -5.351896    2.905766   -1.445938
     30          6           0       -3.307289    4.714119    1.070068
     31          6           0       -2.985070    4.091666    2.451097
     32          7           0        0.760807    1.604383   -0.176413
     33          6           0        0.581734    2.972062   -0.263596
     34          6           0        1.927857    3.573820   -0.176260
     35          6           0        2.844309    2.586503    0.028342
     36          6           0        2.056979    1.378350    0.016905
     37          6           0        2.218579    5.010816   -0.441416
     38          6           0        4.253533    2.250475    0.230027
     39          8           0        5.248679    2.954034    0.276093
     40          6           0        4.227840    0.664044    0.356252
     41          6           0        5.009873    0.125212   -0.775007
     42          8           0        4.839938    0.329847   -1.989592
     43          8           0        5.980035   -0.649734   -0.172431
     44          6           0        6.783283   -1.450949   -1.105220
     45          1           0       -0.762300   -4.492623    0.084275
     46          1           0       -5.125017    0.119261   -0.212630
     47          1           0       -0.667232    4.732381   -0.337033
     48          1           0        3.826033   -2.371518   -0.120407
     49          1           0        1.849094   -4.250747    0.847247
     50          1           0        3.308403   -3.965626   -1.654700
     51          1           0        1.696216   -3.617133   -2.087833
     52          1           0        1.968477   -5.188514   -1.218835
     53          1           0        2.921078   -3.157805    2.596878
     54          1           0        3.505205   -1.458391    2.341939
     55          1           0        5.176011   -3.440015    3.064369
     56          1           0        5.803639   -2.335144    2.002683
     57          1           0       -3.118242   -5.538574    0.692603
     58          1           0       -2.608458   -5.170005   -1.023484
     59          1           0       -4.320871   -5.286645   -0.430657
     60          1           0       -6.180886   -4.520705   -0.729923
     61          1           0       -7.313977   -3.825747    0.603348
     62          1           0       -5.850518   -4.477381    1.005764
     63          1           0       -4.807359    2.778148    0.716381
     64          1           0       -3.282749    4.539520   -1.107594
     65          1           0       -6.331402    2.720944   -1.003451
     66          1           0       -5.163927    2.153374   -2.212569
     67          1           0       -5.458867    3.864901   -1.951005
     68          1           0       -4.259054    5.226523    1.209430
     69          1           0       -2.518795    5.449359    0.906183
     70          1           0       -2.108679    4.658898    2.764910
     71          1           0       -2.813259    3.017295    2.398758
     72          1           0       -3.779636    4.213777    3.187167
     73          1           0        3.063870    5.206104    0.217749
     74          1           0        1.371105    5.662101   -0.226789
     75          1           0        2.689114    5.068595   -1.422055
     76          1           0        4.801407    0.554274    1.276237
     77          1           0        7.539093   -1.877038   -0.444810
     78          1           0        7.272812   -0.735324   -1.765790
     79          1           0        6.225490   -2.134718   -1.745416
 ---------------------------------------------------------------------

 SCF Done:  E(RCAM-B3LYP) =  -2034.90065517     A.U. after   19 cycles

 Excitation energies and oscillator strengths:

 Excited State   1:      Singlet-A      1.6991 eV  729.71 nm  f=0.3819  <S**2>=0.000
     155 ->158        -0.18638
     156 ->157         0.68407
     155 <-158        -0.10907
 This state for optimization and/or second-order correction.
 Total Energy, E(TD-HF/TD-DFT) =  -2034.83821507
 Copying the excited state density for this state as the 1-particle RhoCI density.

 Excited State   2:      Singlet-A      2.2666 eV  547.00 nm  f=0.0453  <S**2>=0.000
     155 ->157         0.60927
     156 ->158         0.34926

 Excited State   3:      Singlet-A      3.3606 eV  368.93 nm  f=0.3732  <S**2>=0.000
     153 ->157        -0.15278
     154 ->157        -0.38843
     155 ->157        -0.25366
     156 ->158         0.50247

 Excited State   4:      Singlet-A      3.4678 eV  357.53 nm  f=0.0126  <S**2>=0.000
     152 ->157         0.55098
     152 ->158         0.10282
     152 ->159        -0.31273
     152 ->161        -0.17118
     154 ->157        -0.14787

 Excited State   5:      Singlet-A      3.5500 eV  349.26 nm  f=0.3335  <S**2>=0.000
     152 ->157         0.13880
     154 ->157         0.54924
     155 ->157        -0.21205
     156 ->158         0.31460

 The electronic state is 1-A.
 Alpha  occ. eigenvalues --  -46.89274 -19.25674 -19.20279 -19.19576 -19.19521
 Alpha  occ. eigenvalues --  -14.42315 -14.42215 -14.39525 -14.39505 -10.39542
 Alpha  occ. eigenvalues --  -10.35728 -10.35430 -10.32004 -10.31854 -10.31796
 Alpha  occ. eigenvalues --  -10.30892 -10.30358 -10.30199 -10.29917 -10.29612
 Alpha  occ. eigenvalues --  -10.29259 -10.29108 -10.28840 -10.28357 -10.28355
 Alpha  occ. eigenvalues --  -10.28153 -10.27910 -10.27863 -10.27779 -10.27607
 Alpha  occ. eigenvalues --  -10.27580 -10.27516 -10.27437 -10.27400 -10.27373
 Alpha  occ. eigenvalues --  -10.26610 -10.26513 -10.26250 -10.25871 -10.25864
 Alpha  occ. eigenvalues --  -10.25592 -10.25513 -10.24754  -3.17677  -1.92581
 Alpha  occ. eigenvalues --   -1.92122  -1.91979  -1.15985  -1.10220  -1.09628
 Alpha  occ. eigenvalues --   -1.07494  -1.05150  -1.03800  -1.02916  -1.01737
 Alpha  occ. eigenvalues --   -0.92400  -0.89123  -0.88817  -0.88030  -0.87301
 Alpha  occ. eigenvalues --   -0.86933  -0.86272  -0.84672  -0.83397  -0.82441
 Alpha  occ. eigenvalues --   -0.81561  -0.81232  -0.79989  -0.78108  -0.77381
 Alpha  occ. eigenvalues --   -0.77226  -0.75827  -0.75000  -0.72491  -0.72202
 Alpha  occ. eigenvalues --   -0.69892  -0.69286  -0.68375  -0.67457  -0.65258
 Alpha  occ. eigenvalues --   -0.65024  -0.64729  -0.64415  -0.62560  -0.60324
 Alpha  occ. eigenvalues --   -0.59443  -0.58940  -0.58801  -0.57997  -0.57507
 Alpha  occ. eigenvalues --   -0.55948  -0.55561  -0.55089  -0.54902  -0.54445
 Alpha  occ. eigenvalues --   -0.53564  -0.53215  -0.53177  -0.52418  -0.52309
 Alpha  occ. eigenvalues --   -0.52152  -0.51966  -0.51526  -0.51078  -0.50913
 Alpha  occ. eigenvalues --   -0.49879  -0.49676  -0.49358  -0.48942  -0.48607
 Alpha  occ. eigenvalues --   -0.48542  -0.48497  -0.48143  -0.47721  -0.47406
 Alpha  occ. eigenvalues --   -0.47262  -0.46869  -0.46768  -0.46162  -0.45899
 Alpha  occ. eigenvalues --   -0.45640  -0.45211  -0.44795  -0.44556  -0.43932
 Alpha  occ. eigenvalues --   -0.43485  -0.43242  -0.43010  -0.42931  -0.42792
 Alpha  occ. eigenvalues --   -0.42330  -0.42160  -0.42127  -0.41959  -0.41711
 Alpha  occ. eigenvalues --   -0.41559  -0.40765  -0.40562  -0.39814  -0.39539
 Alpha  occ. eigenvalues --   -0.37893  -0.37516  -0.37167  -0.36745  -0.36417
 Alpha  occ. eigenvalues --   -0.36283  -0.34689  -0.34231  -0.33501  -0.31242
 Alpha  occ. eigenvalues --   -0.31133  -0.31006  -0.30400  -0.29903  -0.24432
 Alpha  occ. eigenvalues --   -0.20977
 Alpha virt. eigenvalues --   -0.08508  -0.02378  -0.00264   0.01928   0.02150
 Alpha virt. eigenvalues --    0.04712   0.04918   0.05419   0.06910   0.08133
 Alpha virt. eigenvalues --    0.08533   0.09174   0.09279   0.09718   0.10028

 Mulliken charges:
               1
     1  Mg   0.798376
     2  C    0.018692
     3  C   -0.098306
     4  C   -0.026568
     5  C   -0.072670
     6  N   -0.371552
     7  C   -0.042063
     8  C   -0.004775
     9  C   -0.083361
    10  C    0.109742
    11  C    0.079494
    12  C    0.115785
    13  C   -0.087223
    14  H   -0.012873
    15  N   -0.377578
    16  C    0.154366
    17  C   -0.133049
    18  C   -0.038216
    19  C    0.104448
    20  C    0.104468
    21  C    0.019096
    22  O   -0.205629
    23  C    0.005664
    24  N   -0.192986
    25  C   -0.005904
    26  C   -0.021504
    27  C    0.004529
    28  C    0.005384
    29  C    0.043644
    30  C   -0.019992
    31  C   -0.000268
    32  N   -0.317262
    33  C    0.124295
    34  C   -0.222836
    35  C    0.035502
    36  C    0.083061
    37  C    0.127716
    38  C    0.060050
    39  O   -0.156782
    40  C   -0.043862
    41  C    0.209644
    42  O   -0.230294
    43  O   -0.341663
    44  C    0.182867
    45  H   -0.025409
    46  H   -0.002702
    47  H   -0.021285
    48  H    0.011623
    49  H    0.000554
    50  H    0.022071
    51  H    0.023899
    52  H    0.028384
    53  H    0.014416
    54  H    0.017224
    55  H    0.020357
    56  H    0.040256
    57  H    0.031535
    58  H    0.040609
    59  H   -0.006180
    60  H    0.059093
    61  H    0.025848
    62  H    0.020790
    63  H    0.023725
    64  H    0.011276
    65  H    0.021392
    66  H    0.027447
    67  H    0.019033
    68  H    0.016328
    69  H   -0.003146
    70  H    0.022478
    71  H    0.020504
    72  H    0.015719
    73  H    0.023480
    74  H    0.018836
    75  H    0.042594
    76  H    0.039245
    77  H    0.040909
    78  H    0.037737
    79  H    0.041755
 Sum of Mulliken charges =  -0.00000

 Dipole moment (field-independent basis, Debye):
    X=             -1.0989    Y=             -3.4563    Z=              2.6139  Tot=              4.4706
 Quadrupole moment (field-independent basis, Debye-Ang):
   XX=           -279.6910   YY=           -228.8955   ZZ=           -258.6159
   XY=            -25.0464   XZ=              1.4977   YZ=              0.2174

 Normal termination of Gaussian 16 at Tue Sep 14 17:20:02 2021.
