 Gaussian 16, Revision A.03,
 Gaussian 16:  ES64L-G16RevA.03 25-Dec-2016

 ---------------------------------------------------
 #p cam-b3lyp/Def2SVP td=(nstates=5) density=(CIS=1)
 ---------------------------------------------------

 --------------------------------
 TDDFT excited states in gaussian
 --------------------------------
 Symbolic Z-matrix:
 Charge =  0 Multiplicity = 1

                         Standard orientation:
 ---------------------------------------------------------------------
 Center     Atomic      Atomic             Coordinates (Angstroms)
 Number     Number       Type             X           Y           Z
 ---------------------------------------------------------------------
      1         12           0        0.692023    0.021524   -0.196965
      2          6           0       -2.823424    0.191343   -0.357245
      3          6           0        0.475593   -3.362474   -0.016926
      4          6           0        4.062191   -0.076602    0.071896
      5          6           0        0.782477    3.483027    0.064488
      6          7           0       -0.952273   -1.395856   -0.089038
      7          6           0       -2.306401   -1.113224   -0.288096
      8          6           0       -3.067803   -2.397651   -0.422582
      9          6           0       -2.082596   -3.432733    0.170498
     10          6           0       -0.740266   -2.673595    0.009729
     11          6           0       -2.278424   -3.841336    1.664648
     12          6           0       -3.544807   -2.765103   -1.878055
     13          6           0       -4.973930   -3.196159   -1.970817
     14          1           0       -5.262673   -4.440647   -2.830970
     15          7           0        2.031157   -1.487092   -0.110070
     16          6           0        1.762282   -2.865653   -0.138728
     17          6           0        2.968483   -3.592982   -0.133597
     18          6           0        4.090023   -2.636913   -0.113459
     19          6           0        3.432291   -1.362342   -0.064425
     20          6           0        3.093822   -5.083788   -0.014803
     21          6           0        5.667044   -2.828874   -0.042441
     22          8           0        6.409332   -1.875741   -0.058138
     23          6           0        6.288826   -4.218029   -0.056680
     24          7           0        2.196734    1.499166    0.146372
     25          6           0        3.513457    1.178282    0.234530
     26          6           0        4.386882    2.496395    0.499237
     27          6           0        3.358083    3.670949    0.192465
     28          6           0        2.002873    2.845669    0.129849
     29          6           0        5.016114    2.633427    1.913240
     30          6           0        3.650828    4.454637   -1.136363
     31          6           0        3.725993    5.904330   -0.898808
     32          7           0       -0.709437    1.541336   -0.103859
     33          6           0       -0.517941    2.922167   -0.107640
     34          6           0       -1.788629    3.591082   -0.175184
     35          6           0       -2.710020    2.566133   -0.245129
     36          6           0       -2.049588    1.378210   -0.229712
     37          6           0       -1.915804    5.135138   -0.247803
     38          6           0       -4.126772    2.257113   -0.307132
     39          8           0       -5.061678    3.021765   -0.214753
     40          6           0       -4.261191    0.654766   -0.360731
     41          6           0       -5.051138    0.202230    0.799036
     42          8           0       -4.746980    0.425883    2.000105
     43          8           0       -6.158570   -0.447081    0.337726
     44          6           0       -7.231328   -0.624785    1.351941
     45          1           0        0.326252   -4.439820    0.080041
     46          1           0        5.147372   -0.017801    0.176988
     47          1           0        0.823316    4.562787    0.219073
     48          1           0       -3.934905   -2.470484    0.234986
     49          1           0       -2.072846   -4.381521   -0.366255
     50          1           0       -3.320617   -3.855926    1.986257
     51          1           0       -1.693700   -3.141771    2.262541
     52          1           0       -1.827290   -4.788322    1.959851
     53          1           0       -2.852129   -3.536608   -2.213785
     54          1           0       -3.370091   -1.945906   -2.576156
     55          1           0       -5.436917   -2.292776   -2.368173
     56          1           0       -5.333890   -3.481864   -0.982519
     57          1           0        3.392659   -5.606850   -0.923476
     58          1           0        2.113126   -5.507830    0.197096
     59          1           0        3.753629   -5.488366    0.752238
     60          1           0        7.362325   -4.056295   -0.146363
     61          1           0        5.828659   -4.857037   -0.810917
     62          1           0        5.958694   -4.777333    0.819192
     63          1           0        5.268838    2.491146   -0.141460
     64          1           0        3.349016    4.348856    1.047263
     65          1           0        4.752915    1.863298    2.639057
     66          1           0        4.764867    3.574130    2.403827
     67          1           0        6.097544    2.617529    1.775163
     68          1           0        2.816961    4.297610   -1.821564
     69          1           0        4.589941    4.190399   -1.622082
     70          1           0        4.776223    6.191550   -0.841221
     71          1           0        3.174349    6.334770   -0.063787
     72          1           0        3.238914    6.429498   -1.720498
     73          1           0       -0.950576    5.555720   -0.530848
     74          1           0       -2.369683    5.542590    0.656727
     75          1           0       -2.584217    5.305162   -1.091029
     76          1           0       -4.735039    0.321887   -1.284529
     77          1           0       -8.130901   -1.024688    0.884318
     78          1           0       -7.504461    0.387721    1.649939
     79          1           0       -6.803250   -1.218522    2.160094
 ---------------------------------------------------------------------

 SCF Done:  E(RCAM-B3LYP) =  -2034.92730397     A.U. after   19 cycles

 Excitation energies and oscillator strengths:

 Excited State   1:      Singlet-A      1.7437 eV  711.02 nm  f=0.0000  <S**2>=0.000
     155 ->158         0.17854
     156 ->157         0.68460
     155 <-158         0.10700
 This state for optimization and/or second-order correction.
 Total Energy, E(TD-HF/TD-DFT) =  -2034.86322273
 Copying the excited state density for this state as the 1-particle RhoCI density.

 Excited State   2:      Singlet-A      2.2019 eV  563.09 nm  f=0.0000  <S**2>=0.000
     155 ->157         0.65402
     156 ->158        -0.24980

 Excited State   3:      Singlet-A      3.1959 eV  387.94 nm  f=0.0000  <S**2>=0.000
     153 ->157         0.22694
     154 ->157         0.65687

 Excited State   4:      Singlet-A      3.4554 eV  358.81 nm  f=0.0000  <S**2>=0.000
     153 ->157         0.63467
     154 ->157        -0.23422
     156 ->158         0.16122

 Excited State   5:      Singlet-A      3.6301 eV  341.54 nm  f=0.0000  <S**2>=0.000
     152 ->157         0.58291
     152 ->159         0.27769
     152 ->160        -0.21754

 The electronic state is 1-A.
 Alpha  occ. eigenvalues --  -46.87186 -19.25667 -19.19891 -19.19521 -19.19043
 Alpha  occ. eigenvalues --  -14.42067 -14.41507 -14.39293 -14.38560 -10.39437
 Alpha  occ. eigenvalues --  -10.36346 -10.35044 -10.32187 -10.31054 -10.30634
 Alpha  occ. eigenvalues --  -10.30626 -10.30624 -10.30442 -10.29924 -10.29103
 Alpha  occ. eigenvalues --  -10.28945 -10.28673 -10.28142 -10.28067 -10.27906
 Alpha  occ. eigenvalues --  -10.27869 -10.27771 -10.27763 -10.27647 -10.27617
 Alpha  occ. eigenvalues --  -10.27415 -10.27224 -10.26955 -10.26731 -10.26507
 Alpha  occ. eigenvalues --  -10.26357 -10.26127 -10.26092 -10.25798 -10.25717
 Alpha  occ. eigenvalues --  -10.25341 -10.24660 -10.24361  -3.15914  -1.90819
 Alpha  occ. eigenvalues --   -1.90358  -1.90239  -1.15765  -1.11713  -1.10330
 Alpha  occ. eigenvalues --   -1.06342  -1.04948  -1.03348  -1.02559  -1.01432
 Alpha  occ. eigenvalues --   -0.92586  -0.89214  -0.88668  -0.88036  -0.87035
 Alpha  occ. eigenvalues --   -0.86421  -0.85832  -0.84319  -0.83836  -0.82913
 Alpha  occ. eigenvalues --   -0.82116  -0.81199  -0.80670  -0.78240  -0.77329
 Alpha  occ. eigenvalues --   -0.76782  -0.75740  -0.74890  -0.72888  -0.70935
 Alpha  occ. eigenvalues --   -0.68615  -0.68122  -0.67597  -0.66550  -0.65521
 Alpha  occ. eigenvalues --   -0.65185  -0.64577  -0.64048  -0.61952  -0.60327
 Alpha  occ. eigenvalues --   -0.60123  -0.59255  -0.58215  -0.57696  -0.57628
 Alpha  occ. eigenvalues --   -0.56165  -0.55688  -0.55513  -0.55000  -0.53848
 Alpha  occ. eigenvalues --   -0.53563  -0.53441  -0.52632  -0.52590  -0.51892
 Alpha  occ. eigenvalues --   -0.51829  -0.51561  -0.51035  -0.50901  -0.50465
 Alpha  occ. eigenvalues --   -0.50114  -0.49809  -0.49459  -0.49416  -0.49113
 Alpha  occ. eigenvalues --   -0.48723  -0.47957  -0.47682  -0.47264  -0.46793
 Alpha  occ. eigenvalues --   -0.46652  -0.46464  -0.46152  -0.45852  -0.45779
 Alpha  occ. eigenvalues --   -0.45412  -0.45089  -0.44751  -0.44681  -0.44461
 Alpha  occ. eigenvalues --   -0.44341  -0.43405  -0.43361  -0.42925  -0.42880
 Alpha  occ. eigenvalues --   -0.42619  -0.42285  -0.41946  -0.41885  -0.41230
 Alpha  occ. eigenvalues --   -0.40955  -0.40487  -0.40079  -0.39160  -0.38847
 Alpha  occ. eigenvalues --   -0.38360  -0.37853  -0.37835  -0.36764  -0.36337
 Alpha  occ. eigenvalues --   -0.35995  -0.34251  -0.34147  -0.33160  -0.31767
 Alpha  occ. eigenvalues --   -0.31277  -0.30864  -0.29990  -0.29567  -0.23974
 Alpha  occ. eigenvalues --   -0.21533
 Alpha virt. eigenvalues --   -0.09017  -0.01274   0.00733   0.02788   0.03442
 Alpha virt. eigenvalues --    0.04502   0.05401   0.06126   0.06932   0.07904
 Alpha virt. eigenvalues --    0.08689   0.08949   0.09232   0.09572   0.10411

 Mulliken charges:
               1
     1  Mg   0.825883
     2  C   -0.065706
     3  C   -0.138487
     4  C   -0.105335
     5  C   -0.103095
     6  N   -0.311043
     7  C    0.043092
     8  C   -0.039020
     9  C   -0.077885
    10  C    0.049809
    11  C    0.068553
    12  C    0.089035
    13  C   -0.063927
    14  H    0.014867
    15  N   -0.441913
    16  C    0.241033
    17  C   -0.153869
    18  C   -0.068480
    19  C    0.166786
    20  C    0.086872
    21  C    0.020625
    22  O   -0.189400
    23  C    0.052749
    24  N   -0.341928
    25  C    0.085329
    26  C   -0.060379
    27  C   -0.032731
    28  C    0.104760
    29  C    0.055833
    30  C    0.076486
    31  C   -0.018140
    32  N   -0.358241
    33  C    0.161726
    34  C   -0.185771
    35  C    0.055342
    36  C    0.139797
    37  C    0.135226
    38  C    0.017777
    39  O   -0.160205
    40  C    0.028881
    41  C    0.209622
    42  O   -0.255113
    43  O   -0.341525
    44  C    0.182439
    45  H   -0.036945
    46  H   -0.006969
    47  H   -0.029324
    48  H    0.007380
    49  H    0.000157
    50  H    0.022924
    51  H    0.022133
    52  H    0.010844
    53  H    0.006216
    54  H    0.005148
    55  H    0.042998
    56  H    0.032466
    57  H    0.026962
    58  H   -0.000799
    59  H    0.022500
    60  H    0.045039
    61  H    0.025011
    62  H    0.027386
    63  H    0.012597
    64  H    0.016630
    65  H    0.022398
    66  H    0.008675
    67  H    0.015579
    68  H    0.011093
    69  H    0.012862
    70  H    0.016523
    71  H    0.008705
    72  H    0.004078
    73  H    0.010866
    74  H    0.044418
    75  H    0.027142
    76  H    0.026450
    77  H    0.041799
    78  H    0.046533
    79  H    0.050199
 Sum of Mulliken charges =  -0.00000

 Dipole moment (field-independent basis, Debye):
    X=             -0.4717    Y=             -1.7191    Z=             -1.0554  Tot=              2.0716
 Quadrupole moment (field-independent basis, Debye-Ang):
   XX=           -266.4584   YY=           -226.5613   ZZ=           -260.7273
   XY=             24.7277   XZ=              1.7073   YZ=             -4.8738

 Normal termination of Gaussian 16 at Fri Oct  8 18:12:59 2021.
