 Gaussian 16, Revision A.03,
 Gaussian 16:  ES64L-G16RevA.03 25-Dec-2016

 -----------------------------------
 #p cam-b3lyp/Def2SVP td=(nstates=5)
 -----------------------------------

 --------------------------------
 TDDFT excited states in gaussian
 --------------------------------
 Symbolic Z-matrix:
 Charge =  0 Multiplicity = 1

                         Standard orientation:
 ---------------------------------------------------------------------
 Center     Atomic      Atomic             Coordinates (Angstroms)
 Number     Number       Type             X           Y           Z
 ---------------------------------------------------------------------
      1         12           0      -31.709693   -0.183420   -0.289419
      2          6           0      -28.782833    1.535860   -0.029484
      3          6           0      -30.041288   -2.941750    0.990145
      4          6           0      -34.674951   -1.754965   -0.188986
      5          6           0      -33.433885    2.816587   -0.931987
      6          7           0      -29.690557   -0.559000    0.645464
      7          6           0      -28.674453    0.323859    0.571528
      8          6           0      -27.444648   -0.165628    1.244848
      9          6           0      -27.772074   -1.785792    1.225808
     10          6           0      -29.286975   -1.800255    0.931884
     11          6           0      -26.894040   -2.568168    0.205054
     12          6           0      -27.373456    0.396539    2.655756
     13          6           0      -28.601363    0.163522    3.652593
     14          1           0      -28.352271   -0.156282    5.121292
     15          7           0      -32.287363   -2.069506    0.310974
     16          6           0      -31.424583   -3.129925    0.687004
     17          6           0      -32.217214   -4.312611    0.743028
     18          6           0      -33.548094   -4.024548    0.467122
     19          6           0      -33.586725   -2.590609    0.134098
     20          6           0      -31.527712   -5.615270    1.094389
     21          6           0      -34.731047   -4.958374    0.561039
     22          8           0      -34.468587   -6.133627    0.918965
     23          6           0      -36.103442   -4.584153    0.486692
     24          7           0      -33.782919    0.512438   -0.317111
     25          6           0      -34.822463   -0.370526   -0.322552
     26          6           0      -36.177935    0.359619   -0.478395
     27          6           0      -35.738173    1.843504   -0.716470
     28          6           0      -34.228433    1.746661   -0.576085
     29          6           0      -37.050389   -0.213283   -1.574826
     30          6           0      -36.438046    2.841289    0.352240
     31          6           0      -36.932278    4.159565   -0.254279
     32          7           0      -31.268017    1.860946   -0.476513
     33          6           0      -31.991952    2.917751   -0.927869
     34          6           0      -31.057354    3.970490   -1.219656
     35          6           0      -29.727076    3.506145   -0.932883
     36          6           0      -29.930988    2.221068   -0.458074
     37          6           0      -31.418816    5.389410   -1.497646
     38          6           0      -28.333593    3.799570   -0.832130
     39          8           0      -27.817441    4.872135   -1.170582
     40          6           0      -27.683321    2.541261   -0.287452
     41          6           0      -26.669363    2.073464   -1.263592
     42          8           0      -25.772057    2.824283   -1.592348
     43          8           0      -26.803305    0.772425   -1.641661
     44          6           0      -25.794059    0.292296   -2.587607
     45          1           0      -29.471655   -3.863746    1.123051
     46          1           0      -35.583233   -2.329466   -0.381559
     47          1           0      -33.870334    3.745874   -1.304857
     48          1           0      -26.481413    0.066834    0.790599
     49          1           0      -27.453080   -2.257365    2.156215
     50          1           0      -26.324341   -3.340995    0.719785
     51          1           0      -26.183262   -1.853673   -0.210996
     52          1           0      -27.445076   -3.008485   -0.626973
     53          1           0      -27.116051    1.451950    2.564248
     54          1           0      -26.420271    0.002936    3.008560
     55          1           0      -29.286499   -0.639235    3.379751
     56          1           0      -29.076252    1.144170    3.644702
     57          1           0      -31.501359   -5.642796    2.183885
     58          1           0      -30.501279   -5.579695    0.731467
     59          1           0      -31.986470   -6.526183    0.708669
     60          1           0      -36.736311   -5.244504    1.080418
     61          1           0      -36.461040   -4.434961   -0.532930
     62          1           0      -36.163026   -3.649169    1.042135
     63          1           0      -36.633732    0.242046    0.505347
     64          1           0      -35.920695    2.112203   -1.756766
     65          1           0      -36.652980   -1.120169   -2.029814
     66          1           0      -37.445131    0.416825   -2.371391
     67          1           0      -37.883817   -0.635462   -1.012582
     68          1           0      -35.792056    3.119602    1.184976
     69          1           0      -37.266495    2.364342    0.875669
     70          1           0      -38.020612    4.124218   -0.294805
     71          1           0      -36.600418    4.201481   -1.291905
     72          1           0      -36.616256    5.034687    0.313729
     73          1           0      -31.906172    5.608539   -2.446918
     74          1           0      -30.481872    5.941707   -1.416246
     75          1           0      -32.118003    5.786452   -0.761635
     76          1           0      -27.183906    2.835114    0.636231
     77          1           0      -24.814823    0.438108   -2.130702
     78          1           0      -25.868845    0.752656   -3.572915
     79          1           0      -25.987874   -0.744429   -2.862423
     80         12           0       31.644766    0.392825   -0.534143
     81          6           0       29.166202   -1.781674    0.557331
     82          6           0       30.229228    2.916283    1.512065
     83          6           0       34.523506    2.086751   -0.621472
     84          6           0       33.285024   -2.388904   -1.948429
     85          7           0       30.038932    0.427079    1.189868
     86          6           0       29.046486   -0.523313    1.201726
     87          6           0       27.926490   -0.136032    2.115617
     88          6           0       28.128244    1.445658    2.215281
     89          6           0       29.571533    1.657227    1.635681
     90          6           0       27.029609    2.346099    1.454437
     91          6           0       27.977630   -1.001908    3.477631
     92          6           0       26.705344   -1.159445    4.142977
     93          1           0       26.714541   -0.692073    5.613890
     94          7           0       32.248011    2.300666    0.152980
     95          6           0       31.512382    3.195178    0.979853
     96          6           0       32.316527    4.393385    1.151145
     97          6           0       33.571133    4.199826    0.523544
     98          6           0       33.461770    2.838690   -0.101007
     99          6           0       31.880284    5.516318    2.016490
    100          6           0       34.769034    5.237646    0.580979
    101          8           0       34.570668    6.281895    1.199999
    102          6           0       35.984134    5.121584   -0.332879
    103          7           0       33.604613   -0.159716   -1.103637
    104          6           0       34.567225    0.796038   -1.145747
    105          6           0       36.033988    0.205170   -1.626280
    106          6           0       35.566720   -1.191162   -2.261506
    107          6           0       34.078671   -1.295708   -1.800040
    108          6           0       36.807257    1.070075   -2.692404
    109          6           0       36.391345   -2.381783   -1.768716
    110          6           0       37.162791   -3.279528   -2.765591
    111          7           0       31.179548   -1.581355   -0.921471
    112          6           0       31.918178   -2.556689   -1.526072
    113          6           0       31.111995   -3.737881   -1.666423
    114          6           0       30.009006   -3.457653   -0.774925
    115          6           0       30.153625   -2.132617   -0.329617
    116          6           0       31.522829   -5.028327   -2.314662
    117          6           0       28.857735   -4.060197   -0.135910
    118          8           0       28.312789   -5.098500   -0.358062
    119          6           0       28.166583   -2.962360    0.763166
    120          6           0       26.758469   -2.535400    0.293320
    121          8           0       26.480102   -2.208401   -0.840324
    122          8           0       25.841339   -2.683297    1.354242
    123          6           0       24.456929   -2.495884    1.040795
    124          1           0       29.706182    3.670164    2.102809
    125          1           0       35.530004    2.482727   -0.472218
    126          1           0       33.822772   -3.216675   -2.414348
    127          1           0       26.955626   -0.168942    1.620124
    128          1           0       28.127200    1.718439    3.271213
    129          1           0       26.577349    2.959945    2.233277
    130          1           0       26.279578    1.750922    0.934472
    131          1           0       27.583427    2.977431    0.758991
    132          1           0       28.640168   -0.419986    4.118124
    133          1           0       28.498108   -1.896154    3.133748
    134          1           0       26.469416   -2.221707    4.091964
    135          1           0       25.946475   -0.554468    3.646847
    136          1           0       30.824420    5.438239    2.275026
    137          1           0       31.950361    6.456473    1.468837
    138          1           0       32.440391    5.536560    2.951649
    139          1           0       36.606486    4.249894   -0.128112
    140          1           0       36.561959    6.040052   -0.224655
    141          1           0       35.614903    5.095067   -1.358157
    142          1           0       36.554476    0.039951   -0.683335
    143          1           0       35.477405   -1.194638   -3.348054
    144          1           0       37.711071    1.482577   -2.244948
    145          1           0       36.171186    1.892007   -3.023131
    146          1           0       37.054016    0.399674   -3.516375
    147          1           0       35.811787   -3.025573   -1.107480
    148          1           0       37.150327   -2.134047   -1.026816
    149          1           0       36.799962   -4.297273   -2.911849
    150          1           0       38.155912   -3.390143   -2.329520
    151          1           0       37.209159   -2.822913   -3.754986
    152          1           0       30.608153   -5.583484   -2.524144
    153          1           0       31.941336   -5.772787   -1.638097
    154          1           0       32.200821   -4.924196   -3.161355
    155          1           0       28.071321   -3.464654    1.726240
    156          1           0       24.083277   -2.172056    2.012738
    157          1           0       23.946165   -3.442144    0.863294
    158          1           0       24.337159   -1.820768    0.194407
 ---------------------------------------------------------------------

 SCF Done:  E(RCAM-B3LYP) =  -4069.78074615     A.U. after   18 cycles

 Excitation energies and oscillator strengths:

 Excited State   1:      Singlet-A      1.6846 eV  736.01 nm  f=0.3877  <S**2>=0.000
     309 -> 316       -0.17410
     312 -> 314        0.68817
     309 <- 316       -0.10834
 This state for optimization and/or second-order correction.
 Total Energy, E(TD-HF/TD-DFT) =  -4069.71884000
 Copying the excited state density for this state as the 1-particle RhoCI density.

 Excited State   2:      Singlet-A      1.7418 eV  711.81 nm  f=0.3932  <S**2>=0.000
     310 -> 315        0.17693
     311 -> 313        0.68527
     310 <- 315        0.10391

 Excited State   3:      Singlet-A      2.2176 eV  559.10 nm  f=0.1300  <S**2>=0.000
     310 -> 313        0.65047
     311 -> 315       -0.25334

 Excited State   4:      Singlet-A      2.2457 eV  552.09 nm  f=0.1072  <S**2>=0.000
     309 -> 314        0.63690
     312 -> 316        0.29189

 Excited State   5:      Singlet-A      3.1230 eV  397.00 nm  f=0.0000  <S**2>=0.000
     312 -> 313        0.70711

 The electronic state is 1-A.
 Alpha  occ. eigenvalues --  -46.89800 -46.89116 -19.26400 -19.25131 -19.20743
 Alpha  occ. eigenvalues --  -19.19695 -19.19485 -19.18285 -19.18258 -19.18169
 Alpha  occ. eigenvalues --  -14.42311 -14.42086 -14.42068 -14.42011 -14.40197
 Alpha  occ. eigenvalues --  -14.39796 -14.39080 -14.38612 -10.40082 -10.39474
 Alpha  occ. eigenvalues --  -10.36379 -10.34843 -10.34456 -10.34019 -10.32750
 Alpha  occ. eigenvalues --  -10.31810 -10.31686 -10.31620 -10.31457 -10.31225
 Alpha  occ. eigenvalues --  -10.31194 -10.31187 -10.30968 -10.30559 -10.30527
 Alpha  occ. eigenvalues --  -10.30475 -10.30394 -10.30218 -10.29653 -10.29280
 Alpha  occ. eigenvalues --  -10.29207 -10.29053 -10.28649 -10.28567 -10.28508
 Alpha  occ. eigenvalues --  -10.28508 -10.28479 -10.28465 -10.28382 -10.28349
 Alpha  occ. eigenvalues --  -10.28285 -10.28221 -10.28215 -10.28163 -10.28134
 Alpha  occ. eigenvalues --  -10.28116 -10.28029 -10.27810 -10.27738 -10.27650
 Alpha  occ. eigenvalues --  -10.27618 -10.27406 -10.27367 -10.27300 -10.27236
 Alpha  occ. eigenvalues --  -10.27182 -10.27040 -10.27002 -10.26865 -10.26779
 Alpha  occ. eigenvalues --  -10.26694 -10.26552 -10.26474 -10.26438 -10.26431
 Alpha  occ. eigenvalues --  -10.26396 -10.26347 -10.26290 -10.25859 -10.25696
 Alpha  occ. eigenvalues --  -10.25624 -10.25561 -10.25458 -10.24978 -10.24631
 Alpha  occ. eigenvalues --  -10.24558  -3.18218  -3.17568  -1.93067  -1.92727
 Alpha  occ. eigenvalues --   -1.92485  -1.92445  -1.92043  -1.91851  -1.17424
 Alpha  occ. eigenvalues --   -1.16080  -1.10795  -1.10291  -1.09060  -1.08736
 Alpha  occ. eigenvalues --   -1.08405  -1.08000  -1.04991  -1.04912  -1.04550
 Alpha  occ. eigenvalues --   -1.02914  -1.02738  -1.02384  -1.01596  -1.01523
 Alpha  occ. eigenvalues --   -0.94079  -0.92244  -0.89289  -0.89216  -0.89053
 Alpha  occ. eigenvalues --   -0.88757  -0.88371  -0.88185  -0.87799  -0.86874
 Alpha  occ. eigenvalues --   -0.86428  -0.86334  -0.85853  -0.85814  -0.85108
 Alpha  occ. eigenvalues --   -0.84137  -0.84092  -0.83370  -0.83360  -0.82811
 Alpha  occ. eigenvalues --   -0.82700  -0.82233  -0.81466  -0.81149  -0.80907
 Alpha  occ. eigenvalues --   -0.80254  -0.78633  -0.78000  -0.77836  -0.77332
 Alpha  occ. eigenvalues --   -0.77068  -0.76764  -0.76172  -0.76125  -0.74966
 Alpha  occ. eigenvalues --   -0.74935  -0.72662  -0.72521  -0.72133  -0.71346
 Alpha  occ. eigenvalues --   -0.70157  -0.69242  -0.69131  -0.68853  -0.68438
 Alpha  occ. eigenvalues --   -0.67455  -0.67138  -0.66568  -0.66507  -0.65920
 Alpha  occ. eigenvalues --   -0.65345  -0.65224  -0.64815  -0.64505  -0.64399
 Alpha  occ. eigenvalues --   -0.64095  -0.63834  -0.62822  -0.60250  -0.59743
 Alpha  occ. eigenvalues --   -0.59651  -0.59479  -0.59348  -0.58994  -0.58835
 Alpha  occ. eigenvalues --   -0.58567  -0.58395  -0.58030  -0.58009  -0.57466
 Alpha  occ. eigenvalues --   -0.56851  -0.56595  -0.56332  -0.55813  -0.55333
 Alpha  occ. eigenvalues --   -0.55168  -0.54967  -0.54834  -0.54528  -0.54260
 Alpha  occ. eigenvalues --   -0.54007  -0.53763  -0.53492  -0.53246  -0.53082
 Alpha  occ. eigenvalues --   -0.52722  -0.52599  -0.52493  -0.52449  -0.52093
 Alpha  occ. eigenvalues --   -0.51897  -0.51834  -0.51737  -0.51642  -0.51441
 Alpha  occ. eigenvalues --   -0.51088  -0.51042  -0.50928  -0.50799  -0.50340
 Alpha  occ. eigenvalues --   -0.50203  -0.50086  -0.49705  -0.49615  -0.49608
 Alpha  occ. eigenvalues --   -0.49478  -0.49218  -0.49150  -0.49126  -0.48763
 Alpha  occ. eigenvalues --   -0.48761  -0.48694  -0.48484  -0.48451  -0.48167
 Alpha  occ. eigenvalues --   -0.48015  -0.47893  -0.47636  -0.47307  -0.47105
 Alpha  occ. eigenvalues --   -0.47027  -0.46952  -0.46733  -0.46437  -0.46423
 Alpha  occ. eigenvalues --   -0.46415  -0.46171  -0.46061  -0.45923  -0.45745
 Alpha  occ. eigenvalues --   -0.45678  -0.45649  -0.45241  -0.45238  -0.44958
 Alpha  occ. eigenvalues --   -0.44867  -0.44765  -0.44666  -0.44628  -0.44548
 Alpha  occ. eigenvalues --   -0.44511  -0.44076  -0.43967  -0.43741  -0.43556
 Alpha  occ. eigenvalues --   -0.43533  -0.43383  -0.43111  -0.42820  -0.42712
 Alpha  occ. eigenvalues --   -0.42682  -0.42495  -0.42448  -0.42313  -0.42254
 Alpha  occ. eigenvalues --   -0.42195  -0.41913  -0.41792  -0.41428  -0.41282
 Alpha  occ. eigenvalues --   -0.41159  -0.41076  -0.40976  -0.40968  -0.40489
 Alpha  occ. eigenvalues --   -0.40462  -0.39804  -0.39536  -0.39202  -0.38687
 Alpha  occ. eigenvalues --   -0.38653  -0.38185  -0.37838  -0.37728  -0.37701
 Alpha  occ. eigenvalues --   -0.37527  -0.37068  -0.36896  -0.36694  -0.36230
 Alpha  occ. eigenvalues --   -0.35976  -0.35607  -0.34787  -0.34702  -0.34263
 Alpha  occ. eigenvalues --   -0.34001  -0.33280  -0.33113  -0.31787  -0.31584
 Alpha  occ. eigenvalues --   -0.31253  -0.30886  -0.30450  -0.30218  -0.30107
 Alpha  occ. eigenvalues --   -0.29969  -0.29174  -0.28995  -0.24317  -0.24304
 Alpha  occ. eigenvalues --   -0.21674  -0.21170
 Alpha virt. eigenvalues --   -0.09147  -0.08784  -0.01889  -0.01649   0.00143
 Alpha virt. eigenvalues --    0.00391   0.01332   0.01335   0.02008   0.02163
 Alpha virt. eigenvalues --    0.04571   0.04669   0.04981   0.05504   0.05832

 Mulliken charges:
               1
     1  Mg   0.798075
     2  C    0.012030
     3  C   -0.057741
     4  C   -0.074870
     5  C   -0.069392
     6  N   -0.239874
     7  C   -0.031596
     8  C   -0.030195
     9  C   -0.077654
    10  C    0.066869
    11  C    0.065549
    12  C    0.047151
    13  C   -0.074956
    14  H    0.019470
    15  N   -0.433551
    16  C    0.129025
    17  C   -0.132411
    18  C   -0.006655
    19  C    0.148031
    20  C    0.133177
    21  C   -0.016204
    22  O   -0.242238
    23  C    0.084005
    24  N   -0.253724
    25  C    0.012186
    26  C   -0.005321
    27  C   -0.034253
    28  C    0.078937
    29  C    0.065243
    30  C    0.032749
    31  C   -0.000108
    32  N   -0.354093
    33  C    0.076903
    34  C   -0.160967
    35  C    0.052230
    36  C    0.082301
    37  C    0.092186
    38  C   -0.004218
    39  O   -0.166194
    40  C   -0.005029
    41  C    0.184393
    42  O   -0.197398
    43  O   -0.322811
    44  C    0.181841
    45  H   -0.028830
    46  H   -0.058549
    47  H   -0.033101
    48  H   -0.003173
    49  H    0.010751
    50  H    0.015791
    51  H    0.005781
    52  H    0.017975
    53  H    0.000149
    54  H    0.007556
    55  H    0.057196
    56  H    0.043831
    57  H    0.028984
    58  H    0.009142
    59  H    0.039466
    60  H    0.033972
    61  H    0.054623
    62  H    0.027247
    63  H    0.023318
    64  H    0.016282
    65  H    0.015922
    66  H    0.029070
    67  H    0.005117
    68  H    0.011789
    69  H    0.004200
    70  H    0.012592
    71  H    0.012483
    72  H    0.025002
    73  H    0.015367
    74  H    0.034397
    75  H    0.015780
    76  H    0.059734
    77  H    0.045673
    78  H    0.040610
    79  H    0.032960
    80  Mg   0.828002
    81  C   -0.072418
    82  C   -0.057794
    83  C   -0.081631
    84  C   -0.081433
    85  N   -0.265416
    86  C   -0.081289
    87  C   -0.050671
    88  C   -0.081859
    89  C    0.007710
    90  C    0.060795
    91  C    0.092470
    92  C   -0.035254
    93  H    0.002940
    94  N   -0.385509
    95  C    0.158081
    96  C   -0.142457
    97  C   -0.067447
    98  C    0.178880
    99  C    0.144041
   100  C    0.031884
   101  O   -0.206487
   102  C    0.035041
   103  N   -0.335714
   104  C    0.049459
   105  C   -0.075299
   106  C    0.031382
   107  C    0.005884
   108  C    0.071061
   109  C    0.013957
   110  C   -0.000423
   111  N   -0.323374
   112  C    0.132912
   113  C   -0.155261
   114  C   -0.032971
   115  C    0.194981
   116  C    0.109652
   117  C    0.027402
   118  O   -0.144003
   119  C   -0.010151
   120  C    0.212585
   121  O   -0.191222
   122  O   -0.358188
   123  C    0.169350
   124  H   -0.013823
   125  H   -0.041831
   126  H   -0.032967
   127  H    0.008081
   128  H    0.010255
   129  H    0.021962
   130  H    0.030849
   131  H    0.021832
   132  H    0.012239
   133  H    0.014208
   134  H    0.040370
   135  H    0.028158
   136  H   -0.012253
   137  H    0.032712
   138  H    0.042222
   139  H    0.049847
   140  H    0.031281
   141  H    0.045629
   142  H    0.029951
   143  H    0.018154
   144  H    0.017703
   145  H    0.025639
   146  H    0.023969
   147  H    0.007632
   148  H   -0.005481
   149  H    0.018753
   150  H    0.012238
   151  H    0.011897
   152  H    0.026179
   153  H    0.020805
   154  H    0.022576
   155  H    0.044397
   156  H    0.028350
   157  H    0.035827
   158  H    0.050442
 Sum of Mulliken charges =  -0.00000

 Dipole moment (field-independent basis, Debye):
    X=             -1.0857    Y=             -1.2840    Z=             -1.4393  Tot=              2.2133
 Quadrupole moment (field-independent basis, Debye-Ang):
   XX=            -89.5672   YY=           -592.2584   ZZ=           -509.0386
   XY=             60.5623   XZ=             -0.0739   YZ=              6.7422

 Normal termination of Gaussian 16 at Wed Sep 15 17:31:55 2021.
