 Gaussian 16, Revision A.03,
 Gaussian 16:  ES64L-G16RevA.03 25-Dec-2016

 -----------------------------------
 #p cam-b3lyp/Def2SVP td=(nstates=5)
 -----------------------------------

 --------------------------------
 TDDFT excited states in gaussian
 --------------------------------
 Symbolic Z-matrix:
 Charge =  0 Multiplicity = 1

                         Standard orientation:
 ---------------------------------------------------------------------
 Center     Atomic      Atomic             Coordinates (Angstroms)
 Number     Number       Type             X           Y           Z
 ---------------------------------------------------------------------
      1         12           0       16.846617   -0.627944    0.169236
      2          6           0       15.624239    2.247411   -1.465478
      3          6           0       18.520873    1.426705    2.357088
      4          6           0       18.116341   -3.315192    1.733533
      5          6           0       15.607502   -2.647819   -2.405232
      6          7           0       16.881785    1.543996    0.419675
      7          6           0       16.363311    2.554918   -0.271709
      8          6           0       16.657723    3.974399    0.256460
      9          6           0       17.817920    3.560159    1.285324
     10          6           0       17.770591    2.052287    1.326957
     11          6           0       19.184793    4.068693    0.896243
     12          6           0       15.393589    4.693327    0.987675
     13          6           0       15.456910    6.222453    0.930990
     14          1           0       14.268811    6.879059    0.181884
     15          7           0       18.029600   -0.943222    1.945491
     16          6           0       18.667143    0.090237    2.675622
     17          6           0       19.178391   -0.511455    3.886540
     18          6           0       19.055782   -1.891156    3.748744
     19          6           0       18.359201   -2.130263    2.445902
     20          6           0       19.926690    0.254855    4.960904
     21          6           0       19.427882   -3.028644    4.672012
     22          8           0       19.149882   -4.152782    4.371421
     23          6           0       20.073397   -2.794948    6.001386
     24          7           0       17.043414   -2.656682   -0.350933
     25          6           0       17.547409   -3.597566    0.499036
     26          6           0       17.305669   -4.974006   -0.180471
     27          6           0       16.103415   -4.790483   -1.089223
     28          6           0       16.229929   -3.271658   -1.353681
     29          6           0       18.525229   -5.342441   -1.024137
     30          6           0       14.807880   -5.206781   -0.497368
     31          6           0       14.465858   -4.765233    0.904111
     32          7           0       15.794094   -0.332850   -1.576571
     33          6           0       15.357947   -1.221653   -2.541085
     34          6           0       14.635104   -0.474309   -3.581801
     35          6           0       14.703743    0.868794   -3.172606
     36          6           0       15.392738    0.898646   -1.990923
     37          6           0       14.034505   -1.033481   -4.798581
     38          6           0       14.222609    2.201821   -3.418467
     39          8           0       13.461446    2.654071   -4.323491
     40          6           0       14.806767    3.138722   -2.258284
     41          6           0       15.663766    4.173899   -2.939669
     42          8           0       16.478843    3.898206   -3.769333
     43          8           0       15.486130    5.509971   -2.488800
     44          6           0       16.545330    6.471883   -2.920824
     45          1           0       19.101305    2.060951    3.029490
     46          1           0       18.594253   -4.203320    2.153067
     47          1           0       15.048318   -3.226775   -3.143546
     48          1           0       16.935885    4.629818   -0.569802
     49          1           0       17.503322    4.012692    2.226530
     50          1           0       19.344281    4.978399    1.474896
     51          1           0       19.303859    4.182186   -0.181483
     52          1           0       19.867371    3.348670    1.347517
     53          1           0       15.363108    4.406973    2.039404
     54          1           0       14.453271    4.335434    0.567885
     55          1           0       16.427482    6.380153    0.460197
     56          1           0       15.566012    6.666007    1.920481
     57          1           0       19.643971    1.293406    4.793127
     58          1           0       20.966636    0.139557    4.656750
     59          1           0       19.644072   -0.054777    5.967268
     60          1           0       19.223806   -2.372641    6.538273
     61          1           0       20.882569   -2.065210    5.991779
     62          1           0       20.413211   -3.738799    6.429113
     63          1           0       17.173286   -5.812744    0.502094
     64          1           0       16.130565   -5.357836   -2.018940
     65          1           0       18.493829   -5.213838   -2.106118
     66          1           0       18.754876   -6.388345   -0.820817
     67          1           0       19.375361   -4.770154   -0.651094
     68          1           0       14.665278   -6.286430   -0.549168
     69          1           0       14.065550   -4.770818   -1.165676
     70          1           0       13.640085   -4.061378    0.796344
     71          1           0       15.174539   -4.279069    1.575227
     72          1           0       14.061286   -5.624626    1.438539
     73          1           0       14.841504   -1.345679   -5.461358
     74          1           0       13.417872   -0.219232   -5.179020
     75          1           0       13.459815   -1.935131   -4.582553
     76          1           0       13.923237    3.510871   -1.739322
     77          1           0       16.388118    6.766234   -3.958438
     78          1           0       17.555691    6.073600   -2.817288
     79          1           0       16.545773    7.438599   -2.418089
     80         12           0      -16.223764   -0.723617    0.194782
     81          6           0      -18.566012    1.760733    1.101290
     82          6           0      -14.056915    1.602262   -0.682429
     83          6           0      -14.477052   -3.158078   -1.446932
     84          6           0      -19.077694   -3.075171    0.216340
     85          7           0      -16.370935    1.448539    0.173209
     86          6           0      -17.284855    2.222361    0.793883
     87          6           0      -16.732878    3.656207    0.916269
     88          6           0      -15.334859    3.597979    0.389493
     89          6           0      -15.221058    2.130466   -0.123453
     90          6           0      -15.002440    4.779178   -0.611281
     91          6           0      -16.850364    4.386255    2.295975
     92          6           0      -15.736179    5.385156    2.829639
     93          1           0      -16.183598    6.714758    3.454454
     94          7           0      -14.378290   -0.783909   -0.694961
     95          6           0      -13.614604    0.329202   -0.964827
     96          6           0      -12.381352   -0.119473   -1.546097
     97          6           0      -12.456663   -1.536944   -1.838648
     98          6           0      -13.821329   -1.870740   -1.374555
     99          6           0      -11.365400    0.894345   -1.886331
    100          6           0      -11.396652   -2.510141   -2.411102
    101          8           0      -11.677150   -3.644659   -2.617720
    102          6           0       -9.958744   -2.109302   -2.473575
    103          7           0      -16.765851   -2.811616   -0.555620
    104          6           0      -15.768651   -3.568461   -1.066101
    105          6           0      -16.235921   -5.027925   -1.369586
    106          6           0      -17.691195   -5.035900   -0.809567
    107          6           0      -17.902887   -3.568802   -0.360550
    108          6           0      -16.179410   -5.442894   -2.815768
    109          6           0      -18.030831   -6.031307    0.354394
    110          6           0      -17.600802   -5.701238    1.743714
    111          7           0      -18.378259   -0.789218    0.570146
    112          6           0      -19.312767   -1.784659    0.586567
    113          6           0      -20.556921   -1.262921    1.097381
    114          6           0      -20.352820    0.123961    1.322329
    115          6           0      -19.018154    0.366805    0.939036
    116          6           0      -21.868158   -1.960144    1.190714
    117          6           0      -20.955895    1.360926    1.729295
    118          8           0      -22.067952    1.656726    2.151316
    119          6           0      -19.814573    2.471765    1.653273
    120          6           0      -20.250796    3.720917    0.906383
    121          8           0      -20.521357    3.741664   -0.266607
    122          8           0      -20.236165    4.800094    1.775653
    123          6           0      -20.678002    6.048884    1.153832
    124          1           0      -13.210696    2.281554   -0.807750
    125          1           0      -13.836023   -3.893913   -1.936367
    126          1           0      -19.895957   -3.789926    0.325143
    127          1           0      -17.442916    4.151494    0.253956
    128          1           0      -14.662579    3.780766    1.228234
    129          1           0      -15.826532    5.492405   -0.615002
    130          1           0      -14.721720    4.332536   -1.565079
    131          1           0      -14.183072    5.394177   -0.238646
    132          1           0      -16.935727    3.605690    3.052371
    133          1           0      -17.785090    4.940698    2.383543
    134          1           0      -15.108848    5.576422    1.958792
    135          1           0      -15.115825    4.865281    3.559801
    136          1           0      -10.904810    0.546048   -2.810528
    137          1           0      -10.607289    0.859519   -1.104822
    138          1           0      -11.619947    1.946210   -2.017336
    139          1           0       -9.880547   -1.690574   -3.476045
    140          1           0       -9.338247   -2.972107   -2.229475
    141          1           0       -9.679709   -1.283529   -1.818727
    142          1           0      -15.713250   -5.758275   -0.751599
    143          1           0      -18.531272   -5.149409   -1.494040
    144          1           0      -15.629590   -4.718125   -3.417595
    145          1           0      -17.170137   -5.501484   -3.267241
    146          1           0      -15.672361   -6.407440   -2.822038
    147          1           0      -17.616369   -7.013749    0.128020
    148          1           0      -19.096905   -6.252180    0.296825
    149          1           0      -16.760722   -5.007100    1.713555
    150          1           0      -17.216895   -6.471480    2.412998
    151          1           0      -18.499287   -5.321108    2.230886
    152          1           0      -22.260142   -2.327644    0.242789
    153          1           0      -22.600035   -1.170684    1.363441
    154          1           0      -21.861936   -2.734668    1.958139
    155          1           0      -19.572501    2.714659    2.688120
    156          1           0      -19.668111    6.449910    1.234084
    157          1           0      -21.374875    6.457957    1.884974
    158          1           0      -21.071310    5.912105    0.146278
 ---------------------------------------------------------------------

 SCF Done:  E(RCAM-B3LYP) =  -4069.78957306     A.U. after   19 cycles

 Excitation energies and oscillator strengths:

 Excited State   1:      Singlet-A      1.6956 eV  731.19 nm  f=0.4087  <S**2>=0.000
     309 -> 315        0.17020
     311 -> 313        0.67258
     312 -> 314        0.14272
     309 <- 315        0.10374
 This state for optimization and/or second-order correction.
 Total Energy, E(TD-HF/TD-DFT) =  -4069.72725944
 Copying the excited state density for this state as the 1-particle RhoCI density.

 Excited State   2:      Singlet-A      1.7021 eV  728.41 nm  f=0.3484  <S**2>=0.000
     310 -> 316        0.18298
     311 -> 313       -0.14337
     312 -> 314        0.66879
     310 <- 316        0.10785

 Excited State   3:      Singlet-A      2.1842 eV  567.65 nm  f=0.1092  <S**2>=0.000
     309 -> 313        0.64670
     311 -> 315       -0.27009

 Excited State   4:      Singlet-A      2.1899 eV  566.15 nm  f=0.1175  <S**2>=0.000
     310 -> 314        0.64176
     312 -> 316       -0.28245

 Excited State   5:      Singlet-A      2.9896 eV  414.72 nm  f=0.0000  <S**2>=0.000
     312 -> 313        0.70710

 The electronic state is 1-A.
 Alpha  occ. eigenvalues --  -46.89963 -46.88680 -19.24709 -19.24556 -19.20101
 Alpha  occ. eigenvalues --  -19.19998 -19.19540 -19.19136 -19.18602 -19.18299
 Alpha  occ. eigenvalues --  -14.43471 -14.42184 -14.41750 -14.41396 -14.39763
 Alpha  occ. eigenvalues --  -14.39464 -14.39113 -14.38778 -10.39455 -10.39090
 Alpha  occ. eigenvalues --  -10.35689 -10.35240 -10.34800 -10.34769 -10.31908
 Alpha  occ. eigenvalues --  -10.31739 -10.31597 -10.31328 -10.31232 -10.31177
 Alpha  occ. eigenvalues --  -10.31094 -10.31005 -10.30854 -10.30681 -10.30666
 Alpha  occ. eigenvalues --  -10.30574 -10.30332 -10.29560 -10.29493 -10.29445
 Alpha  occ. eigenvalues --  -10.29415 -10.28983 -10.28915 -10.28866 -10.28640
 Alpha  occ. eigenvalues --  -10.28558 -10.28443 -10.28424 -10.28369 -10.28296
 Alpha  occ. eigenvalues --  -10.28256 -10.28185 -10.28152 -10.28009 -10.27893
 Alpha  occ. eigenvalues --  -10.27803 -10.27626 -10.27584 -10.27526 -10.27335
 Alpha  occ. eigenvalues --  -10.27286 -10.27266 -10.27183 -10.27173 -10.26985
 Alpha  occ. eigenvalues --  -10.26752 -10.26748 -10.26707 -10.26690 -10.26641
 Alpha  occ. eigenvalues --  -10.26517 -10.26503 -10.26471 -10.26318 -10.26227
 Alpha  occ. eigenvalues --  -10.26103 -10.25676 -10.25453 -10.25365 -10.25174
 Alpha  occ. eigenvalues --  -10.25157 -10.25074 -10.24945 -10.24848 -10.24521
 Alpha  occ. eigenvalues --  -10.24483  -3.18272  -3.17175  -1.93145  -1.92736
 Alpha  occ. eigenvalues --   -1.92562  -1.92097  -1.91606  -1.91491  -1.16263
 Alpha  occ. eigenvalues --   -1.15671  -1.12860  -1.12171  -1.09181  -1.08511
 Alpha  occ. eigenvalues --   -1.07439  -1.06713  -1.05354  -1.04190  -1.03595
 Alpha  occ. eigenvalues --   -1.03109  -1.02992  -1.02451  -1.01824  -1.01804
 Alpha  occ. eigenvalues --   -0.93009  -0.91583  -0.90105  -0.89496  -0.89275
 Alpha  occ. eigenvalues --   -0.88889  -0.88849  -0.88225  -0.87905  -0.87339
 Alpha  occ. eigenvalues --   -0.87140  -0.86991  -0.86278  -0.86063  -0.84765
 Alpha  occ. eigenvalues --   -0.83973  -0.83629  -0.83627  -0.82684  -0.82531
 Alpha  occ. eigenvalues --   -0.82489  -0.81967  -0.81171  -0.80809  -0.80371
 Alpha  occ. eigenvalues --   -0.79980  -0.78968  -0.78251  -0.77405  -0.77164
 Alpha  occ. eigenvalues --   -0.77127  -0.77070  -0.76342  -0.75824  -0.75046
 Alpha  occ. eigenvalues --   -0.74620  -0.72515  -0.72296  -0.71437  -0.71389
 Alpha  occ. eigenvalues --   -0.69784  -0.69761  -0.69246  -0.68907  -0.68172
 Alpha  occ. eigenvalues --   -0.67901  -0.67182  -0.66872  -0.65888  -0.64997
 Alpha  occ. eigenvalues --   -0.64887  -0.64274  -0.64261  -0.64108  -0.63981
 Alpha  occ. eigenvalues --   -0.63465  -0.61827  -0.61678  -0.60440  -0.59998
 Alpha  occ. eigenvalues --   -0.59991  -0.59521  -0.59204  -0.59039  -0.58772
 Alpha  occ. eigenvalues --   -0.58668  -0.58319  -0.57967  -0.57651  -0.57352
 Alpha  occ. eigenvalues --   -0.56452  -0.56118  -0.55847  -0.55818  -0.55357
 Alpha  occ. eigenvalues --   -0.55024  -0.54844  -0.54598  -0.54554  -0.54148
 Alpha  occ. eigenvalues --   -0.54037  -0.54030  -0.53775  -0.53684  -0.53672
 Alpha  occ. eigenvalues --   -0.53306  -0.53103  -0.52738  -0.52493  -0.52346
 Alpha  occ. eigenvalues --   -0.51939  -0.51698  -0.51688  -0.51587  -0.51163
 Alpha  occ. eigenvalues --   -0.50900  -0.50898  -0.50794  -0.50791  -0.50586
 Alpha  occ. eigenvalues --   -0.50262  -0.50259  -0.50067  -0.50001  -0.49750
 Alpha  occ. eigenvalues --   -0.49642  -0.49490  -0.49268  -0.49171  -0.49135
 Alpha  occ. eigenvalues --   -0.48950  -0.48738  -0.48566  -0.48359  -0.48305
 Alpha  occ. eigenvalues --   -0.48279  -0.47793  -0.47708  -0.47660  -0.47233
 Alpha  occ. eigenvalues --   -0.47175  -0.47106  -0.46767  -0.46734  -0.46411
 Alpha  occ. eigenvalues --   -0.45998  -0.45936  -0.45751  -0.45617  -0.45521
 Alpha  occ. eigenvalues --   -0.45463  -0.45395  -0.45278  -0.45014  -0.44600
 Alpha  occ. eigenvalues --   -0.44527  -0.44378  -0.44299  -0.44229  -0.44058
 Alpha  occ. eigenvalues --   -0.43789  -0.43684  -0.43611  -0.43561  -0.43217
 Alpha  occ. eigenvalues --   -0.43213  -0.43163  -0.42966  -0.42910  -0.42895
 Alpha  occ. eigenvalues --   -0.42584  -0.42579  -0.42524  -0.42311  -0.42005
 Alpha  occ. eigenvalues --   -0.41882  -0.41797  -0.41616  -0.41433  -0.41101
 Alpha  occ. eigenvalues --   -0.40989  -0.40843  -0.40564  -0.40440  -0.40330
 Alpha  occ. eigenvalues --   -0.40098  -0.39804  -0.39582  -0.39162  -0.38935
 Alpha  occ. eigenvalues --   -0.38402  -0.38088  -0.37877  -0.37773  -0.37354
 Alpha  occ. eigenvalues --   -0.37343  -0.37190  -0.36871  -0.36490  -0.36252
 Alpha  occ. eigenvalues --   -0.35882  -0.35687  -0.34742  -0.34595  -0.34577
 Alpha  occ. eigenvalues --   -0.33526  -0.33264  -0.33121  -0.31770  -0.31754
 Alpha  occ. eigenvalues --   -0.31424  -0.30807  -0.30579  -0.30375  -0.30068
 Alpha  occ. eigenvalues --   -0.29797  -0.29388  -0.29312  -0.24201  -0.23793
 Alpha  occ. eigenvalues --   -0.21445  -0.21023
 Alpha virt. eigenvalues --   -0.09019  -0.08610  -0.01796  -0.01593   0.00347
 Alpha virt. eigenvalues --    0.00379   0.01185   0.02114   0.02546   0.03201
 Alpha virt. eigenvalues --    0.04538   0.04593   0.05240   0.05558   0.05717

 Mulliken charges:
               1
     1  Mg   0.813728
     2  C   -0.040355
     3  C   -0.100353
     4  C   -0.056116
     5  C   -0.065185
     6  N   -0.248691
     7  C   -0.044834
     8  C   -0.042232
     9  C   -0.088359
    10  C    0.097233
    11  C    0.104624
    12  C    0.047566
    13  C   -0.047293
    14  H    0.044910
    15  N   -0.365857
    16  C    0.130128
    17  C   -0.165519
    18  C   -0.010009
    19  C    0.116012
    20  C    0.118466
    21  C   -0.027529
    22  O   -0.177916
    23  C    0.053327
    24  N   -0.336418
    25  C    0.059195
    26  C   -0.036073
    27  C    0.001109
    28  C    0.092571
    29  C    0.078968
    30  C    0.053796
    31  C   -0.013948
    32  N   -0.352951
    33  C    0.068132
    34  C   -0.192151
    35  C    0.046568
    36  C    0.100681
    37  C    0.125873
    38  C    0.022967
    39  O   -0.217307
    40  C    0.037699
    41  C    0.193556
    42  O   -0.181773
    43  O   -0.372741
    44  C    0.178931
    45  H   -0.015746
    46  H   -0.006688
    47  H   -0.026808
    48  H    0.020238
    49  H    0.010221
    50  H    0.008627
    51  H    0.035000
    52  H    0.001672
    53  H    0.003148
    54  H    0.018974
    55  H    0.008244
    56  H    0.020934
    57  H    0.008440
    58  H    0.052549
    59  H    0.037136
    60  H    0.038085
    61  H    0.030923
    62  H    0.035374
    63  H   -0.003184
    64  H   -0.009918
    65  H    0.023955
    66  H    0.009744
    67  H    0.009363
    68  H    0.006504
    69  H   -0.008949
    70  H    0.007955
    71  H    0.038126
    72  H    0.006340
    73  H    0.030713
    74  H    0.042207
    75  H    0.013538
    76  H    0.046708
    77  H    0.037705
    78  H    0.033045
    79  H    0.033393
    80  Mg   0.817780
    81  C   -0.011201
    82  C   -0.048704
    83  C   -0.055566
    84  C   -0.096284
    85  N   -0.298073
    86  C   -0.057245
    87  C    0.017565
    88  C   -0.086240
    89  C    0.071794
    90  C    0.069635
    91  C    0.007531
    92  C   -0.067044
    93  H    0.036234
    94  N   -0.428107
    95  C    0.123571
    96  C   -0.120380
    97  C   -0.043101
    98  C    0.090974
    99  C    0.083004
   100  C    0.006729
   101  O   -0.165876
   102  C    0.045757
   103  N   -0.240921
   104  C    0.047247
   105  C   -0.014246
   106  C   -0.001775
   107  C   -0.021739
   108  C    0.084119
   109  C    0.000192
   110  C    0.023714
   111  N   -0.309208
   112  C    0.157983
   113  C   -0.179060
   114  C    0.018057
   115  C    0.070958
   116  C    0.109145
   117  C    0.054866
   118  O   -0.173526
   119  C    0.002860
   120  C    0.190170
   121  O   -0.197558
   122  O   -0.349895
   123  C    0.157928
   124  H   -0.041297
   125  H   -0.000472
   126  H   -0.031388
   127  H    0.022144
   128  H    0.017474
   129  H    0.020939
   130  H    0.027948
   131  H    0.010861
   132  H    0.005461
   133  H    0.023749
   134  H    0.015119
   135  H    0.032462
   136  H    0.014403
   137  H    0.031746
   138  H    0.035878
   139  H    0.042009
   140  H    0.048378
   141  H    0.015568
   142  H    0.012506
   143  H    0.008272
   144  H    0.023076
   145  H    0.012810
   146  H    0.018959
   147  H   -0.001852
   148  H   -0.002416
   149  H    0.016620
   150  H    0.009287
   151  H    0.016355
   152  H    0.022570
   153  H    0.027193
   154  H    0.029672
   155  H    0.040598
   156  H    0.033801
   157  H    0.050106
   158  H    0.069395
 Sum of Mulliken charges =  -0.00000

 Dipole moment (field-independent basis, Debye):
    X=              8.5235    Y=              0.9809    Z=              7.1528  Tot=             11.1702
 Quadrupole moment (field-independent basis, Debye-Ang):
   XX=           -589.6406   YY=           -471.0631   ZZ=           -528.7350
   XY=             43.5449   XZ=             90.0330   YZ=             25.7323

 Normal termination of Gaussian 16 at Tue Sep 14 15:58:09 2021.
