 Gaussian 16, Revision A.03,
 Gaussian 16:  ES64L-G16RevA.03 25-Dec-2016

 ----------------------------------------------------------
 #p cam-b3lyp/Def2SVP td=(nstates=5) density=(transition=1)
 ----------------------------------------------------------

 --------------------------------
 TDDFT excited states in gaussian
 --------------------------------
 Symbolic Z-matrix:
 Charge =  0 Multiplicity = 1

                         Standard orientation:
 ---------------------------------------------------------------------
 Center     Atomic      Atomic             Coordinates (Angstroms)
 Number     Number       Type             X           Y           Z
 ---------------------------------------------------------------------
      1         12           0      -26.650364   -0.589345   -0.130165
      2          6           0      -24.675990    1.832177   -1.432009
      3          6           0      -28.369200    1.802057    1.711449
      4          6           0      -28.620923   -3.012361    1.176496
      5          6           0      -24.637640   -3.008139   -1.572879
      6          7           0      -26.557333    1.511449   -0.022644
      7          6           0      -25.656502    2.342927   -0.604483
      8          6           0      -26.011387    3.795375   -0.420491
      9          6           0      -27.011927    3.768765    0.796769
     10          6           0      -27.362900    2.244847    0.812589
     11          6           0      -26.585464    4.375858    2.198314
     12          6           0      -26.734520    4.395600   -1.709120
     13          6           0      -26.579124    5.941434   -1.814405
     14          1           0      -26.383461    6.824719   -0.570754
     15          7           0      -28.247339   -0.655465    1.330546
     16          6           0      -28.800229    0.493468    1.954614
     17          6           0      -29.874011    0.097704    2.815229
     18          6           0      -29.966274   -1.334649    2.693557
     19          6           0      -28.913238   -1.699158    1.679578
     20          6           0      -30.742824    1.037782    3.574933
     21          6           0      -30.920885   -2.303358    3.382543
     22          8           0      -30.867998   -3.566395    3.313833
     23          6           0      -32.037129   -1.754726    4.255014
     24          7           0      -26.602094   -2.695703   -0.125487
     25          6           0      -27.646795   -3.499487    0.333538
     26          6           0      -27.602994   -4.970748   -0.171184
     27          6           0      -26.278969   -4.870844   -1.117099
     28          6           0      -25.810438   -3.468946   -0.976176
     29          6           0      -27.454274   -5.909155    1.033273
     30          6           0      -26.495905   -5.314399   -2.533829
     31          6           0      -25.557385   -6.402305   -2.971549
     32          7           0      -24.981929   -0.701024   -1.147140
     33          6           0      -24.246064   -1.729997   -1.721586
     34          6           0      -23.129532   -1.203633   -2.415303
     35          6           0      -23.192978    0.212245   -2.315733
     36          6           0      -24.392495    0.490152   -1.626921
     37          6           0      -22.076913   -1.920080   -3.170692
     38          6           0      -22.489157    1.447677   -2.581777
     39          8           0      -21.420963    1.738620   -3.083547
     40          6           0      -23.521332    2.552512   -2.052170
     41          6           0      -22.840295    3.677348   -1.359258
     42          8           0      -21.941818    3.592580   -0.561532
     43          8           0      -23.296216    4.883853   -1.730327
     44          6           0      -22.640022    6.029912   -1.038971
     45          1           0      -28.721415    2.600255    2.368359
     46          1           0      -29.175308   -3.789763    1.706202
     47          1           0      -24.019650   -3.697623   -2.151676
     48          1           0      -25.169973    4.387253   -0.060600
     49          1           0      -27.934654    4.260080    0.489758
     50          1           0      -25.611410    4.846105    2.062949
     51          1           0      -26.536606    3.698211    3.049194
     52          1           0      -27.358532    5.094516    2.470998
     53          1           0      -27.770143    4.070166   -1.609187
     54          1           0      -26.280947    3.923836   -2.580877
     55          1           0      -27.495319    6.228809   -2.330582
     56          1           0      -25.793460    6.116320   -2.548945
     57          1           0      -31.558603    1.490835    3.011508
     58          1           0      -30.065995    1.789160    3.979732
     59          1           0      -31.108176    0.621204    4.513122
     60          1           0      -31.587025   -1.565965    5.229512
     61          1           0      -32.751920   -2.572916    4.339486
     62          1           0      -32.478594   -0.829959    3.883090
     63          1           0      -28.573061   -5.158184   -0.631708
     64          1           0      -25.513652   -5.530933   -0.707450
     65          1           0      -27.261370   -5.427136    1.991909
     66          1           0      -26.742737   -6.695159    0.781380
     67          1           0      -28.434317   -6.366136    1.173345
     68          1           0      -26.325031   -4.522801   -3.263520
     69          1           0      -27.506872   -5.657693   -2.753730
     70          1           0      -26.064551   -7.235688   -3.456873
     71          1           0      -25.009190   -6.817724   -2.126383
     72          1           0      -24.813664   -5.882554   -3.576282
     73          1           0      -21.823528   -2.917643   -2.810622
     74          1           0      -21.165720   -1.396194   -2.880516
     75          1           0      -22.322448   -1.931390   -4.232672
     76          1           0      -23.830333    2.914493   -3.033207
     77          1           0      -21.651993    6.244850   -1.448509
     78          1           0      -22.672059    5.924477    0.045574
     79          1           0      -23.234119    6.924161   -1.228888
     80         12           0       26.697608   -0.673878    0.049053
     81          6           0       25.351185    2.461711    1.062613
     82          6           0       27.738132    0.813381   -2.871214
     83          6           0       27.827516   -3.674519   -0.749909
     84          6           0       25.121373   -2.201167    2.895489
     85          7           0       26.502308    1.451819   -0.877296
     86          6           0       25.997106    2.535735   -0.182882
     87          6           0       26.217850    3.783623   -1.104898
     88          6           0       26.970953    3.238585   -2.432587
     89          6           0       27.060869    1.758420   -2.047470
     90          6           0       26.291729    3.561164   -3.779836
     91          6           0       26.870918    5.064947   -0.439690
     92          6           0       26.052015    6.321224   -0.506151
     93          1           0       25.052037    6.609697   -1.594557
     94          7           0       27.809390   -1.338849   -1.604501
     95          6           0       28.113708   -0.571459   -2.684454
     96          6           0       29.002096   -1.365499   -3.493664
     97          6           0       28.961767   -2.675241   -2.968715
     98          6           0       28.150057   -2.660572   -1.708456
     99          6           0       29.628375   -0.766081   -4.764071
    100          6           0       29.503048   -3.920715   -3.602738
    101          8           0       29.305243   -5.052235   -3.099962
    102          6           0       30.241664   -3.821980   -4.885758
    103          7           0       26.410215   -2.674514    0.972641
    104          6           0       27.039305   -3.687238    0.486564
    105          6           0       26.935138   -5.080595    1.308073
    106          6           0       26.046796   -4.587281    2.460306
    107          6           0       25.841532   -3.128990    2.130707
    108          6           0       26.296417   -6.186727    0.390660
    109          6           0       26.599429   -4.784131    3.915684
    110          6           0       27.768471   -3.864823    4.342228
    111          7           0       25.426274   -0.057338    1.527088
    112          6           0       24.865144   -0.814279    2.582451
    113          6           0       24.140570    0.112021    3.463182
    114          6           0       24.313487    1.403186    2.909239
    115          6           0       25.144053    1.255708    1.747290
    116          6           0       23.383545   -0.284778    4.765898
    117          6           0       23.996010    2.714001    3.127198
    118          8           0       23.308274    3.259438    3.966072
    119          6           0       24.685478    3.520229    1.991281
    120          6           0       23.686907    4.333768    1.336961
    121          8           0       22.984743    3.963127    0.389457
    122          8           0       23.470251    5.501384    2.078298
    123          6           0       22.329923    6.323657    1.603318
    124          1           0       27.892564    1.089307   -3.916793
    125          1           0       28.064922   -4.678193   -1.108929
    126          1           0       24.625945   -2.613250    3.777019
    127          1           0       25.173300    4.066794   -1.228025
    128          1           0       27.935677    3.736892   -2.516985
    129          1           0       26.980986    4.085490   -4.442970
    130          1           0       25.358434    4.122400   -3.737531
    131          1           0       26.055749    2.580221   -4.192353
    132          1           0       27.849002    5.256844   -0.881293
    133          1           0       26.965146    4.820492    0.618386
    134          1           0       26.740074    7.119232   -0.787441
    135          1           0       25.582573    6.463615    0.466576
    136          1           0       29.577543    0.322943   -4.772549
    137          1           0       29.119806   -1.158490   -5.643746
    138          1           0       30.666206   -1.096425   -4.734946
    139          1           0       31.083659   -3.151383   -4.714057
    140          1           0       29.627369   -3.368878   -5.664804
    141          1           0       30.519274   -4.811561   -5.246511
    142          1           0       27.910727   -5.397500    1.677542
    143          1           0       25.038951   -4.984615    2.337832
    144          1           0       25.630540   -5.688810   -0.314117
    145          1           0       25.683236   -6.834224    1.018437
    146          1           0       26.967496   -6.826071   -0.183498
    147          1           0       26.778938   -5.842507    4.102015
    148          1           0       25.771965   -4.609829    4.602738
    149          1           0       28.465193   -3.561899    3.561334
    150          1           0       28.272052   -4.330523    5.190115
    151          1           0       27.288996   -2.978982    4.758460
    152          1           0       23.646073    0.338248    5.620955
    153          1           0       23.504418   -1.334216    5.032167
    154          1           0       22.347514    0.045436    4.686318
    155          1           0       25.382415    4.137995    2.556671
    156          1           0       21.384836    5.818235    1.800317
    157          1           0       22.327472    6.515421    0.530935
    158          1           0       22.478121    7.320364    2.019262
 ---------------------------------------------------------------------

 SCF Done:  E(RCAM-B3LYP) =  -4069.81194537     A.U. after   19 cycles

 Excitation energies and oscillator strengths:

 Excited State   1:      Singlet-A      1.6462 eV  753.17 nm  f=0.3917  <S**2>=0.000
     309 -> 316       -0.17001
     312 -> 313        0.68912
     309 <- 316       -0.10749
 This state for optimization and/or second-order correction.
 Total Energy, E(TD-HF/TD-DFT) =  -4069.75144957
 Copying the excited state density for this state as the 1-particle RhoCI density.

 Excited State   2:      Singlet-A      1.7535 eV  707.05 nm  f=0.3740  <S**2>=0.000
     310 -> 315       -0.18841
     311 -> 314        0.68194
     310 <- 315       -0.10759

 Excited State   3:      Singlet-A      2.2093 eV  561.19 nm  f=0.1081  <S**2>=0.000
     310 -> 314        0.64206
     311 -> 315        0.28092

 Excited State   4:      Singlet-A      2.2270 eV  556.73 nm  f=0.1138  <S**2>=0.000
     309 -> 313        0.63821
     312 -> 316        0.29158

 Excited State   5:      Singlet-A      3.1602 eV  392.33 nm  f=0.0000  <S**2>=0.000
     311 -> 313        0.70710

 The electronic state is 1-A.
 Alpha  occ. eigenvalues --  -46.89791 -46.87131 -19.25148 -19.24240 -19.19265
 Alpha  occ. eigenvalues --  -19.19205 -19.18746 -19.18741 -19.18478 -19.17498
 Alpha  occ. eigenvalues --  -14.42836 -14.42648 -14.41856 -14.41667 -14.39738
 Alpha  occ. eigenvalues --  -14.39650 -14.39507 -14.38741 -10.38583 -10.38573
 Alpha  occ. eigenvalues --  -10.35207 -10.35128 -10.35041 -10.33273 -10.32024
 Alpha  occ. eigenvalues --  -10.31876 -10.31691 -10.31391 -10.31336 -10.31074
 Alpha  occ. eigenvalues --  -10.30934 -10.30871 -10.30760 -10.30711 -10.30464
 Alpha  occ. eigenvalues --  -10.30175 -10.30095 -10.29836 -10.29827 -10.29334
 Alpha  occ. eigenvalues --  -10.29327 -10.28930 -10.28836 -10.28798 -10.28749
 Alpha  occ. eigenvalues --  -10.28727 -10.28351 -10.28230 -10.28126 -10.28077
 Alpha  occ. eigenvalues --  -10.28032 -10.28015 -10.27961 -10.27955 -10.27954
 Alpha  occ. eigenvalues --  -10.27924 -10.27848 -10.27840 -10.27779 -10.27663
 Alpha  occ. eigenvalues --  -10.27635 -10.27517 -10.27496 -10.27457 -10.27379
 Alpha  occ. eigenvalues --  -10.27309 -10.27201 -10.27183 -10.27109 -10.26999
 Alpha  occ. eigenvalues --  -10.26796 -10.26573 -10.26330 -10.26302 -10.25980
 Alpha  occ. eigenvalues --  -10.25976 -10.25945 -10.25845 -10.25820 -10.25742
 Alpha  occ. eigenvalues --  -10.25589 -10.25459 -10.25366 -10.25221 -10.25104
 Alpha  occ. eigenvalues --  -10.23870  -3.18126  -3.15989  -1.93041  -1.92617
 Alpha  occ. eigenvalues --   -1.92383  -1.90880  -1.90423  -1.90334  -1.17289
 Alpha  occ. eigenvalues --   -1.14326  -1.10122  -1.09220  -1.08438  -1.07391
 Alpha  occ. eigenvalues --   -1.07238  -1.06283  -1.06083  -1.04508  -1.03672
 Alpha  occ. eigenvalues --   -1.03553  -1.03005  -1.02701  -1.01675  -1.01394
 Alpha  occ. eigenvalues --   -0.93356  -0.92254  -0.89721  -0.89700  -0.88794
 Alpha  occ. eigenvalues --   -0.88570  -0.88258  -0.87800  -0.87664  -0.87226
 Alpha  occ. eigenvalues --   -0.87208  -0.86764  -0.86399  -0.85450  -0.84316
 Alpha  occ. eigenvalues --   -0.84295  -0.83802  -0.83345  -0.82511  -0.82463
 Alpha  occ. eigenvalues --   -0.82197  -0.81645  -0.81041  -0.80647  -0.80491
 Alpha  occ. eigenvalues --   -0.80020  -0.78343  -0.78295  -0.77764  -0.77551
 Alpha  occ. eigenvalues --   -0.77344  -0.76514  -0.76416  -0.75702  -0.75202
 Alpha  occ. eigenvalues --   -0.74951  -0.72869  -0.72496  -0.71833  -0.71531
 Alpha  occ. eigenvalues --   -0.70439  -0.69077  -0.69010  -0.68674  -0.68177
 Alpha  occ. eigenvalues --   -0.67812  -0.66887  -0.66687  -0.65847  -0.65341
 Alpha  occ. eigenvalues --   -0.65289  -0.64878  -0.64762  -0.64616  -0.64208
 Alpha  occ. eigenvalues --   -0.64064  -0.62323  -0.61389  -0.60309  -0.60200
 Alpha  occ. eigenvalues --   -0.59919  -0.59476  -0.58953  -0.58578  -0.58360
 Alpha  occ. eigenvalues --   -0.58103  -0.57986  -0.57912  -0.57696  -0.57497
 Alpha  occ. eigenvalues --   -0.56253  -0.56074  -0.55994  -0.55485  -0.55243
 Alpha  occ. eigenvalues --   -0.55171  -0.54962  -0.54922  -0.53929  -0.53567
 Alpha  occ. eigenvalues --   -0.53330  -0.53213  -0.52988  -0.52985  -0.52877
 Alpha  occ. eigenvalues --   -0.52811  -0.52598  -0.52542  -0.52420  -0.52132
 Alpha  occ. eigenvalues --   -0.51996  -0.51962  -0.51524  -0.51296  -0.51261
 Alpha  occ. eigenvalues --   -0.51138  -0.50780  -0.50427  -0.50299  -0.50084
 Alpha  occ. eigenvalues --   -0.49966  -0.49823  -0.49596  -0.49482  -0.49220
 Alpha  occ. eigenvalues --   -0.49186  -0.48992  -0.48927  -0.48861  -0.48834
 Alpha  occ. eigenvalues --   -0.48544  -0.48373  -0.48211  -0.47983  -0.47952
 Alpha  occ. eigenvalues --   -0.47900  -0.47752  -0.47479  -0.47309  -0.47286
 Alpha  occ. eigenvalues --   -0.47201  -0.46708  -0.46694  -0.46587  -0.46583
 Alpha  occ. eigenvalues --   -0.46487  -0.46342  -0.46134  -0.45907  -0.45793
 Alpha  occ. eigenvalues --   -0.45458  -0.45181  -0.44901  -0.44896  -0.44759
 Alpha  occ. eigenvalues --   -0.44568  -0.44532  -0.44194  -0.44036  -0.43877
 Alpha  occ. eigenvalues --   -0.43752  -0.43719  -0.43498  -0.43416  -0.43272
 Alpha  occ. eigenvalues --   -0.43174  -0.43160  -0.42695  -0.42449  -0.42395
 Alpha  occ. eigenvalues --   -0.42336  -0.42333  -0.42029  -0.41935  -0.41836
 Alpha  occ. eigenvalues --   -0.41794  -0.41553  -0.41400  -0.41346  -0.41228
 Alpha  occ. eigenvalues --   -0.41115  -0.40965  -0.40878  -0.40561  -0.40481
 Alpha  occ. eigenvalues --   -0.40419  -0.40375  -0.40091  -0.40035  -0.39749
 Alpha  occ. eigenvalues --   -0.39090  -0.38236  -0.37955  -0.37603  -0.37182
 Alpha  occ. eigenvalues --   -0.37016  -0.36913  -0.36601  -0.36598  -0.36336
 Alpha  occ. eigenvalues --   -0.36068  -0.35466  -0.34581  -0.34118  -0.33907
 Alpha  occ. eigenvalues --   -0.33643  -0.33327  -0.33019  -0.31520  -0.31287
 Alpha  occ. eigenvalues --   -0.31179  -0.30718  -0.30697  -0.30300  -0.29935
 Alpha  occ. eigenvalues --   -0.29933  -0.29562  -0.29529  -0.24299  -0.23762
 Alpha  occ. eigenvalues --   -0.21216  -0.21021
 Alpha virt. eigenvalues --   -0.08949  -0.08513  -0.01756  -0.01604   0.00127
 Alpha virt. eigenvalues --    0.00169   0.02180   0.02352   0.02611   0.03180
 Alpha virt. eigenvalues --    0.04782   0.05039   0.05482   0.05567   0.05883

 Mulliken charges:
               1
     1  Mg  12.004670
     2  C    5.973731
     3  C    6.009387
     4  C    6.035920
     5  C    6.009610
     6  N    6.986793
     7  C    6.036155
     8  C    5.987009
     9  C    6.010820
    10  C    5.963702
    11  C    6.005256
    12  C    5.997010
    13  C    5.999799
    14  H    1.006819
    15  N    7.007057
    16  C    5.950847
    17  C    5.987659
    18  C    5.974956
    19  C    5.963636
    20  C    6.004826
    21  C    5.986911
    22  O    7.961327
    23  C    6.005833
    24  N    7.021029
    25  C    5.961832
    26  C    6.010886
    27  C    5.987021
    28  C    6.018914
    29  C    6.000296
    30  C    5.993141
    31  C    5.999658
    32  N    6.994709
    33  C    6.025645
    34  C    6.035940
    35  C    6.001937
    36  C    6.035677
    37  C    5.995002
    38  C    6.012818
    39  O    8.025314
    40  C    6.004328
    41  C    6.002919
    42  O    8.002447
    43  O    8.002095
    44  C    5.997828
    45  H    0.984357
    46  H    1.002279
    47  H    1.015980
    48  H    0.999759
    49  H    0.995936
    50  H    0.983462
    51  H    1.000675
    52  H    0.996406
    53  H    1.012910
    54  H    0.992181
    55  H    1.002750
    56  H    0.995445
    57  H    0.979573
    58  H    0.985461
    59  H    0.984125
    60  H    0.989132
    61  H    0.984193
    62  H    0.992664
    63  H    1.003323
    64  H    1.004553
    65  H    1.004923
    66  H    0.990998
    67  H    1.004919
    68  H    0.997699
    69  H    1.013765
    70  H    1.007727
    71  H    1.004240
    72  H    0.995327
    73  H    1.019245
    74  H    1.017709
    75  H    1.023848
    76  H    1.003952
    77  H    1.000615
    78  H    1.005442
    79  H    1.005257
    80  Mg  11.999998
    81  C    6.000014
    82  C    6.000011
    83  C    6.000033
    84  C    5.999998
    85  N    7.000011
    86  C    5.999966
    87  C    5.999987
    88  C    6.000008
    89  C    5.999992
    90  C    5.999996
    91  C    6.000007
    92  C    5.999999
    93  H    0.999960
    94  N    6.999986
    95  C    5.999997
    96  C    6.000017
    97  C    5.999970
    98  C    5.999991
    99  C    5.999996
   100  C    6.000039
   101  O    8.000011
   102  C    5.999996
   103  N    6.999989
   104  C    6.000007
   105  C    6.000012
   106  C    5.999995
   107  C    6.000003
   108  C    5.999997
   109  C    6.000003
   110  C    6.000003
   111  N    7.000010
   112  C    5.999983
   113  C    5.999986
   114  C    6.000040
   115  C    6.000000
   116  C    5.999987
   117  C    5.999961
   118  O    7.999987
   119  C    6.000001
   120  C    5.999984
   121  O    7.999967
   122  O    8.000016
   123  C    6.000013
   124  H    0.999995
   125  H    1.000008
   126  H    0.999984
   127  H    0.999977
   128  H    1.000026
   129  H    1.000017
   130  H    0.999983
   131  H    0.999978
   132  H    1.000017
   133  H    1.000023
   134  H    1.000018
   135  H    1.000008
   136  H    1.000027
   137  H    1.000001
   138  H    1.000042
   139  H    1.000032
   140  H    0.999990
   141  H    1.000024
   142  H    1.000030
   143  H    0.999969
   144  H    0.999967
   145  H    1.000003
   146  H    1.000009
   147  H    1.000002
   148  H    0.999995
   149  H    0.999999
   150  H    1.000025
   151  H    1.000009
   152  H    1.000004
   153  H    0.999990
   154  H    0.999947
   155  H    1.000018
   156  H    0.999963
   157  H    0.999977
   158  H    1.000014
 Sum of Mulliken charges = 624.00000

 Dipole moment (field-independent basis, Debye):
    X=              8.6872    Y=             -1.3245    Z=             -6.9486  Tot=             11.2029
 Quadrupole moment (field-independent basis, Debye-Ang):
   XX=           -461.5454   YY=              4.5520   ZZ=             -3.7634
   XY=             29.1600   XZ=            187.7390   YZ=              5.4893

 Normal termination of Gaussian 16 at Wed Sep 22 21:13:15 2021.
