 Gaussian 16, Revision A.03,
 Gaussian 16:  ES64L-G16RevA.03 25-Dec-2016

 ----------------------------------------------------------
 #p cam-b3lyp/Def2SVP td=(nstates=5) density=(transition=1)
 ----------------------------------------------------------

 --------------------------------
 TDDFT excited states in gaussian
 --------------------------------
 Symbolic Z-matrix:
 Charge =  0 Multiplicity = 1

                         Standard orientation:
 ---------------------------------------------------------------------
 Center     Atomic      Atomic             Coordinates (Angstroms)
 Number     Number       Type             X           Y           Z
 ---------------------------------------------------------------------
      1         12           0       16.314430    0.779212    0.027564
      2          6           0       18.460085   -1.832198    0.846170
      3          6           0       13.840394   -1.509717   -0.591155
      4          6           0       14.365260    3.351311   -1.067551
      5          6           0       19.100037    2.939331    0.483203
      6          7           0       16.176497   -1.408548    0.082620
      7          6           0       17.156821   -2.233337    0.567873
      8          6           0       16.565846   -3.645233    0.584843
      9          6           0       15.239234   -3.546037   -0.146959
     10          6           0       15.055527   -2.033294   -0.189798
     11          6           0       15.070536   -4.210070   -1.487140
     12          6           0       16.479487   -4.340209    2.026298
     13          6           0       15.682420   -5.682724    2.089445
     14          1           0       16.453349   -7.013358    1.886601
     15          7           0       14.332992    0.892885   -0.578909
     16          6           0       13.492861   -0.148616   -0.800271
     17          6           0       12.265236    0.411666   -1.302354
     18          6           0       12.430221    1.821040   -1.442548
     19          6           0       13.741961    2.087203   -1.054162
     20          6           0       11.094680   -0.473322   -1.601307
     21          6           0       11.406358    2.811431   -2.069837
     22          8           0       11.740302    3.913076   -2.467869
     23          6           0       10.019484    2.469846   -2.341448
     24          7           0       16.679698    2.724616   -0.224063
     25          6           0       15.717990    3.641143   -0.648123
     26          6           0       16.249942    5.084621   -0.672831
     27          6           0       17.615596    4.929965    0.079022
     28          6           0       17.784548    3.421545    0.156409
     29          6           0       16.187819    5.790128   -1.964072
     30          6           0       17.832516    5.685925    1.504362
     31          6           0       18.961480    6.705530    1.682399
     32          7           0       18.448543    0.615083    0.518135
     33          6           0       19.406263    1.582615    0.638500
     34          6           0       20.664220    1.020868    0.999272
     35          6           0       20.328338   -0.375689    1.176113
     36          6           0       18.975209   -0.564491    0.777914
     37          6           0       21.897546    1.809529    1.225067
     38          6           0       20.851683   -1.640864    1.637693
     39          8           0       21.907136   -1.991117    2.128051
     40          6           0       19.594719   -2.670729    1.415829
     41          6           0       20.008085   -3.879093    0.657683
     42          8           0       20.352243   -3.859498   -0.503739
     43          8           0       19.944437   -4.999147    1.398810
     44          6           0       20.091766   -6.318759    0.672812
     45          1           0       13.032366   -2.229743   -0.738329
     46          1           0       13.721908    4.155890   -1.429295
     47          1           0       19.812326    3.759518    0.596150
     48          1           0       17.314993   -4.166314   -0.011112
     49          1           0       14.461785   -4.019008    0.452500
     50          1           0       15.082674   -3.323575   -2.120492
     51          1           0       14.165082   -4.814226   -1.545954
     52          1           0       15.951481   -4.780278   -1.782711
     53          1           0       15.968005   -3.571976    2.606603
     54          1           0       17.482937   -4.516277    2.412047
     55          1           0       14.905622   -5.725675    1.327035
     56          1           0       15.177796   -5.724651    3.054681
     57          1           0       11.169182   -1.531623   -1.349271
     58          1           0       10.991558   -0.462526   -2.685860
     59          1           0       10.153110   -0.081971   -1.215585
     60          1           0        9.776788    1.540911   -2.856446
     61          1           0        9.432271    3.246987   -2.830493
     62          1           0        9.593799    2.453159   -1.338365
     63          1           0       15.520525    5.514269    0.014337
     64          1           0       18.282569    5.260585   -0.717019
     65          1           0       15.539426    6.664970   -2.019470
     66          1           0       15.847678    5.072762   -2.711384
     67          1           0       17.143876    6.193972   -2.296951
     68          1           0       17.997806    4.915696    2.257465
     69          1           0       16.986304    6.239348    1.913251
     70          1           0       19.824783    6.342125    2.240453
     71          1           0       18.640204    7.690346    2.020357
     72          1           0       19.405077    6.870052    0.700337
     73          1           0       21.999397    2.529962    0.413805
     74          1           0       22.782193    1.183639    1.339271
     75          1           0       21.698455    2.488226    2.055049
     76          1           0       19.322699   -3.010284    2.414708
     77          1           0       20.370633   -6.991280    1.483701
     78          1           0       20.871223   -6.215728   -0.081857
     79          1           0       19.103713   -6.575433    0.290468
     80         12           0      -16.695578    0.559108    0.522418
     81          6           0      -15.190181   -2.161012   -1.297890
     82          6           0      -18.085448   -1.650757    2.605818
     83          6           0      -18.709022    3.029339    1.559120
     84          6           0      -15.541066    2.666980   -2.032623
     85          7           0      -16.675482   -1.615075    0.588268
     86          6           0      -15.860025   -2.522533   -0.109183
     87          6           0      -15.917031   -3.959402    0.536352
     88          6           0      -16.899102   -3.752451    1.728943
     89          6           0      -17.205586   -2.231813    1.682874
     90          6           0      -18.158167   -4.581678    1.740799
     91          6           0      -14.450714   -4.530531    0.927451
     92          6           0      -14.121755   -5.921964    0.372609
     93          1           0      -13.772425   -6.985456    1.479094
     94          7           0      -18.103603    0.702701    1.999829
     95          6           0      -18.560537   -0.301671    2.754570
     96          6           0      -19.597932    0.150696    3.683157
     97          6           0      -19.834452    1.513776    3.291991
     98          6           0      -18.875191    1.815077    2.224227
     99          6           0      -20.207340   -0.715416    4.700360
    100          6           0      -20.986642    2.394405    3.869720
    101          8           0      -21.119128    3.567494    3.563365
    102          6           0      -21.987942    1.875328    4.851723
    103          7           0      -17.042312    2.494601   -0.133395
    104          6           0      -17.856721    3.382091    0.561791
    105          6           0      -17.785867    4.814491   -0.062220
    106          6           0      -16.506308    4.732512   -0.975640
    107          6           0      -16.298170    3.218960   -1.022559
    108          6           0      -19.085022    5.393091   -0.711704
    109          6           0      -15.261941    5.457895   -0.394221
    110          6           0      -14.365341    6.223743   -1.334064
    111          7           0      -15.636661    0.331605   -1.327396
    112          6           0      -15.252742    1.276179   -2.236435
    113          6           0      -14.352647    0.612121   -3.277436
    114          6           0      -14.263104   -0.710990   -2.918146
    115          6           0      -15.115504   -0.849850   -1.769495
    116          6           0      -13.656229    1.389929   -4.370806
    117          6           0      -13.726069   -2.022136   -3.235934
    118          8           0      -12.970274   -2.252974   -4.202882
    119          6           0      -14.408164   -3.102495   -2.202737
    120          6           0      -15.346916   -4.097242   -2.852944
    121          8           0      -16.296419   -3.710118   -3.562474
    122          8           0      -14.912018   -5.415536   -2.710199
    123          6           0      -15.551184   -6.315129   -3.663487
    124          1           0      -18.484049   -2.301440    3.386693
    125          1           0      -19.354841    3.790232    2.001552
    126          1           0      -15.118635    3.403551   -2.719939
    127          1           0      -16.326926   -4.562456   -0.273603
    128          1           0      -16.372463   -4.164515    2.590829
    129          1           0      -18.261882   -5.217865    0.861714
    130          1           0      -18.890753   -3.789237    1.591446
    131          1           0      -18.243470   -5.224479    2.617463
    132          1           0      -14.472335   -4.515513    2.016778
    133          1           0      -13.699144   -3.789039    0.657772
    134          1           0      -13.328612   -5.783370   -0.362112
    135          1           0      -14.993653   -6.311634   -0.154352
    136          1           0      -21.288113   -0.850638    4.728101
    137          1           0      -20.104319   -0.153416    5.627909
    138          1           0      -19.663553   -1.633976    4.922002
    139          1           0      -21.401502    1.581841    5.723213
    140          1           0      -22.399485    0.962207    4.420763
    141          1           0      -22.703269    2.683937    4.996613
    142          1           0      -17.556074    5.452986    0.790821
    143          1           0      -16.700369    5.030663   -2.005684
    144          1           0      -19.854716    4.663889   -0.459870
    145          1           0      -18.999668    5.598879   -1.778311
    146          1           0      -19.448567    6.276696   -0.185670
    147          1           0      -14.758157    4.578359    0.006214
    148          1           0      -15.468327    6.115241    0.450657
    149          1           0      -14.124324    7.151599   -0.815191
    150          1           0      -14.857854    6.499247   -2.267161
    151          1           0      -13.425760    5.671484   -1.364199
    152          1           0      -13.962116    2.430887   -4.267808
    153          1           0      -14.053076    1.054938   -5.328875
    154          1           0      -12.582763    1.208422   -4.321609
    155          1           0      -13.609632   -3.592708   -1.645827
    156          1           0      -14.898599   -6.710778   -4.440514
    157          1           0      -16.425782   -5.892266   -4.158026
    158          1           0      -15.917174   -7.160241   -3.081010
 ---------------------------------------------------------------------

 SCF Done:  E(RCAM-B3LYP) =  -4069.80192760     A.U. after   18 cycles

 Excitation energies and oscillator strengths:

 Excited State   1:      Singlet-A      1.6965 eV  730.82 nm  f=0.5660  <S**2>=0.000
     309 -> 316        0.12666
     310 -> 315       -0.12148
     311 -> 313       -0.46624
     312 -> 314        0.50496
 This state for optimization and/or second-order correction.
 Total Energy, E(TD-HF/TD-DFT) =  -4069.73958242
 Copying the excited state density for this state as the 1-particle RhoCI density.

 Excited State   2:      Singlet-A      1.6996 eV  729.50 nm  f=0.2515  <S**2>=0.000
     309 -> 316        0.11787
     310 -> 315        0.13165
     311 -> 313        0.50295
     312 -> 314        0.46787

 Excited State   3:      Singlet-A      2.2225 eV  557.87 nm  f=0.0933  <S**2>=0.000
     310 -> 313        0.63225
     311 -> 315       -0.30143

 Excited State   4:      Singlet-A      2.2865 eV  542.25 nm  f=0.0918  <S**2>=0.000
     309 -> 314        0.63010
     312 -> 316       -0.31285

 Excited State   5:      Singlet-A      2.9942 eV  414.09 nm  f=0.0000  <S**2>=0.000
     312 -> 313        0.70709

 The electronic state is 1-A.
 Alpha  occ. eigenvalues --  -46.88436 -46.87876 -19.26756 -19.24418 -19.20909
 Alpha  occ. eigenvalues --  -19.19985 -19.19076 -19.18659 -19.18598 -19.18256
 Alpha  occ. eigenvalues --  -14.42712 -14.42621 -14.42040 -14.41705 -14.39739
 Alpha  occ. eigenvalues --  -14.39422 -14.39047 -14.38437 -10.40892 -10.37964
 Alpha  occ. eigenvalues --  -10.36562 -10.35581 -10.34977 -10.34646 -10.32106
 Alpha  occ. eigenvalues --  -10.31800 -10.31647 -10.31597 -10.31125 -10.31112
 Alpha  occ. eigenvalues --  -10.31016 -10.30703 -10.30441 -10.30389 -10.30175
 Alpha  occ. eigenvalues --  -10.30012 -10.29836 -10.29804 -10.29696 -10.29609
 Alpha  occ. eigenvalues --  -10.29558 -10.29191 -10.29066 -10.28992 -10.28918
 Alpha  occ. eigenvalues --  -10.28619 -10.28294 -10.28292 -10.28136 -10.28110
 Alpha  occ. eigenvalues --  -10.28103 -10.28070 -10.27773 -10.27532 -10.27530
 Alpha  occ. eigenvalues --  -10.27523 -10.27518 -10.27415 -10.27351 -10.27275
 Alpha  occ. eigenvalues --  -10.27260 -10.27214 -10.27138 -10.27130 -10.27058
 Alpha  occ. eigenvalues --  -10.27030 -10.26998 -10.26947 -10.26940 -10.26862
 Alpha  occ. eigenvalues --  -10.26855 -10.26561 -10.26251 -10.26199 -10.26195
 Alpha  occ. eigenvalues --  -10.26150 -10.25974 -10.25776 -10.25745 -10.25591
 Alpha  occ. eigenvalues --  -10.25581 -10.25552 -10.25489 -10.25483 -10.25272
 Alpha  occ. eigenvalues --  -10.25239  -3.17088  -3.16536  -1.91969  -1.91527
 Alpha  occ. eigenvalues --   -1.91451  -1.91416  -1.90992  -1.90838  -1.16400
 Alpha  occ. eigenvalues --   -1.15845  -1.10979  -1.10161  -1.09489  -1.09100
 Alpha  occ. eigenvalues --   -1.08016  -1.06731  -1.05239  -1.04108  -1.03974
 Alpha  occ. eigenvalues --   -1.03352  -1.03314  -1.02699  -1.02351  -1.01939
 Alpha  occ. eigenvalues --   -0.92690  -0.92432  -0.89213  -0.89171  -0.88802
 Alpha  occ. eigenvalues --   -0.88709  -0.88331  -0.88088  -0.87570  -0.87385
 Alpha  occ. eigenvalues --   -0.87283  -0.86972  -0.86701  -0.86177  -0.84641
 Alpha  occ. eigenvalues --   -0.84344  -0.83717  -0.83705  -0.82775  -0.82637
 Alpha  occ. eigenvalues --   -0.82470  -0.81987  -0.81410  -0.81262  -0.80741
 Alpha  occ. eigenvalues --   -0.80288  -0.78792  -0.78486  -0.77794  -0.77663
 Alpha  occ. eigenvalues --   -0.77281  -0.76987  -0.76280  -0.75892  -0.75147
 Alpha  occ. eigenvalues --   -0.74761  -0.72778  -0.72505  -0.71814  -0.71026
 Alpha  occ. eigenvalues --   -0.69387  -0.69057  -0.68946  -0.68460  -0.68226
 Alpha  occ. eigenvalues --   -0.67973  -0.66915  -0.66773  -0.65547  -0.65423
 Alpha  occ. eigenvalues --   -0.65394  -0.65048  -0.64953  -0.64678  -0.64410
 Alpha  occ. eigenvalues --   -0.64203  -0.62650  -0.61423  -0.60528  -0.60344
 Alpha  occ. eigenvalues --   -0.59830  -0.59753  -0.58977  -0.58952  -0.58828
 Alpha  occ. eigenvalues --   -0.58580  -0.58390  -0.57957  -0.57375  -0.57299
 Alpha  occ. eigenvalues --   -0.56361  -0.56313  -0.55751  -0.55486  -0.55408
 Alpha  occ. eigenvalues --   -0.55173  -0.54981  -0.54783  -0.54573  -0.53826
 Alpha  occ. eigenvalues --   -0.53804  -0.53572  -0.53191  -0.53155  -0.52963
 Alpha  occ. eigenvalues --   -0.52656  -0.52591  -0.52510  -0.52345  -0.52075
 Alpha  occ. eigenvalues --   -0.51889  -0.51673  -0.51545  -0.51329  -0.51312
 Alpha  occ. eigenvalues --   -0.51192  -0.50990  -0.50882  -0.50841  -0.50490
 Alpha  occ. eigenvalues --   -0.50303  -0.50299  -0.49930  -0.49666  -0.49436
 Alpha  occ. eigenvalues --   -0.49429  -0.49344  -0.49213  -0.49137  -0.48990
 Alpha  occ. eigenvalues --   -0.48846  -0.48680  -0.48623  -0.48377  -0.48227
 Alpha  occ. eigenvalues --   -0.48201  -0.48010  -0.47720  -0.47447  -0.47294
 Alpha  occ. eigenvalues --   -0.47101  -0.47078  -0.46835  -0.46810  -0.46589
 Alpha  occ. eigenvalues --   -0.46541  -0.46536  -0.46250  -0.46078  -0.46064
 Alpha  occ. eigenvalues --   -0.46004  -0.45732  -0.45425  -0.45150  -0.45111
 Alpha  occ. eigenvalues --   -0.44798  -0.44628  -0.44405  -0.44385  -0.44239
 Alpha  occ. eigenvalues --   -0.44199  -0.44090  -0.44010  -0.43870  -0.43681
 Alpha  occ. eigenvalues --   -0.43669  -0.43366  -0.43257  -0.43054  -0.42907
 Alpha  occ. eigenvalues --   -0.42808  -0.42727  -0.42701  -0.41954  -0.41824
 Alpha  occ. eigenvalues --   -0.41781  -0.41758  -0.41508  -0.41281  -0.41179
 Alpha  occ. eigenvalues --   -0.40963  -0.40841  -0.40615  -0.40378  -0.40234
 Alpha  occ. eigenvalues --   -0.40198  -0.39559  -0.39504  -0.39275  -0.39188
 Alpha  occ. eigenvalues --   -0.38787  -0.38350  -0.37867  -0.37772  -0.37485
 Alpha  occ. eigenvalues --   -0.37474  -0.37260  -0.36883  -0.36476  -0.36287
 Alpha  occ. eigenvalues --   -0.36165  -0.36051  -0.35211  -0.34493  -0.34066
 Alpha  occ. eigenvalues --   -0.33982  -0.32982  -0.32941  -0.31610  -0.31446
 Alpha  occ. eigenvalues --   -0.31304  -0.30966  -0.30747  -0.30445  -0.30207
 Alpha  occ. eigenvalues --   -0.29835  -0.29716  -0.29046  -0.24226  -0.24203
 Alpha  occ. eigenvalues --   -0.21125  -0.20832
 Alpha virt. eigenvalues --   -0.08794  -0.08482  -0.01873  -0.01372  -0.00100
 Alpha virt. eigenvalues --    0.00618   0.01728   0.02273   0.02733   0.02747
 Alpha virt. eigenvalues --    0.03375   0.04474   0.04700   0.05244   0.05487

 Mulliken charges:
               1
     1  Mg  12.002228
     2  C    6.015880
     3  C    5.985617
     4  C    5.983860
     5  C    6.011606
     6  N    7.003923
     7  C    5.974040
     8  C    6.005091
     9  C    5.995092
    10  C    6.020254
    11  C    5.999226
    12  C    6.003640
    13  C    5.999068
    14  H    1.000597
    15  N    6.994238
    16  C    6.028467
    17  C    6.019334
    18  C    6.006101
    19  C    6.027538
    20  C    5.995250
    21  C    6.008716
    22  O    8.014934
    23  C    5.994476
    24  N    6.996968
    25  C    6.031472
    26  C    5.993032
    27  C    6.010456
    28  C    5.973697
    29  C    5.998272
    30  C    6.002125
    31  C    6.000296
    32  N    7.004057
    33  C    5.973823
    34  C    5.978484
    35  C    5.997719
    36  C    5.975620
    37  C    6.002080
    38  C    5.989148
    39  O    7.978649
    40  C    5.997528
    41  C    5.997474
    42  O    7.996845
    43  O    7.999272
    44  C    6.001002
    45  H    1.005862
    46  H    1.006253
    47  H    0.991955
    48  H    1.000278
    49  H    0.999780
    50  H    0.996640
    51  H    1.000424
    52  H    1.008944
    53  H    0.995387
    54  H    1.003773
    55  H    0.995050
    56  H    0.998286
    57  H    1.015310
    58  H    1.016069
    59  H    1.015020
    60  H    1.003553
    61  H    1.010179
    62  H    1.005265
    63  H    0.999562
    64  H    0.998228
    65  H    1.001548
    66  H    0.997710
    67  H    1.009133
    68  H    1.002251
    69  H    0.991474
    70  H    1.003049
    71  H    0.995918
    72  H    0.998556
    73  H    0.986375
    74  H    0.989605
    75  H    0.984708
    76  H    0.995047
    77  H    0.997452
    78  H    0.998743
    79  H    0.995418
    80  Mg  12.002149
    81  C    6.021373
    82  C    5.983647
    83  C    5.985918
    84  C    6.018154
    85  N    7.004864
    86  C    5.969878
    87  C    6.007803
    88  C    5.989991
    89  C    6.025438
    90  C    5.999264
    91  C    6.003451
    92  C    6.002176
    93  H    0.992378
    94  N    6.994319
    95  C    6.032802
    96  C    6.017479
    97  C    6.008852
    98  C    6.032080
    99  C    5.993697
   100  C    6.009664
   101  O    8.017635
   102  C    5.998398
   103  N    7.000705
   104  C    6.023200
   105  C    5.993851
   106  C    6.007321
   107  C    5.975235
   108  C    6.001287
   109  C    6.001194
   110  C    6.001689
   111  N    7.001919
   112  C    5.964665
   113  C    5.976917
   114  C    5.998243
   115  C    5.971387
   116  C    6.003689
   117  C    5.987819
   118  O    7.978449
   119  C    5.995353
   120  C    5.995874
   121  O    7.997534
   122  O    7.997908
   123  C    6.002703
   124  H    1.006164
   125  H    1.006039
   126  H    0.993188
   127  H    0.998761
   128  H    1.004317
   129  H    1.009477
   130  H    0.994965
   131  H    1.001792
   132  H    0.991303
   133  H    1.003157
   134  H    1.002648
   135  H    0.998655
   136  H    1.017978
   137  H    1.015207
   138  H    1.015026
   139  H    1.004037
   140  H    1.003746
   141  H    1.010986
   142  H    1.000033
   143  H    1.000492
   144  H    0.995947
   145  H    1.009030
   146  H    1.001407
   147  H    1.000527
   148  H    0.990642
   149  H    0.996119
   150  H    0.999160
   151  H    1.002880
   152  H    0.984966
   153  H    0.984390
   154  H    0.985120
   155  H    0.993345
   156  H    0.997741
   157  H    0.997550
   158  H    0.994852
 Sum of Mulliken charges = 624.00000

 Dipole moment (field-independent basis, Debye):
    X=            -12.5371    Y=              2.0153    Z=              3.8345  Tot=             13.2644
 Quadrupole moment (field-independent basis, Debye-Ang):
   XX=            -49.8838   YY=             -3.1935   ZZ=              3.1867
   XY=            -13.9770   XZ=           -147.4723   YZ=             -0.4687

 Normal termination of Gaussian 16 at Thu Sep 23 01:18:29 2021.
