 Gaussian 16, Revision A.03,
 Gaussian 16:  ES64L-G16RevA.03 25-Dec-2016

 ----------------------------------------------------------
 #p cam-b3lyp/Def2SVP td=(nstates=5) density=(transition=1)
 ----------------------------------------------------------

 --------------------------------
 TDDFT excited states in gaussian
 --------------------------------
 Symbolic Z-matrix:
 Charge =  0 Multiplicity = 1

                         Standard orientation:
 ---------------------------------------------------------------------
 Center     Atomic      Atomic             Coordinates (Angstroms)
 Number     Number       Type             X           Y           Z
 ---------------------------------------------------------------------
      1         12           0       13.557023   -0.551394    0.186477
      2          6           0       11.453923    2.198402   -0.354858
      3          6           0       16.310114    1.535387   -0.589297
      4          6           0       15.586256   -3.268152    0.362308
      5          6           0       10.772958   -2.593453    0.189324
      6          7           0       13.806537    1.611648   -0.226939
      7          6           0       12.772679    2.552358   -0.212856
      8          6           0       13.388073    3.991177   -0.072306
      9          6           0       14.888874    3.729531   -0.243978
     10          6           0       15.023947    2.176113   -0.414558
     11          6           0       15.434000    4.495135   -1.479665
     12          6           0       12.952946    4.577718    1.265091
     13          6           0       12.842902    6.089256    1.380557
     14          1           0       13.470637    6.955635    0.265332
     15          7           0       15.652471   -0.874576   -0.054549
     16          6           0       16.602399    0.104953   -0.401291
     17          6           0       17.924095   -0.485080   -0.521212
     18          6           0       17.801891   -1.890864   -0.185849
     19          6           0       16.302627   -2.064197    0.038161
     20          6           0       19.211076    0.316395   -0.754786
     21          6           0       18.851541   -2.979602   -0.071295
     22          8           0       18.530019   -4.116321    0.248385
     23          6           0       20.280171   -2.597805   -0.142069
     24          7           0       13.185989   -2.645857    0.333797
     25          6           0       14.197815   -3.545252    0.484486
     26          6           0       13.610554   -4.944606    0.805366
     27          6           0       12.047132   -4.731289    0.818053
     28          6           0       11.950943   -3.209197    0.537990
     29          6           0       14.090392   -5.977106   -0.230403
     30          6           0       11.352857   -5.063315    2.165589
     31          6           0       10.679571   -6.428137    2.059477
     32          7           0       11.498565   -0.360054   -0.135683
     33          6           0       10.477964   -1.250095   -0.182392
     34          6           0        9.278188   -0.522486   -0.662901
     35          6           0        9.568190    0.810325   -0.641296
     36          6           0       10.956860    0.847263   -0.355234
     37          6           0        7.955819   -1.235473   -0.890326
     38          6           0        9.057236    2.178441   -0.799821
     39          8           0        7.931078    2.553804   -1.102665
     40          6           0       10.243840    3.083578   -0.530617
     41          6           0       10.291154    4.017721   -1.666514
     42          8           0       10.709305    3.854091   -2.820686
     43          8           0        9.687955    5.190835   -1.261538
     44          6           0        9.562781    6.234796   -2.255321
     45          1           0       17.138709    2.227182   -0.753171
     46          1           0       16.317116   -4.066408    0.507752
     47          1           0        9.956852   -3.315291    0.114998
     48          1           0       12.938679    4.480407   -0.937329
     49          1           0       15.373589    4.220634    0.599749
     50          1           0       15.732166    3.863661   -2.316759
     51          1           0       16.415252    4.870762   -1.190966
     52          1           0       14.716660    5.219304   -1.865316
     53          1           0       13.647443    4.142622    1.984391
     54          1           0       12.002045    4.130035    1.551588
     55          1           0       13.239587    6.392824    2.348422
     56          1           0       11.760545    6.217550    1.417728
     57          1           0       19.041526    1.368437   -0.984830
     58          1           0       19.769133   -0.113425   -1.587681
     59          1           0       19.866937    0.175913    0.103595
     60          1           0       20.513585   -1.968695    0.717269
     61          1           0       20.540443   -2.233885   -1.135983
     62          1           0       20.936176   -3.456083    0.003579
     63          1           0       14.018619   -5.258247    1.765933
     64          1           0       11.679909   -5.284308   -0.047469
     65          1           0       13.317006   -6.514648   -0.778294
     66          1           0       14.573518   -6.683098    0.444731
     67          1           0       14.697980   -5.564370   -1.035263
     68          1           0       10.473935   -4.432956    2.301828
     69          1           0       12.026575   -5.049537    3.022546
     70          1           0       10.986550   -6.936218    2.973525
     71          1           0       11.093159   -7.072712    1.284246
     72          1           0        9.592513   -6.409559    1.976792
     73          1           0        8.009266   -2.324395   -0.903258
     74          1           0        7.463981   -0.923082   -1.810711
     75          1           0        7.329784   -1.076656   -0.011576
     76          1           0       10.061188    3.594913    0.413958
     77          1           0        9.106755    5.792173   -3.141257
     78          1           0       10.515687    6.680513   -2.541481
     79          1           0        8.721684    6.837139   -1.913725
     80         12           0      -13.252742   -0.732724   -0.117784
     81          6           0      -11.906980    2.235663    0.995554
     82          6           0      -15.566968    1.167192   -2.067901
     83          6           0      -14.818286   -3.494736   -0.944244
     84          6           0      -11.082338   -2.535358    1.932436
     85          7           0      -13.614277    1.453047   -0.442273
     86          6           0      -12.924924    2.468203    0.086713
     87          6           0      -13.446943    3.808224   -0.526892
     88          6           0      -14.716923    3.391907   -1.401581
     89          6           0      -14.673767    1.858061   -1.260595
     90          6           0      -16.078124    3.818974   -0.886910
     91          6           0      -12.388042    4.629339   -1.277994
     92          6           0      -12.363459    6.071571   -0.800441
     93          1           0      -11.890923    7.204144   -1.723535
     94          7           0      -14.907781   -1.097156   -1.402469
     95          6           0      -15.678231   -0.240217   -2.134325
     96          6           0      -16.628638   -0.908072   -2.906080
     97          6           0      -16.539785   -2.291982   -2.523679
     98          6           0      -15.367404   -2.357720   -1.584127
     99          6           0      -17.574936   -0.219819   -3.879065
    100          6           0      -17.437576   -3.453070   -2.918895
    101          8           0      -17.286079   -4.544683   -2.336847
    102          6           0      -18.548516   -3.291825   -3.874488
    103          7           0      -12.946404   -2.674894    0.401979
    104          6           0      -13.692634   -3.713578   -0.115762
    105          6           0      -13.294549   -5.137939    0.422495
    106          6           0      -11.914235   -4.771080    1.117355
    107          6           0      -11.981359   -3.234131    1.179024
    108          6           0      -14.240709   -5.947713    1.394337
    109          6           0      -10.575398   -5.426733    0.547282
    110          6           0      -10.037730   -4.809900   -0.716892
    111          7           0      -11.901044   -0.320783    1.284784
    112          6           0      -11.074741   -1.109958    2.061999
    113          6           0      -10.217898   -0.347439    2.874626
    114          6           0      -10.498075    0.955912    2.448266
    115          6           0      -11.532747    0.946587    1.467933
    116          6           0       -9.223909   -0.964868    3.763286
    117          6           0      -10.153568    2.283345    2.785442
    118          8           0       -9.404826    2.661264    3.688764
    119          6           0      -11.040899    3.237819    1.828051
    120          6           0      -11.829028    4.136523    2.652916
    121          8           0      -12.815077    3.855184    3.294905
    122          8           0      -11.255185    5.331931    2.712256
    123          6           0      -11.811189    6.328653    3.576672
    124          1           0      -16.302017    1.756459   -2.619326
    125          1           0      -15.235159   -4.487592   -1.123865
    126          1           0      -10.423161   -3.137969    2.560843
    127          1           0      -13.793296    4.307476    0.377472
    128          1           0      -14.595727    3.919034   -2.348576
    129          1           0      -16.048596    4.468695   -0.011700
    130          1           0      -16.648932    2.948017   -0.565988
    131          1           0      -16.678698    4.208060   -1.709671
    132          1           0      -12.484060    4.621336   -2.363867
    133          1           0      -11.421094    4.160121   -1.098007
    134          1           0      -11.626518    6.105033    0.002810
    135          1           0      -13.377694    6.293240   -0.468873
    136          1           0      -17.283118    0.814462   -4.061581
    137          1           0      -18.552406   -0.122608   -3.406107
    138          1           0      -17.724658   -0.822572   -4.774040
    139          1           0      -19.287021   -4.084254   -3.747837
    140          1           0      -18.126847   -3.417977   -4.872157
    141          1           0      -19.029922   -2.323971   -3.736561
    142          1           0      -12.976103   -5.808320   -0.376441
    143          1           0      -11.910932   -5.196279    2.120222
    144          1           0      -15.137823   -5.351080    1.554837
    145          1           0      -13.809866   -5.933037    2.396255
    146          1           0      -14.506384   -6.970493    1.125493
    147          1           0      -10.837386   -6.448562    0.273911
    148          1           0       -9.780038   -5.525960    1.284982
    149          1           0       -8.954171   -4.917609   -0.682503
    150          1           0      -10.288678   -3.787007   -0.994828
    151          1           0      -10.454160   -5.389678   -1.540645
    152          1           0       -8.789567   -1.922578    3.477633
    153          1           0       -9.465003   -0.963916    4.825604
    154          1           0       -8.430500   -0.218708    3.728607
    155          1           0      -10.354450    3.815739    1.209564
    156          1           0      -12.572708    6.930757    3.079713
    157          1           0      -11.001547    7.013273    3.828737
    158          1           0      -12.260846    5.853488    4.448655
 ---------------------------------------------------------------------

 SCF Done:  E(RCAM-B3LYP) =  -4069.82102729     A.U. after   19 cycles

 Excitation energies and oscillator strengths:

 Excited State   1:      Singlet-A      1.6778 eV  738.98 nm  f=0.4592  <S**2>=0.000
     310 -> 315       -0.17207
     312 -> 314        0.68382
     310 <- 315       -0.10403
 This state for optimization and/or second-order correction.
 Total Energy, E(TD-HF/TD-DFT) =  -4069.75937035
 Copying the excited state density for this state as the 1-particle RhoCI density.

 Excited State   2:      Singlet-A      1.7070 eV  726.34 nm  f=0.3606  <S**2>=0.000
     309 -> 316        0.17184
     311 -> 313        0.68342
     309 <- 316        0.10486

 Excited State   3:      Singlet-A      2.1967 eV  564.40 nm  f=0.1134  <S**2>=0.000
     310 -> 314        0.64501
     312 -> 315        0.27381

 Excited State   4:      Singlet-A      2.2215 eV  558.11 nm  f=0.1641  <S**2>=0.000
     309 -> 313        0.65310
     311 -> 316       -0.25400

 Excited State   5:      Singlet-A      2.8734 eV  431.49 nm  f=0.0000  <S**2>=0.000
     312 -> 313        0.70707

 The electronic state is 1-A.
 Alpha  occ. eigenvalues --  -46.89090 -46.87624 -19.24765 -19.24420 -19.19760
 Alpha  occ. eigenvalues --  -19.19263 -19.19182 -19.18564 -19.18527 -19.18187
 Alpha  occ. eigenvalues --  -14.42238 -14.42161 -14.42106 -14.41713 -14.40092
 Alpha  occ. eigenvalues --  -14.39653 -14.39174 -14.38902 -10.39328 -10.38241
 Alpha  occ. eigenvalues --  -10.35456 -10.35370 -10.34814 -10.34446 -10.31964
 Alpha  occ. eigenvalues --  -10.31441 -10.31179 -10.31159 -10.31127 -10.31124
 Alpha  occ. eigenvalues --  -10.31096 -10.30964 -10.30932 -10.30677 -10.30621
 Alpha  occ. eigenvalues --  -10.30097 -10.30059 -10.29511 -10.29322 -10.29319
 Alpha  occ. eigenvalues --  -10.29019 -10.28992 -10.28929 -10.28565 -10.28498
 Alpha  occ. eigenvalues --  -10.28455 -10.28370 -10.28223 -10.28214 -10.28202
 Alpha  occ. eigenvalues --  -10.28143 -10.28019 -10.27898 -10.27749 -10.27740
 Alpha  occ. eigenvalues --  -10.27640 -10.27638 -10.27607 -10.27590 -10.27573
 Alpha  occ. eigenvalues --  -10.27540 -10.27530 -10.27439 -10.27367 -10.27234
 Alpha  occ. eigenvalues --  -10.27129 -10.26760 -10.26739 -10.26534 -10.26501
 Alpha  occ. eigenvalues --  -10.26472 -10.26268 -10.26256 -10.26216 -10.26201
 Alpha  occ. eigenvalues --  -10.26126 -10.26116 -10.25682 -10.25504 -10.25500
 Alpha  occ. eigenvalues --  -10.25478 -10.25241 -10.24987 -10.24913 -10.24745
 Alpha  occ. eigenvalues --  -10.24578  -3.17487  -3.16409  -1.92401  -1.91902
 Alpha  occ. eigenvalues --   -1.91819  -1.91307  -1.90880  -1.90713  -1.17871
 Alpha  occ. eigenvalues --   -1.15758  -1.10435  -1.09976  -1.08789  -1.08449
 Alpha  occ. eigenvalues --   -1.07736  -1.06831  -1.04533  -1.04293  -1.03641
 Alpha  occ. eigenvalues --   -1.03271  -1.02761  -1.02609  -1.02486  -1.01600
 Alpha  occ. eigenvalues --   -0.93339  -0.92026  -0.89303  -0.89237  -0.88757
 Alpha  occ. eigenvalues --   -0.88711  -0.88285  -0.87940  -0.87590  -0.87456
 Alpha  occ. eigenvalues --   -0.87081  -0.86827  -0.86726  -0.85569  -0.84533
 Alpha  occ. eigenvalues --   -0.84281  -0.83856  -0.83805  -0.82890  -0.82698
 Alpha  occ. eigenvalues --   -0.82359  -0.82344  -0.81121  -0.80866  -0.80534
 Alpha  occ. eigenvalues --   -0.79993  -0.78282  -0.78071  -0.77273  -0.77233
 Alpha  occ. eigenvalues --   -0.76833  -0.76783  -0.75929  -0.75921  -0.75225
 Alpha  occ. eigenvalues --   -0.74510  -0.73390  -0.72507  -0.71393  -0.70980
 Alpha  occ. eigenvalues --   -0.69591  -0.69032  -0.68778  -0.68465  -0.67895
 Alpha  occ. eigenvalues --   -0.67732  -0.67084  -0.67043  -0.65400  -0.65332
 Alpha  occ. eigenvalues --   -0.64887  -0.64859  -0.64606  -0.64546  -0.64325
 Alpha  occ. eigenvalues --   -0.63867  -0.62283  -0.62095  -0.60368  -0.60098
 Alpha  occ. eigenvalues --   -0.59942  -0.59617  -0.59062  -0.58933  -0.58763
 Alpha  occ. eigenvalues --   -0.58452  -0.58324  -0.58288  -0.57622  -0.57611
 Alpha  occ. eigenvalues --   -0.56466  -0.56144  -0.55858  -0.55738  -0.55057
 Alpha  occ. eigenvalues --   -0.55034  -0.54745  -0.54614  -0.54301  -0.53607
 Alpha  occ. eigenvalues --   -0.53575  -0.53473  -0.53387  -0.53289  -0.53108
 Alpha  occ. eigenvalues --   -0.52879  -0.52790  -0.52716  -0.52449  -0.52292
 Alpha  occ. eigenvalues --   -0.52066  -0.51858  -0.51693  -0.51662  -0.51346
 Alpha  occ. eigenvalues --   -0.51267  -0.50743  -0.50307  -0.50244  -0.50236
 Alpha  occ. eigenvalues --   -0.49905  -0.49802  -0.49606  -0.49588  -0.49412
 Alpha  occ. eigenvalues --   -0.49282  -0.49223  -0.49200  -0.49084  -0.48994
 Alpha  occ. eigenvalues --   -0.48902  -0.48616  -0.48337  -0.48140  -0.48085
 Alpha  occ. eigenvalues --   -0.47831  -0.47718  -0.47370  -0.47271  -0.47105
 Alpha  occ. eigenvalues --   -0.46819  -0.46704  -0.46443  -0.46370  -0.46316
 Alpha  occ. eigenvalues --   -0.46004  -0.45963  -0.45859  -0.45478  -0.45365
 Alpha  occ. eigenvalues --   -0.45204  -0.45090  -0.44957  -0.44866  -0.44706
 Alpha  occ. eigenvalues --   -0.44527  -0.44421  -0.44365  -0.44313  -0.44191
 Alpha  occ. eigenvalues --   -0.43834  -0.43576  -0.43568  -0.43434  -0.43373
 Alpha  occ. eigenvalues --   -0.43179  -0.43149  -0.43008  -0.42773  -0.42619
 Alpha  occ. eigenvalues --   -0.42593  -0.42466  -0.42333  -0.41936  -0.41855
 Alpha  occ. eigenvalues --   -0.41526  -0.41502  -0.41450  -0.41266  -0.41216
 Alpha  occ. eigenvalues --   -0.41053  -0.41034  -0.40930  -0.40424  -0.40408
 Alpha  occ. eigenvalues --   -0.39942  -0.39139  -0.38898  -0.38824  -0.38441
 Alpha  occ. eigenvalues --   -0.38135  -0.37999  -0.37930  -0.37726  -0.37678
 Alpha  occ. eigenvalues --   -0.37125  -0.36476  -0.36420  -0.36296  -0.36274
 Alpha  occ. eigenvalues --   -0.36122  -0.35819  -0.34332  -0.34174  -0.34059
 Alpha  occ. eigenvalues --   -0.33822  -0.33072  -0.32591  -0.31552  -0.31425
 Alpha  occ. eigenvalues --   -0.31388  -0.31247  -0.30730  -0.30470  -0.30248
 Alpha  occ. eigenvalues --   -0.30001  -0.29957  -0.29707  -0.24064  -0.23776
 Alpha  occ. eigenvalues --   -0.21421  -0.20909
 Alpha virt. eigenvalues --   -0.09040  -0.08642  -0.01437  -0.01369   0.00214
 Alpha virt. eigenvalues --    0.00545   0.01852   0.02539   0.02539   0.03232
 Alpha virt. eigenvalues --    0.05170   0.05235   0.05700   0.05727   0.05899

 Mulliken charges:
               1
     1  Mg  11.999571
     2  C    6.029110
     3  C    5.987449
     4  C    5.970456
     5  C    6.011569
     6  N    7.014841
     7  C    5.961962
     8  C    6.005807
     9  C    5.987287
    10  C    6.032520
    11  C    5.997767
    12  C    6.004683
    13  C    6.000016
    14  H    0.992829
    15  N    6.990673
    16  C    6.045542
    17  C    6.017366
    18  C    6.019777
    19  C    6.036147
    20  C    5.996021
    21  C    6.014087
    22  O    8.030781
    23  C    5.991528
    24  N    6.992780
    25  C    6.037645
    26  C    5.991349
    27  C    6.012488
    28  C    5.970452
    29  C    5.997307
    30  C    6.004850
    31  C    6.001985
    32  N    7.004330
    33  C    5.958754
    34  C    5.970547
    35  C    5.997605
    36  C    5.959580
    37  C    6.004783
    38  C    5.982049
    39  O    7.972095
    40  C    5.998909
    41  C    5.996577
    42  O    7.992304
    43  O    7.999436
    44  C    6.001703
    45  H    1.013407
    46  H    1.001379
    47  H    0.988178
    48  H    1.002735
    49  H    1.007301
    50  H    0.998848
    51  H    0.999322
    52  H    1.014064
    53  H    0.989742
    54  H    1.008088
    55  H    0.996537
    56  H    1.004467
    57  H    1.017943
    58  H    1.018769
    59  H    1.018341
    60  H    1.007658
    61  H    1.007907
    62  H    1.015978
    63  H    0.998842
    64  H    0.995920
    65  H    1.009585
    66  H    1.000374
    67  H    0.994907
    68  H    1.005076
    69  H    0.989723
    70  H    0.994102
    71  H    0.994107
    72  H    1.001388
    73  H    0.980369
    74  H    0.980069
    75  H    0.977619
    76  H    0.992506
    77  H    0.999363
    78  H    0.992921
    79  H    0.997145
    80  Mg  12.000351
    81  C    5.998261
    82  C    6.002015
    83  C    6.002483
    84  C    5.999092
    85  N    6.999472
    86  C    6.002771
    87  C    5.999209
    88  C    6.001690
    89  C    5.996764
    90  C    6.000418
    91  C    5.999828
    92  C    5.999865
    93  H    1.000518
    94  N    7.000901
    95  C    5.995549
    96  C    5.998371
    97  C    5.998081
    98  C    5.996028
    99  C    6.000371
   100  C    5.998595
   101  O    7.996794
   102  C    6.000670
   103  N    7.000028
   104  C    5.996002
   105  C    6.001657
   106  C    5.998876
   107  C    6.002808
   108  C    5.999997
   109  C    5.999475
   110  C    5.999607
   111  N    6.999531
   112  C    6.003968
   113  C    6.002813
   114  C    6.000400
   115  C    6.003684
   116  C    5.999329
   117  C    6.001793
   118  O    8.003543
   119  C    6.000333
   120  C    6.000372
   121  O    8.000532
   122  O    8.000228
   123  C    5.999745
   124  H    0.998901
   125  H    0.999318
   126  H    1.001241
   127  H    0.999687
   128  H    0.999106
   129  H    0.998397
   130  H    1.000271
   131  H    0.999611
   132  H    1.000921
   133  H    0.999590
   134  H    0.999510
   135  H    1.000289
   136  H    0.998153
   137  H    0.997846
   138  H    0.998269
   139  H    0.998216
   140  H    0.998817
   141  H    0.999348
   142  H    0.999571
   143  H    1.000160
   144  H    1.000200
   145  H    0.998737
   146  H    0.999681
   147  H    1.000974
   148  H    1.000001
   149  H    1.000446
   150  H    1.000010
   151  H    1.000961
   152  H    1.002402
   153  H    1.002258
   154  H    1.001945
   155  H    1.001239
   156  H    1.000597
   157  H    1.000471
   158  H    1.000037
 Sum of Mulliken charges = 624.00000

 Dipole moment (field-independent basis, Debye):
    X=             11.9633    Y=             -0.7617    Z=              0.7986  Tot=             12.0141
 Quadrupole moment (field-independent basis, Debye-Ang):
   XX=            277.7956   YY=             -1.6157   ZZ=             -0.8898
   XY=            -24.8120   XZ=            -13.8645   YZ=              0.8494

 Normal termination of Gaussian 16 at Wed Sep 22 22:05:22 2021.
