 Gaussian 16, Revision A.03,
 Gaussian 16:  ES64L-G16RevA.03 25-Dec-2016

 ----------------------------------------------------------
 #p cam-b3lyp/Def2SVP td=(nstates=5) density=(transition=1)
 ----------------------------------------------------------

 --------------------------------
 TDDFT excited states in gaussian
 --------------------------------
 Symbolic Z-matrix:
 Charge =  0 Multiplicity = 1

                         Standard orientation:
 ---------------------------------------------------------------------
 Center     Atomic      Atomic             Coordinates (Angstroms)
 Number     Number       Type             X           Y           Z
 ---------------------------------------------------------------------
      1         12           0       24.054425   -0.776074    0.341307
      2          6           0       24.146736    2.302119   -1.389614
      3          6           0       24.159996    0.814180    3.228241
      4          6           0       24.864912   -3.756434    1.801921
      5          6           0       24.994555   -2.334397   -2.877851
      6          7           0       24.200920    1.344151    0.814139
      7          6           0       23.981902    2.392137   -0.006252
      8          6           0       23.715105    3.650689    0.842535
      9          6           0       23.694474    3.184045    2.262802
     10          6           0       24.081268    1.679356    2.136474
     11          6           0       24.544541    4.107203    3.228435
     12          6           0       22.498175    4.560669    0.466533
     13          6           0       21.629306    5.317364    1.560374
     14          1           0       21.255226    6.785751    1.310729
     15          7           0       24.208655   -1.401480    2.287106
     16          6           0       24.219121   -0.554008    3.371884
     17          6           0       24.296105   -1.362586    4.555257
     18          6           0       24.548292   -2.744204    4.197465
     19          6           0       24.601979   -2.670550    2.720708
     20          6           0       24.276895   -0.681408    5.863452
     21          6           0       24.662557   -4.013211    5.077806
     22          8           0       24.918950   -5.061564    4.584127
     23          6           0       24.210638   -3.988031    6.501636
     24          7           0       24.880221   -2.747403   -0.464066
     25          6           0       24.966926   -3.785093    0.398195
     26          6           0       25.370584   -5.112584   -0.319655
     27          6           0       25.378899   -4.691209   -1.820948
     28          6           0       25.087235   -3.171298   -1.760867
     29          6           0       26.682151   -5.713579    0.110961
     30          6           0       24.385800   -5.412824   -2.797687
     31          6           0       22.947173   -5.019854   -2.795008
     32          7           0       24.487248   -0.263053   -1.741125
     33          6           0       24.778818   -0.988700   -2.860458
     34          6           0       24.773829   -0.116436   -4.009454
     35          6           0       24.536650    1.195470   -3.521247
     36          6           0       24.415630    1.052298   -2.124080
     37          6           0       25.140968   -0.453355   -5.411548
     38          6           0       24.418902    2.584545   -3.861847
     39          8           0       24.440891    3.195834   -4.923973
     40          6           0       24.111381    3.362699   -2.504545
     41          6           0       25.007264    4.572295   -2.297688
     42          8           0       26.198244    4.505566   -2.134424
     43          8           0       24.229037    5.718879   -2.284525
     44          6           0       25.010541    6.945798   -2.125536
     45          1           0       23.991331    1.243477    4.218436
     46          1           0       25.062404   -4.684052    2.342698
     47          1           0       25.167228   -2.806760   -3.847038
     48          1           0       24.606679    4.213978    0.566991
     49          1           0       22.675171    3.304485    2.630733
     50          1           0       24.871951    4.993622    2.685390
     51          1           0       25.315124    3.485086    3.683623
     52          1           0       23.920016    4.546188    4.006705
     53          1           0       21.799053    3.930151   -0.083357
     54          1           0       22.775572    5.333492   -0.250812
     55          1           0       22.217878    5.234161    2.474245
     56          1           0       20.706409    4.761235    1.725379
     57          1           0       24.957738   -1.249184    6.497231
     58          1           0       23.272316   -0.798511    6.268185
     59          1           0       24.526775    0.374442    5.968897
     60          1           0       25.129273   -3.735484    7.029578
     61          1           0       23.728600   -4.937028    6.738445
     62          1           0       23.527227   -3.177554    6.755925
     63          1           0       24.580602   -5.861658   -0.262032
     64          1           0       26.318028   -4.683928   -2.373307
     65          1           0       27.066438   -5.230164    1.010085
     66          1           0       27.461102   -5.586308   -0.641262
     67          1           0       26.471042   -6.765199    0.303350
     68          1           0       24.412663   -6.487670   -2.618239
     69          1           0       24.820109   -5.371710   -3.796836
     70          1           0       22.692667   -4.562389   -1.838752
     71          1           0       22.158629   -5.766620   -2.890586
     72          1           0       22.833593   -4.371304   -3.664257
     73          1           0       26.153654   -0.834078   -5.541120
     74          1           0       25.273130    0.506741   -5.911021
     75          1           0       24.398440   -1.099040   -5.881239
     76          1           0       23.068193    3.671706   -2.573675
     77          1           0       24.581615    7.094478   -1.135052
     78          1           0       24.597450    7.604622   -2.888982
     79          1           0       26.086945    6.779308   -2.172439
     80         12           0      -24.842308   -0.635692   -0.172810
     81          6           0      -22.896324    2.397001   -0.333234
     82          6           0      -26.654337    0.879697    2.418999
     83          6           0      -26.702714   -3.339754   -0.090183
     84          6           0      -22.717855   -2.070738   -2.549461
     85          7           0      -24.716526    1.454007    0.920003
     86          6           0      -24.016671    2.557357    0.545742
     87          6           0      -24.520968    3.813288    1.237674
     88          6           0      -25.514648    3.249297    2.399415
     89          6           0      -25.625178    1.774719    1.914914
     90          6           0      -25.016028    3.467560    3.849909
     91          6           0      -25.217791    4.809435    0.250401
     92          6           0      -24.593207    6.228764    0.241880
     93          1           0      -25.609589    7.398481    0.766502
     94          7           0      -26.410058   -1.137779    0.962669
     95          6           0      -27.052183   -0.428186    2.033326
     96          6           0      -28.196760   -1.162132    2.623061
     97          6           0      -28.212501   -2.355132    1.828693
     98          6           0      -27.098588   -2.307774    0.866747
     99          6           0      -29.048134   -0.667250    3.794056
    100          6           0      -29.095868   -3.536939    1.959928
    101          8           0      -29.230420   -4.424498    1.124528
    102          6           0      -30.034026   -3.603119    3.181071
    103          7           0      -24.813846   -2.336664   -1.289019
    104          6           0      -25.679943   -3.347936   -1.050825
    105          6           0      -25.305835   -4.620454   -1.758686
    106          6           0      -24.059434   -4.241756   -2.595993
    107          6           0      -23.852629   -2.766933   -2.183430
    108          6           0      -25.148592   -5.825783   -0.855586
    109          6           0      -24.380841   -4.365338   -4.199891
    110          6           0      -23.356534   -5.292453   -5.054013
    111          7           0      -22.983200   -0.097247   -1.053135
    112          6           0      -22.295182   -0.789961   -2.078331
    113          6           0      -21.190041    0.063904   -2.528576
    114          6           0      -21.503123    1.328703   -1.964709
    115          6           0      -22.500837    1.147145   -1.005763
    116          6           0      -20.012736   -0.258955   -3.443754
    117          6           0      -20.929522    2.695437   -1.810467
    118          8           0      -19.911246    3.298310   -2.249903
    119          6           0      -21.917546    3.442084   -0.833117
    120          6           0      -21.115270    4.052339    0.278091
    121          8           0      -20.231485    3.490432    0.860822
    122          8           0      -21.468863    5.364358    0.429818
    123          6           0      -20.499521    6.121743    1.261261
    124          1           0      -27.095208    1.340528    3.305177
    125          1           0      -27.280765   -4.266314   -0.109901
    126          1           0      -22.063941   -2.484178   -3.319812
    127          1           0      -23.652529    4.254853    1.726549
    128          1           0      -26.522437    3.658093    2.321507
    129          1           0      -24.800595    2.514611    4.334096
    130          1           0      -25.758207    4.018474    4.429096
    131          1           0      -24.144803    4.113055    3.961546
    132          1           0      -26.273025    4.943132    0.489945
    133          1           0      -25.162445    4.458336   -0.780365
    134          1           0      -24.405819    6.607891   -0.763072
    135          1           0      -23.625043    6.313318    0.734448
    136          1           0      -29.001702    0.397185    4.026265
    137          1           0      -28.913744   -1.205310    4.732370
    138          1           0      -30.076928   -0.866694    3.492523
    139          1           0      -29.454573   -3.624890    4.103993
    140          1           0      -30.724293   -4.445758    3.128783
    141          1           0      -30.647039   -2.701853    3.178108
    142          1           0      -26.148003   -4.913624   -2.386965
    143          1           0      -23.190281   -4.828011   -2.299155
    144          1           0      -25.958795   -6.549209   -0.950878
    145          1           0      -25.167367   -5.609104    0.212434
    146          1           0      -24.185891   -6.286409   -1.078206
    147          1           0      -24.407179   -3.408998   -4.721195
    148          1           0      -25.362709   -4.795173   -4.396315
    149          1           0      -22.882052   -5.948060   -4.323578
    150          1           0      -22.617270   -4.694712   -5.588794
    151          1           0      -23.893595   -5.983925   -5.702745
    152          1           0      -19.692993    0.606367   -4.024016
    153          1           0      -20.376552   -0.946690   -4.208029
    154          1           0      -19.309404   -0.762950   -2.780715
    155          1           0      -22.313690    4.281493   -1.404012
    156          1           0      -20.390883    5.583869    2.202867
    157          1           0      -21.031393    7.045399    1.488932
    158          1           0      -19.487313    6.279502    0.889007
 ---------------------------------------------------------------------

 SCF Done:  E(RCAM-B3LYP) =  -4069.78735279     A.U. after   19 cycles

 Excitation energies and oscillator strengths:

 Excited State   1:      Singlet-A      1.6722 eV  741.45 nm  f=0.3689  <S**2>=0.000
     309 -> 315        0.18801
     311 -> 313        0.68426
     309 <- 315        0.11183
 This state for optimization and/or second-order correction.
 Total Energy, E(TD-HF/TD-DFT) =  -4069.72590142
 Copying the excited state density for this state as the 1-particle RhoCI density.

 Excited State   2:      Singlet-A      1.7017 eV  728.58 nm  f=0.3882  <S**2>=0.000
     310 -> 316        0.18701
     312 -> 314        0.68383
     310 <- 316        0.11026

 Excited State   3:      Singlet-A      2.1741 eV  570.29 nm  f=0.1328  <S**2>=0.000
     309 -> 313        0.64728
     311 -> 315       -0.27760

 Excited State   4:      Singlet-A      2.1898 eV  566.19 nm  f=0.1103  <S**2>=0.000
     310 -> 314        0.64226
     312 -> 316       -0.28260

 Excited State   5:      Singlet-A      3.0882 eV  401.48 nm  f=0.0000  <S**2>=0.000
     312 -> 313        0.70710

 The electronic state is 1-A.
 Alpha  occ. eigenvalues --  -46.89976 -46.88544 -19.25661 -19.24717 -19.20008
 Alpha  occ. eigenvalues --  -19.19760 -19.19562 -19.18966 -19.18699 -19.18613
 Alpha  occ. eigenvalues --  -14.42621 -14.42197 -14.41949 -14.41763 -14.40730
 Alpha  occ. eigenvalues --  -14.39478 -14.39264 -14.38790 -10.39100 -10.38834
 Alpha  occ. eigenvalues --  -10.35711 -10.35156 -10.35137 -10.34780 -10.31941
 Alpha  occ. eigenvalues --  -10.31843 -10.31609 -10.31591 -10.31502 -10.31303
 Alpha  occ. eigenvalues --  -10.31240 -10.31107 -10.30881 -10.30868 -10.30813
 Alpha  occ. eigenvalues --  -10.30693 -10.30681 -10.30346 -10.29993 -10.29567
 Alpha  occ. eigenvalues --  -10.29428 -10.29113 -10.29054 -10.29008 -10.28997
 Alpha  occ. eigenvalues --  -10.28920 -10.28656 -10.28642 -10.28572 -10.28544
 Alpha  occ. eigenvalues --  -10.28464 -10.28253 -10.28164 -10.28097 -10.28022
 Alpha  occ. eigenvalues --  -10.27975 -10.27909 -10.27844 -10.27813 -10.27637
 Alpha  occ. eigenvalues --  -10.27540 -10.27347 -10.27341 -10.27279 -10.27252
 Alpha  occ. eigenvalues --  -10.27158 -10.27009 -10.26771 -10.26760 -10.26703
 Alpha  occ. eigenvalues --  -10.26609 -10.26546 -10.26518 -10.26332 -10.26241
 Alpha  occ. eigenvalues --  -10.26138 -10.26125 -10.26112 -10.26068 -10.25927
 Alpha  occ. eigenvalues --  -10.25505 -10.25375 -10.25202 -10.25089 -10.24952
 Alpha  occ. eigenvalues --  -10.24861  -3.18285  -3.17188  -1.93158  -1.92749
 Alpha  occ. eigenvalues --   -1.92575  -1.92085  -1.91642  -1.91509  -1.16977
 Alpha  occ. eigenvalues --   -1.16272  -1.12881  -1.09982  -1.09192  -1.08700
 Alpha  occ. eigenvalues --   -1.08520  -1.07079  -1.04203  -1.04013  -1.03281
 Alpha  occ. eigenvalues --   -1.03122  -1.02597  -1.02464  -1.02029  -1.01818
 Alpha  occ. eigenvalues --   -0.91595  -0.91590  -0.89286  -0.88861  -0.88655
 Alpha  occ. eigenvalues --   -0.88510  -0.88239  -0.88141  -0.87427  -0.87353
 Alpha  occ. eigenvalues --   -0.87156  -0.87008  -0.86076  -0.85650  -0.84036
 Alpha  occ. eigenvalues --   -0.83985  -0.83640  -0.83184  -0.82511  -0.81979
 Alpha  occ. eigenvalues --   -0.81830  -0.81407  -0.80820  -0.80689  -0.80383
 Alpha  occ. eigenvalues --   -0.79773  -0.79109  -0.78268  -0.77139  -0.77112
 Alpha  occ. eigenvalues --   -0.77082  -0.76799  -0.76049  -0.75835  -0.75241
 Alpha  occ. eigenvalues --   -0.74633  -0.72570  -0.72309  -0.71450  -0.71433
 Alpha  occ. eigenvalues --   -0.69796  -0.69256  -0.69189  -0.68760  -0.68185
 Alpha  occ. eigenvalues --   -0.67607  -0.67104  -0.66888  -0.65934  -0.65648
 Alpha  occ. eigenvalues --   -0.64901  -0.64400  -0.64286  -0.64119  -0.64010
 Alpha  occ. eigenvalues --   -0.63993  -0.62382  -0.61687  -0.60815  -0.60009
 Alpha  occ. eigenvalues --   -0.59533  -0.59276  -0.58786  -0.58751  -0.58361
 Alpha  occ. eigenvalues --   -0.58330  -0.57979  -0.57972  -0.57368  -0.57152
 Alpha  occ. eigenvalues --   -0.56152  -0.56129  -0.55861  -0.55371  -0.55290
 Alpha  occ. eigenvalues --   -0.55077  -0.55035  -0.54566  -0.54511  -0.54041
 Alpha  occ. eigenvalues --   -0.53792  -0.53705  -0.53408  -0.53327  -0.52749
 Alpha  occ. eigenvalues --   -0.52681  -0.52577  -0.52357  -0.52168  -0.51710
 Alpha  occ. eigenvalues --   -0.51667  -0.51464  -0.51390  -0.51177  -0.50913
 Alpha  occ. eigenvalues --   -0.50861  -0.50810  -0.50597  -0.50474  -0.50279
 Alpha  occ. eigenvalues --   -0.50078  -0.50014  -0.49982  -0.49816  -0.49502
 Alpha  occ. eigenvalues --   -0.49441  -0.49223  -0.49184  -0.48964  -0.48798
 Alpha  occ. eigenvalues --   -0.48751  -0.48577  -0.48322  -0.48259  -0.48128
 Alpha  occ. eigenvalues --   -0.48020  -0.47678  -0.47578  -0.47481  -0.47189
 Alpha  occ. eigenvalues --   -0.47119  -0.47060  -0.46855  -0.46746  -0.46581
 Alpha  occ. eigenvalues --   -0.46216  -0.46010  -0.45959  -0.45762  -0.45587
 Alpha  occ. eigenvalues --   -0.45536  -0.45410  -0.45001  -0.44827  -0.44788
 Alpha  occ. eigenvalues --   -0.44611  -0.44544  -0.44388  -0.44313  -0.44112
 Alpha  occ. eigenvalues --   -0.44069  -0.43896  -0.43800  -0.43698  -0.43624
 Alpha  occ. eigenvalues --   -0.43333  -0.43229  -0.42982  -0.42912  -0.42875
 Alpha  occ. eigenvalues --   -0.42622  -0.42592  -0.42323  -0.42230  -0.42048
 Alpha  occ. eigenvalues --   -0.42017  -0.41809  -0.41558  -0.41443  -0.41325
 Alpha  occ. eigenvalues --   -0.40856  -0.40806  -0.40708  -0.40577  -0.40448
 Alpha  occ. eigenvalues --   -0.40192  -0.40109  -0.39391  -0.39174  -0.38945
 Alpha  occ. eigenvalues --   -0.38612  -0.38246  -0.38099  -0.37887  -0.37502
 Alpha  occ. eigenvalues --   -0.37367  -0.37355  -0.36884  -0.36393  -0.35891
 Alpha  occ. eigenvalues --   -0.35699  -0.35515  -0.34653  -0.34605  -0.34435
 Alpha  occ. eigenvalues --   -0.33539  -0.33134  -0.33032  -0.31775  -0.31647
 Alpha  occ. eigenvalues --   -0.31005  -0.30820  -0.30610  -0.30591  -0.30285
 Alpha  occ. eigenvalues --   -0.29812  -0.29398  -0.29325  -0.23920  -0.23806
 Alpha  occ. eigenvalues --   -0.21319  -0.21036
 Alpha virt. eigenvalues --   -0.08994  -0.08624  -0.01848  -0.01606   0.00117
 Alpha virt. eigenvalues --    0.00333   0.01175   0.02043   0.02532   0.03542
 Alpha virt. eigenvalues --    0.04215   0.04530   0.05202   0.05685   0.05708

 Mulliken charges:
               1
     1  Mg  12.000027
     2  C    5.999770
     3  C    6.000015
     4  C    6.000174
     5  C    6.000030
     6  N    6.999925
     7  C    6.000258
     8  C    5.999967
     9  C    6.000068
    10  C    5.999834
    11  C    6.000000
    12  C    5.999977
    13  C    6.000007
    14  H    1.000015
    15  N    7.000027
    16  C    5.999784
    17  C    5.999864
    18  C    5.999919
    19  C    5.999779
    20  C    6.000089
    21  C    5.999873
    22  O    7.999839
    23  C    6.000047
    24  N    7.000007
    25  C    5.999820
    26  C    6.000080
    27  C    5.999994
    28  C    6.000105
    29  C    6.000009
    30  C    5.999971
    31  C    5.999934
    32  N    7.000021
    33  C    6.000148
    34  C    6.000269
    35  C    5.999952
    36  C    6.000271
    37  C    5.999951
    38  C    6.000134
    39  O    8.000181
    40  C    5.999990
    41  C    6.000023
    42  O    7.999994
    43  O    8.000025
    44  C    5.999996
    45  H    0.999953
    46  H    0.999936
    47  H    1.000070
    48  H    0.999966
    49  H    0.999996
    50  H    0.999920
    51  H    0.999989
    52  H    0.999983
    53  H    1.000022
    54  H    0.999981
    55  H    1.000014
    56  H    1.000054
    57  H    0.999847
    58  H    0.999877
    59  H    0.999854
    60  H    0.999907
    61  H    0.999905
    62  H    0.999991
    63  H    0.999994
    64  H    0.999965
    65  H    1.000024
    66  H    0.999920
    67  H    0.999976
    68  H    1.000056
    69  H    0.999986
    70  H    1.000072
    71  H    1.000082
    72  H    0.999983
    73  H    1.000120
    74  H    1.000092
    75  H    1.000168
    76  H    1.000084
    77  H    1.000037
    78  H    1.000031
    79  H    0.999981
    80  Mg  11.995525
    81  C    6.028497
    82  C    5.993287
    83  C    5.965618
    84  C    6.011164
    85  N    7.017022
    86  C    5.963952
    87  C    6.010567
    88  C    5.987338
    89  C    6.031643
    90  C    5.997061
    91  C    6.001832
    92  C    6.002108
    93  H    0.992667
    94  N    6.993092
    95  C    6.039720
    96  C    6.024272
    97  C    6.014546
    98  C    6.032425
    99  C    5.995041
   100  C    6.011474
   101  O    8.031924
   102  C    5.995583
   103  N    6.992065
   104  C    6.040404
   105  C    5.989402
   106  C    6.012316
   107  C    5.968260
   108  C    5.999182
   109  C    6.005091
   110  C    6.000940
   111  N    7.004767
   112  C    5.953444
   113  C    5.969686
   114  C    5.995250
   115  C    5.966471
   116  C    5.999805
   117  C    5.990426
   118  O    7.968908
   119  C    5.995231
   120  C    5.993203
   121  O    7.999729
   122  O    7.998087
   123  C    6.002185
   124  H    1.013543
   125  H    1.001073
   126  H    0.987207
   127  H    1.002378
   128  H    1.001254
   129  H    0.999506
   130  H    1.003989
   131  H    1.014365
   132  H    0.990708
   133  H    1.005014
   134  H    1.003061
   135  H    1.001984
   136  H    1.016816
   137  H    1.020360
   138  H    1.016722
   139  H    1.007794
   140  H    1.015046
   141  H    1.005325
   142  H    0.998879
   143  H    0.996025
   144  H    0.997645
   145  H    0.994625
   146  H    1.010086
   147  H    1.001041
   148  H    0.987218
   149  H    0.995950
   150  H    1.002900
   151  H    0.993496
   152  H    0.984169
   153  H    0.982948
   154  H    0.982472
   155  H    0.995231
   156  H    0.995334
   157  H    0.994762
   158  H    0.999866
 Sum of Mulliken charges = 624.00000

 Dipole moment (field-independent basis, Debye):
    X=             -8.5078    Y=             -1.9703    Z=              6.3311  Tot=             10.7865
 Quadrupole moment (field-independent basis, Debye-Ang):
   XX=            421.0796   YY=             -0.2567   ZZ=              0.3570
   XY=             55.0570   XZ=           -160.6223   YZ=             -4.4180

 Normal termination of Gaussian 16 at Wed Sep 22 05:37:15 2021.
