 Gaussian 16, Revision A.03,
 Gaussian 16:  ES64L-G16RevA.03 25-Dec-2016

 -----------------------------------
 #p cam-b3lyp/Def2SVP td=(nstates=5)
 -----------------------------------

 --------------------------------
 TDDFT excited states in gaussian
 --------------------------------
 Symbolic Z-matrix:
 Charge =  0 Multiplicity = 1

                         Standard orientation:
 ---------------------------------------------------------------------
 Center     Atomic      Atomic             Coordinates (Angstroms)
 Number     Number       Type             X           Y           Z
 ---------------------------------------------------------------------
      1         12           0       28.700855    0.427940    0.554288
      2          6           0       28.389822   -2.247754   -1.802857
      3          6           0       28.949495    2.546704   -2.108808
      4          6           0       29.430117    2.738958    2.599769
      5          6           0       29.557128   -1.967123    2.936752
      6          7           0       28.658777    0.074598   -1.630666
      7          6           0       28.473887   -0.990231   -2.404699
      8          6           0       28.301894   -0.635920   -3.912099
      9          6           0       29.054104    0.769759   -3.927701
     10          6           0       28.845805    1.172810   -2.478534
     11          6           0       30.551393    0.656601   -4.195700
     12          6           0       26.797559   -0.485232   -4.319530
     13          6           0       26.527878   -0.463672   -5.826899
     14          1           0       25.312893   -1.086676   -6.329915
     15          7           0       28.647008    2.391278    0.341557
     16          6           0       28.745855    3.083130   -0.818984
     17          6           0       28.650372    4.512163   -0.450977
     18          6           0       28.678643    4.602134    1.035361
     19          6           0       28.949598    3.232131    1.388989
     20          6           0       28.498229    5.612286   -1.456130
     21          6           0       28.501611    5.743839    1.985782
     22          8           0       28.794154    5.647503    3.226633
     23          6           0       28.054555    7.021420    1.401857
     24          7           0       29.607001    0.426101    2.434855
     25          6           0       29.750879    1.558097    3.132614
     26          6           0       30.159594    1.278548    4.548504
     27          6           0       30.029467   -0.301066    4.742510
     28          6           0       29.623832   -0.683649    3.297740
     29          6           0       31.575700    1.725485    4.936968
     30          6           0       29.142628   -0.795100    5.912923
     31          6           0       27.695358   -0.450785    5.640980
     32          7           0       28.768811   -1.739707    0.642225
     33          6           0       29.177524   -2.527077    1.728354
     34          6           0       29.155180   -3.930612    1.277066
     35          6           0       28.748307   -3.860425   -0.053863
     36          6           0       28.555618   -2.497394   -0.418978
     37          6           0       29.540794   -5.060912    2.050473
     38          6           0       28.455287   -4.618140   -1.259626
     39          8           0       28.356515   -5.816281   -1.528317
     40          6           0       28.329262   -3.596893   -2.474944
     41          6           0       27.079858   -3.947936   -3.235909
     42          8           0       25.953306   -3.796817   -2.720731
     43          8           0       27.391647   -4.177934   -4.520600
     44          6           0       26.192089   -4.502961   -5.337650
     45          1           0       29.273139    3.271930   -2.857970
     46          1           0       29.588692    3.496919    3.369696
     47          1           0       29.730391   -2.775299    3.649693
     48          1           0       28.789704   -1.326846   -4.599911
     49          1           0       28.568875    1.483605   -4.593057
     50          1           0       30.877208   -0.383448   -4.203704
     51          1           0       31.034343    1.200594   -3.383713
     52          1           0       30.821854    1.182916   -5.111463
     53          1           0       26.451880    0.514037   -4.054902
     54          1           0       26.192362   -1.265180   -3.856126
     55          1           0       27.395099   -0.806619   -6.391898
     56          1           0       26.396348    0.573462   -6.135531
     57          1           0       28.676812    5.256031   -2.469903
     58          1           0       29.302524    6.324489   -1.272866
     59          1           0       27.535026    6.115603   -1.371025
     60          1           0       28.774546    7.344892    0.649841
     61          1           0       27.896939    7.697113    2.241766
     62          1           0       27.113554    6.858964    0.875478
     63          1           0       29.497761    1.780677    5.252968
     64          1           0       30.995937   -0.771836    4.924134
     65          1           0       31.601825    2.407504    5.787187
     66          1           0       32.039407    2.175985    4.059861
     67          1           0       32.267976    0.912602    5.154663
     68          1           0       29.423024   -0.294032    6.838804
     69          1           0       29.213380   -1.869538    6.082712
     70          1           0       27.622154    0.580923    5.983108
     71          1           0       27.035161   -1.100667    6.216308
     72          1           0       27.478924   -0.455898    4.572515
     73          1           0       28.789378   -5.828287    1.864791
     74          1           0       29.601086   -4.813725    3.110127
     75          1           0       30.516407   -5.279233    1.616456
     76          1           0       29.226038   -3.719290   -3.081521
     77          1           0       26.379950   -5.464682   -5.815180
     78          1           0       26.015126   -3.643105   -5.983976
     79          1           0       25.277724   -4.722563   -4.785336
     80         12           0      -29.200158   -0.542355   -0.462647
     81          6           0      -26.394260    1.779174   -0.413790
     82          6           0      -27.032021   -2.953609    0.666341
     83          6           0      -31.806909   -2.146327    0.884400
     84          6           0      -31.167227    1.931194   -1.711060
     85          7           0      -26.978434   -0.495424    0.250620
     86          6           0      -26.012749    0.563903    0.098279
     87          6           0      -24.611823    0.020236    0.392574
     88          6           0      -24.782429   -1.527287    0.362407
     89          6           0      -26.358957   -1.740433    0.417393
     90          6           0      -24.171107   -2.215295   -0.948554
     91          6           0      -23.881552    0.602488    1.567331
     92          6           0      -24.715752    1.378253    2.613940
     93          1           0      -24.202426    1.998875    3.926105
     94          7           0      -29.412041   -2.404840    0.521039
     95          6           0      -28.383273   -3.234297    0.909393
     96          6           0      -28.982510   -4.481324    1.479090
     97          6           0      -30.330475   -4.166587    1.631077
     98          6           0      -30.602498   -2.848327    1.062948
     99          6           0      -28.125731   -5.635467    1.862557
    100          6           0      -31.377161   -5.088786    2.321491
    101          8           0      -30.976299   -6.116657    2.838091
    102          6           0      -32.812817   -4.736105    2.528702
    103          7           0      -31.181178   -0.023453   -0.316637
    104          6           0      -32.075146   -0.971186    0.180375
    105          6           0      -33.521655   -0.530467   -0.043820
    106          6           0      -33.371327    0.602353   -1.122887
    107          6           0      -31.857778    0.826126   -1.090823
    108          6           0      -34.563083   -1.597830   -0.467912
    109          6           0      -34.208450    1.899085   -0.880445
    110          6           0      -35.468701    2.106554   -1.839112
    111          7           0      -28.883996    1.441518   -1.055164
    112          6           0      -29.800510    2.307660   -1.633411
    113          6           0      -29.108673    3.486860   -2.092773
    114          6           0      -27.826338    3.315687   -1.553804
    115          6           0      -27.756797    2.033631   -0.954828
    116          6           0      -29.800279    4.656054   -2.815051
    117          6           0      -26.516997    3.882641   -1.447041
    118          8           0      -26.161436    4.968722   -1.947456
    119          6           0      -25.455627    2.869983   -0.826420
    120          6           0      -24.799971    3.640792    0.248800
    121          8           0      -25.359102    4.301483    1.130484
    122          8           0      -23.473174    3.379178    0.155828
    123          6           0      -22.572908    4.199085    1.025862
    124          1           0      -26.344939   -3.714218    1.041709
    125          1           0      -32.650025   -2.688945    1.317641
    126          1           0      -31.800567    2.657807   -2.223533
    127          1           0      -24.142183    0.342932   -0.536656
    128          1           0      -24.450591   -2.010115    1.281741
    129          1           0      -23.336294   -2.794898   -0.556536
    130          1           0      -23.892026   -1.443532   -1.666309
    131          1           0      -24.949582   -2.884875   -1.315984
    132          1           0      -23.060887    1.186427    1.151046
    133          1           0      -23.445897   -0.298416    2.000692
    134          1           0      -25.518776    0.692907    2.886982
    135          1           0      -25.161911    2.255931    2.145833
    136          1           0      -28.161351   -5.683703    2.950516
    137          1           0      -27.119304   -5.449727    1.488666
    138          1           0      -28.489333   -6.535697    1.365857
    139          1           0      -33.047923   -3.897789    3.183381
    140          1           0      -33.368374   -5.520755    3.041460
    141          1           0      -33.144796   -4.649218    1.494223
    142          1           0      -33.708437   -0.170484    0.968586
    143          1           0      -33.622294    0.114228   -2.064875
    144          1           0      -35.183354   -1.952163    0.356007
    145          1           0      -34.046583   -2.485782   -0.830896
    146          1           0      -35.146008   -1.176234   -1.287515
    147          1           0      -33.628381    2.821380   -0.922567
    148          1           0      -34.509731    1.822656    0.164374
    149          1           0      -36.233082    2.433623   -1.134683
    150          1           0      -35.793442    1.213278   -2.372900
    151          1           0      -35.159835    2.807305   -2.613955
    152          1           0      -29.169286    5.215396   -3.506118
    153          1           0      -30.048965    5.296170   -1.969277
    154          1           0      -30.582276    4.281004   -3.474928
    155          1           0      -24.766343    2.548773   -1.608708
    156          1           0      -21.539461    3.890245    0.864907
    157          1           0      -22.800446    4.048986    2.081398
    158          1           0      -22.778210    5.208535    0.672326
 ---------------------------------------------------------------------

 SCF Done:  E(RCAM-B3LYP) =  -4069.77895977     A.U. after   19 cycles

 Excitation energies and oscillator strengths:

 Excited State   1:      Singlet-A      1.6562 eV  748.62 nm  f=0.3529  <S**2>=0.000
     309 -> 315       -0.15661
     312 -> 314        0.69069
     309 <- 315       -0.10158
 This state for optimization and/or second-order correction.
 Total Energy, E(TD-HF/TD-DFT) =  -4069.71809661
 Copying the excited state density for this state as the 1-particle RhoCI density.

 Excited State   2:      Singlet-A      1.6799 eV  738.06 nm  f=0.3930  <S**2>=0.000
     310 -> 316       -0.17555
     311 -> 313        0.68568
     310 <- 316       -0.10513

 Excited State   3:      Singlet-A      2.1925 eV  565.48 nm  f=0.0987  <S**2>=0.000
     310 -> 313        0.64071
     311 -> 316        0.27831

 Excited State   4:      Singlet-A      2.2760 eV  544.76 nm  f=0.0762  <S**2>=0.000
     309 -> 314        0.61913
     312 -> 315        0.32534

 Excited State   5:      Singlet-A      3.1057 eV  399.22 nm  f=0.0000  <S**2>=0.000
     312 -> 313        0.70711

 The electronic state is 1-A.
 Alpha  occ. eigenvalues --  -46.89307 -46.87775 -19.26264 -19.25364 -19.19425
 Alpha  occ. eigenvalues --  -19.19079 -19.18999 -19.18793 -19.18149 -19.17077
 Alpha  occ. eigenvalues --  -14.42471 -14.42429 -14.41548 -14.41429 -14.39729
 Alpha  occ. eigenvalues --  -14.39382 -14.38744 -14.38566 -10.39137 -10.39059
 Alpha  occ. eigenvalues --  -10.35505 -10.35426 -10.34369 -10.33536 -10.32130
 Alpha  occ. eigenvalues --  -10.31936 -10.31659 -10.31656 -10.31384 -10.31007
 Alpha  occ. eigenvalues --  -10.30887 -10.30877 -10.30814 -10.30549 -10.30503
 Alpha  occ. eigenvalues --  -10.30487 -10.30186 -10.29900 -10.29610 -10.29233
 Alpha  occ. eigenvalues --  -10.29010 -10.28838 -10.28728 -10.28718 -10.28519
 Alpha  occ. eigenvalues --  -10.28516 -10.28480 -10.28395 -10.28344 -10.28095
 Alpha  occ. eigenvalues --  -10.27880 -10.27861 -10.27772 -10.27706 -10.27675
 Alpha  occ. eigenvalues --  -10.27638 -10.27611 -10.27563 -10.27558 -10.27481
 Alpha  occ. eigenvalues --  -10.27459 -10.27429 -10.27383 -10.27301 -10.27238
 Alpha  occ. eigenvalues --  -10.27169 -10.27138 -10.27124 -10.26924 -10.26894
 Alpha  occ. eigenvalues --  -10.26789 -10.26683 -10.26394 -10.26387 -10.26260
 Alpha  occ. eigenvalues --  -10.26214 -10.26163 -10.26035 -10.25999 -10.25943
 Alpha  occ. eigenvalues --  -10.25824 -10.25416 -10.24812 -10.24767 -10.24666
 Alpha  occ. eigenvalues --  -10.23979  -3.17795  -3.16518  -1.92668  -1.92272
 Alpha  occ. eigenvalues --   -1.92077  -1.91400  -1.90986  -1.90829  -1.16612
 Alpha  occ. eigenvalues --   -1.16084  -1.10688  -1.08607  -1.07483  -1.07194
 Alpha  occ. eigenvalues --   -1.06680  -1.06622  -1.04840  -1.04560  -1.04024
 Alpha  occ. eigenvalues --   -1.03740  -1.03213  -1.02824  -1.02390  -1.00353
 Alpha  occ. eigenvalues --   -0.91951  -0.91938  -0.89499  -0.89348  -0.89167
 Alpha  occ. eigenvalues --   -0.88975  -0.88609  -0.88266  -0.87850  -0.87652
 Alpha  occ. eigenvalues --   -0.87252  -0.86824  -0.86650  -0.86086  -0.84961
 Alpha  occ. eigenvalues --   -0.84377  -0.83916  -0.83701  -0.82945  -0.82732
 Alpha  occ. eigenvalues --   -0.82627  -0.82353  -0.81565  -0.80968  -0.80575
 Alpha  occ. eigenvalues --   -0.80169  -0.78776  -0.78024  -0.77758  -0.77197
 Alpha  occ. eigenvalues --   -0.76913  -0.76491  -0.76001  -0.75902  -0.75250
 Alpha  occ. eigenvalues --   -0.74878  -0.73033  -0.72754  -0.71683  -0.71651
 Alpha  occ. eigenvalues --   -0.69886  -0.69639  -0.69014  -0.68852  -0.67620
 Alpha  occ. eigenvalues --   -0.67609  -0.67198  -0.66911  -0.66188  -0.65369
 Alpha  occ. eigenvalues --   -0.65265  -0.64833  -0.64666  -0.64600  -0.64249
 Alpha  occ. eigenvalues --   -0.63542  -0.62277  -0.62121  -0.60421  -0.59783
 Alpha  occ. eigenvalues --   -0.59626  -0.59119  -0.59047  -0.58967  -0.58483
 Alpha  occ. eigenvalues --   -0.58026  -0.57564  -0.57500  -0.57288  -0.57199
 Alpha  occ. eigenvalues --   -0.56773  -0.56289  -0.56283  -0.55958  -0.55499
 Alpha  occ. eigenvalues --   -0.55319  -0.55177  -0.54569  -0.54503  -0.54243
 Alpha  occ. eigenvalues --   -0.53874  -0.53669  -0.53458  -0.53278  -0.53201
 Alpha  occ. eigenvalues --   -0.52894  -0.52859  -0.52734  -0.52551  -0.52417
 Alpha  occ. eigenvalues --   -0.52294  -0.51895  -0.51836  -0.51595  -0.51380
 Alpha  occ. eigenvalues --   -0.51208  -0.51175  -0.51045  -0.50653  -0.50550
 Alpha  occ. eigenvalues --   -0.50011  -0.49975  -0.49897  -0.49664  -0.49533
 Alpha  occ. eigenvalues --   -0.49493  -0.49194  -0.49075  -0.48945  -0.48779
 Alpha  occ. eigenvalues --   -0.48572  -0.48441  -0.48424  -0.48349  -0.48115
 Alpha  occ. eigenvalues --   -0.47756  -0.47674  -0.47605  -0.47276  -0.47152
 Alpha  occ. eigenvalues --   -0.46909  -0.46793  -0.46776  -0.46547  -0.46534
 Alpha  occ. eigenvalues --   -0.46338  -0.46238  -0.46142  -0.45802  -0.45714
 Alpha  occ. eigenvalues --   -0.45461  -0.45187  -0.45181  -0.44955  -0.44557
 Alpha  occ. eigenvalues --   -0.44485  -0.44444  -0.44124  -0.44067  -0.43998
 Alpha  occ. eigenvalues --   -0.43989  -0.43944  -0.43479  -0.43474  -0.43417
 Alpha  occ. eigenvalues --   -0.43365  -0.43006  -0.42824  -0.42733  -0.42678
 Alpha  occ. eigenvalues --   -0.42634  -0.42558  -0.42280  -0.42122  -0.41989
 Alpha  occ. eigenvalues --   -0.41926  -0.41747  -0.41683  -0.41512  -0.41120
 Alpha  occ. eigenvalues --   -0.41074  -0.40848  -0.40801  -0.40765  -0.40551
 Alpha  occ. eigenvalues --   -0.40212  -0.39920  -0.39420  -0.39351  -0.39084
 Alpha  occ. eigenvalues --   -0.38505  -0.38448  -0.37727  -0.37407  -0.37299
 Alpha  occ. eigenvalues --   -0.37242  -0.37097  -0.36692  -0.36583  -0.36344
 Alpha  occ. eigenvalues --   -0.36172  -0.35838  -0.34380  -0.34265  -0.33826
 Alpha  occ. eigenvalues --   -0.33749  -0.33165  -0.32693  -0.31527  -0.31323
 Alpha  occ. eigenvalues --   -0.31173  -0.31014  -0.30106  -0.30009  -0.29433
 Alpha  occ. eigenvalues --   -0.29428  -0.29301  -0.29234  -0.24455  -0.24060
 Alpha  occ. eigenvalues --   -0.21107  -0.20755
 Alpha virt. eigenvalues --   -0.08753  -0.08586  -0.01794  -0.01729  -0.00037
 Alpha virt. eigenvalues --    0.00924   0.01469   0.02221   0.02497   0.03144
 Alpha virt. eigenvalues --    0.04739   0.04884   0.05119   0.05407   0.06109

 Mulliken charges:
               1
     1  Mg   0.838753
     2  C   -0.002972
     3  C   -0.094107
     4  C   -0.045869
     5  C   -0.063971
     6  N   -0.256789
     7  C   -0.052427
     8  C   -0.014016
     9  C   -0.086988
    10  C    0.046318
    11  C    0.104811
    12  C    0.053466
    13  C   -0.071821
    14  H    0.036152
    15  N   -0.433144
    16  C    0.168444
    17  C   -0.177147
    18  C   -0.003994
    19  C    0.148722
    20  C    0.110186
    21  C    0.012292
    22  O   -0.249620
    23  C    0.062465
    24  N   -0.341149
    25  C    0.041242
    26  C   -0.028161
    27  C   -0.023981
    28  C    0.074848
    29  C    0.076182
    30  C    0.035128
    31  C   -0.004501
    32  N   -0.310485
    33  C    0.080408
    34  C   -0.169723
    35  C    0.008348
    36  C    0.082992
    37  C    0.127314
    38  C    0.046110
    39  O   -0.188467
    40  C   -0.005348
    41  C    0.212880
    42  O   -0.257087
    43  O   -0.304809
    44  C    0.157702
    45  H   -0.017600
    46  H   -0.016836
    47  H   -0.041508
    48  H    0.000924
    49  H   -0.004018
    50  H    0.025460
    51  H    0.016439
    52  H    0.016654
    53  H    0.011228
    54  H    0.044129
    55  H    0.017852
    56  H    0.017966
    57  H    0.005878
    58  H    0.026820
    59  H    0.039589
    60  H    0.037340
    61  H    0.035667
    62  H    0.031535
    63  H    0.016565
    64  H    0.009440
    65  H    0.023208
    66  H    0.012539
    67  H    0.004732
    68  H    0.006353
    69  H    0.004715
    70  H    0.008791
    71  H    0.018148
    72  H    0.028997
    73  H    0.047559
    74  H    0.009102
    75  H    0.045983
    76  H    0.035134
    77  H    0.042922
    78  H    0.046409
    79  H    0.053695
    80  Mg   0.820312
    81  C   -0.030368
    82  C   -0.063588
    83  C   -0.071140
    84  C   -0.075656
    85  N   -0.309241
    86  C   -0.098318
    87  C    0.032364
    88  C   -0.088977
    89  C    0.018020
    90  C    0.083159
    91  C    0.077584
    92  C   -0.047009
    93  H    0.019778
    94  N   -0.391672
    95  C    0.125454
    96  C   -0.145333
    97  C   -0.034508
    98  C    0.142979
    99  C    0.154399
   100  C   -0.013493
   101  O   -0.198109
   102  C    0.066660
   103  N   -0.314487
   104  C    0.069855
   105  C   -0.078982
   106  C    0.038559
   107  C   -0.001198
   108  C    0.080944
   109  C    0.022891
   110  C   -0.006872
   111  N   -0.284797
   112  C    0.084287
   113  C   -0.172589
   114  C    0.043290
   115  C    0.082291
   116  C    0.114724
   117  C    0.003075
   118  O   -0.216419
   119  C    0.045248
   120  C    0.197721
   121  O   -0.231860
   122  O   -0.339254
   123  C    0.180680
   124  H   -0.019387
   125  H   -0.063784
   126  H   -0.033490
   127  H    0.001482
   128  H    0.014770
   129  H    0.026243
   130  H    0.029000
   131  H    0.019948
   132  H    0.006712
   133  H   -0.008001
   134  H    0.024302
   135  H    0.048670
   136  H    0.049574
   137  H   -0.000638
   138  H    0.036252
   139  H    0.054903
   140  H    0.021116
   141  H    0.037897
   142  H    0.025849
   143  H    0.005559
   144  H    0.018956
   145  H    0.015435
   146  H    0.020814
   147  H    0.021147
   148  H   -0.000057
   149  H    0.029353
   150  H    0.015083
   151  H    0.025941
   152  H    0.027711
   153  H    0.049104
   154  H    0.018926
   155  H    0.043774
   156  H    0.041299
   157  H    0.050538
   158  H    0.054589
 Sum of Mulliken charges =  -0.00000

 Dipole moment (field-independent basis, Debye):
    X=             -0.5521    Y=              0.2771    Z=             -4.1139  Tot=              4.1600
 Quadrupole moment (field-independent basis, Debye-Ang):
   XX=           -262.0731   YY=           -572.2313   ZZ=           -487.8786
   XY=            185.2718   XZ=              1.7111   YZ=            -12.5520

 Normal termination of Gaussian 16 at Wed Sep 15 08:28:48 2021.
