 Gaussian 16, Revision A.03,
 Gaussian 16:  ES64L-G16RevA.03 25-Dec-2016

 -----------------------------------
 #p cam-b3lyp/Def2SVP td=(nstates=5)
 -----------------------------------

 --------------------------------
 TDDFT excited states in gaussian
 --------------------------------
 Symbolic Z-matrix:
 Charge =  0 Multiplicity = 1

                         Standard orientation:
 ---------------------------------------------------------------------
 Center     Atomic      Atomic             Coordinates (Angstroms)
 Number     Number       Type             X           Y           Z
 ---------------------------------------------------------------------
      1         12           0       24.442328   -0.776910    0.161521
      2          6           0       24.187718    2.248438   -1.391571
      3          6           0       23.714865    0.830436    3.227651
      4          6           0       24.910730   -3.682263    1.759255
      5          6           0       25.073954   -2.238431   -2.882125
      6          7           0       24.314172    1.316109    0.898016
      7          6           0       24.122247    2.390917    0.020511
      8          6           0       23.837721    3.717767    0.779766
      9          6           0       23.776560    3.160115    2.226653
     10          6           0       24.013451    1.662952    2.144699
     11          6           0       24.643801    3.790481    3.398211
     12          6           0       22.518144    4.508977    0.370804
     13          6           0       22.324457    5.793292    1.220806
     14          1           0       22.578296    7.081038    0.435871
     15          7           0       24.274922   -1.358461    2.256504
     16          6           0       23.741283   -0.589245    3.268070
     17          6           0       23.809641   -1.413679    4.468919
     18          6           0       24.168311   -2.727576    4.026455
     19          6           0       24.452323   -2.659418    2.627544
     20          6           0       23.448002   -0.860710    5.793328
     21          6           0       24.361825   -3.937646    5.005674
     22          8           0       24.874992   -5.024072    4.669121
     23          6           0       23.988829   -3.796415    6.458401
     24          7           0       24.924585   -2.577248   -0.429924
     25          6           0       25.087180   -3.699616    0.430095
     26          6           0       25.740599   -4.850797   -0.300464
     27          6           0       25.325175   -4.521312   -1.732963
     28          6           0       25.032752   -3.027756   -1.710701
     29          6           0       27.294078   -4.893198   -0.110317
     30          6           0       24.034392   -5.252538   -2.164789
     31          6           0       24.151311   -6.647502   -2.717864
     32          7           0       24.661141   -0.207173   -1.807754
     33          6           0       24.761200   -0.895568   -2.956318
     34          6           0       24.801785    0.020679   -4.057538
     35          6           0       24.562335    1.266314   -3.517279
     36          6           0       24.437740    1.075875   -2.132304
     37          6           0       24.963268   -0.428051   -5.468036
     38          6           0       24.399406    2.616637   -3.851390
     39          8           0       24.395108    3.190190   -4.923489
     40          6           0       24.138915    3.340063   -2.447702
     41          6           0       25.168829    4.400882   -2.282879
     42          8           0       26.355513    4.247317   -2.124831
     43          8           0       24.606753    5.608794   -2.178486
     44          6           0       25.549682    6.771332   -1.953425
     45          1           0       23.333446    1.365078    4.099914
     46          1           0       25.060293   -4.638020    2.265506
     47          1           0       25.140403   -2.643825   -3.893553
     48          1           0       24.703839    4.370323    0.669249
     49          1           0       22.753856    3.229519    2.598480
     50          1           0       24.172255    3.830725    4.380471
     51          1           0       25.099930    4.721027    3.059911
     52          1           0       25.444297    3.066676    3.550638
     53          1           0       21.734572    3.759547    0.475514
     54          1           0       22.591155    4.768802   -0.685176
     55          1           0       22.896817    5.716962    2.145296
     56          1           0       21.270658    5.823691    1.496162
     57          1           0       24.357808   -0.803432    6.391191
     58          1           0       22.625488   -1.476909    6.156501
     59          1           0       23.014539    0.134355    5.692022
     60          1           0       24.131800   -4.747272    6.971762
     61          1           0       22.908136   -3.649527    6.435716
     62          1           0       24.461614   -2.987851    7.015279
     63          1           0       25.346577   -5.808548    0.040603
     64          1           0       26.105955   -4.719740   -2.466917
     65          1           0       27.782009   -4.110895   -0.690416
     66          1           0       27.682538   -5.873402   -0.387997
     67          1           0       27.456436   -4.746295    0.956897
     68          1           0       23.435896   -4.676193   -2.869146
     69          1           0       23.339903   -5.287918   -1.325306
     70          1           0       23.564448   -7.290950   -2.062995
     71          1           0       25.189437   -6.906415   -2.509060
     72          1           0       23.917363   -6.736220   -3.778884
     73          1           0       23.992285   -0.497708   -5.956839
     74          1           0       25.588007   -1.299285   -5.667282
     75          1           0       25.479043    0.392807   -5.966604
     76          1           0       23.145053    3.787472   -2.474034
     77          1           0       26.191493    6.501346   -1.114514
     78          1           0       25.038097    7.691151   -1.668822
     79          1           0       26.129365    6.909318   -2.866393
     80         12           0      -24.815411   -0.595703   -0.091032
     81          6           0      -22.299528    1.759832   -0.179085
     82          6           0      -26.476192    1.568501    2.229728
     83          6           0      -27.104333   -2.879840    0.352494
     84          6           0      -22.950572   -2.731215   -2.072740
     85          7           0      -24.278801    1.385753    1.071017
     86          6           0      -23.325497    2.208259    0.666548
     87          6           0      -23.593291    3.657723    1.161457
     88          6           0      -24.584314    3.357509    2.339885
     89          6           0      -25.192458    2.015942    1.900594
     90          6           0      -23.853575    3.257531    3.725980
     91          6           0      -24.232618    4.405510   -0.029712
     92          6           0      -24.463529    5.911949    0.151257
     93          1           0      -24.309175    6.548102    1.518111
     94          7           0      -26.590649   -0.689535    0.986766
     95          6           0      -27.102299    0.335726    1.854519
     96          6           0      -28.448050   -0.085104    2.219637
     97          6           0      -28.678504   -1.342143    1.578159
     98          6           0      -27.416133   -1.727740    0.949061
     99          6           0      -29.441910    0.753816    3.106561
    100          6           0      -30.021560   -2.142893    1.527651
    101          8           0      -30.005078   -3.241958    1.044944
    102          6           0      -31.273933   -1.564162    2.101571
    103          7           0      -25.044035   -2.521574   -0.849706
    104          6           0      -26.096779   -3.306876   -0.528329
    105          6           0      -26.008091   -4.709984   -1.127423
    106          6           0      -24.744577   -4.598966   -2.011872
    107          6           0      -24.198392   -3.167682   -1.614209
    108          6           0      -25.931682   -5.889848   -0.090102
    109          6           0      -24.900945   -4.885192   -3.483600
    110          6           0      -26.056780   -4.265225   -4.305340
    111          7           0      -22.999843   -0.588840   -0.971785
    112          6           0      -22.359401   -1.504226   -1.757020
    113          6           0      -21.139394   -0.882883   -2.227517
    114          6           0      -21.044993    0.439499   -1.672253
    115          6           0      -22.229380    0.544000   -0.892631
    116          6           0      -20.155527   -1.551597   -3.136066
    117          6           0      -20.257048    1.618111   -1.535433
    118          8           0      -19.138130    1.950955   -1.983278
    119          6           0      -20.976500    2.400603   -0.306539
    120          6           0      -20.889600    3.892357   -0.633207
    121          8           0      -21.249229    4.394754   -1.628461
    122          8           0      -20.281036    4.517563    0.417692
    123          6           0      -20.402844    5.957574    0.515481
    124          1           0      -26.943680    2.201753    2.986029
    125          1           0      -27.812916   -3.696709    0.504563
    126          1           0      -22.305677   -3.362685   -2.686180
    127          1           0      -22.699672    4.124227    1.575830
    128          1           0      -25.305040    4.173107    2.276368
    129          1           0      -24.041894    4.164310    4.299454
    130          1           0      -22.790006    3.117707    3.531709
    131          1           0      -24.226145    2.450584    4.357018
    132          1           0      -25.228351    3.987709   -0.175958
    133          1           0      -23.733932    4.178521   -0.971493
    134          1           0      -25.327024    6.282957   -0.401311
    135          1           0      -23.704037    6.373779   -0.479883
    136          1           0      -29.865269    0.167875    3.922907
    137          1           0      -30.192464    1.139716    2.416929
    138          1           0      -28.932381    1.642248    3.481563
    139          1           0      -32.039571   -2.045537    1.492742
    140          1           0      -31.379073   -0.499858    1.894215
    141          1           0      -31.414922   -1.506963    3.180866
    142          1           0      -26.911984   -4.815722   -1.726920
    143          1           0      -23.925075   -5.227729   -1.663845
    144          1           0      -25.279673   -6.634908   -0.545253
    145          1           0      -26.966642   -6.230460   -0.053039
    146          1           0      -25.654556   -5.514264    0.894855
    147          1           0      -25.227947   -5.923407   -3.437205
    148          1           0      -24.018285   -4.781112   -4.115505
    149          1           0      -26.780044   -4.936767   -4.766065
    150          1           0      -25.684871   -3.768731   -5.201567
    151          1           0      -26.629110   -3.592967   -3.665948
    152          1           0      -19.332931   -0.845332   -3.244755
    153          1           0      -20.592356   -1.682741   -4.126967
    154          1           0      -19.863002   -2.560224   -2.845663
    155          1           0      -20.419507    2.095545    0.579591
    156          1           0      -19.320942    6.068772    0.589163
    157          1           0      -21.046667    6.290552    1.329834
    158          1           0      -20.736554    6.445202   -0.400836
 ---------------------------------------------------------------------

 SCF Done:  E(RCAM-B3LYP) =  -4069.82853806     A.U. after   18 cycles

 Excitation energies and oscillator strengths:

 Excited State   1:      Singlet-A      1.6534 eV  749.86 nm  f=0.3898  <S**2>=0.000
     309 -> 316       -0.16013
     311 -> 313        0.69080
     309 <- 316       -0.10388
 This state for optimization and/or second-order correction.
 Total Energy, E(TD-HF/TD-DFT) =  -4069.76777557
 Copying the excited state density for this state as the 1-particle RhoCI density.

 Excited State   2:      Singlet-A      1.7338 eV  715.11 nm  f=0.3758  <S**2>=0.000
     310 -> 315        0.19618
     312 -> 314        0.68089
     310 <- 315        0.11070

 Excited State   3:      Singlet-A      2.2193 eV  558.65 nm  f=0.0914  <S**2>=0.000
     310 -> 314        0.63504
     312 -> 315       -0.29923

 Excited State   4:      Singlet-A      2.2510 eV  550.79 nm  f=0.1083  <S**2>=0.000
     309 -> 313        0.63838
     311 -> 316        0.28837

 Excited State   5:      Singlet-A      3.0882 eV  401.48 nm  f=0.0000  <S**2>=0.000
     312 -> 313        0.70711

 The electronic state is 1-A.
 Alpha  occ. eigenvalues --  -46.88282 -46.87500 -19.24913 -19.24401 -19.20276
 Alpha  occ. eigenvalues --  -19.19372 -19.19109 -19.19031 -19.18736 -19.18551
 Alpha  occ. eigenvalues --  -14.42717 -14.41747 -14.41744 -14.41738 -14.39319
 Alpha  occ. eigenvalues --  -14.39288 -14.38863 -14.38848 -10.38931 -10.38525
 Alpha  occ. eigenvalues --  -10.35288 -10.35211 -10.35072 -10.34937 -10.32288
 Alpha  occ. eigenvalues --  -10.32051 -10.31479 -10.31355 -10.30725 -10.30633
 Alpha  occ. eigenvalues --  -10.30605 -10.30561 -10.30442 -10.30298 -10.30007
 Alpha  occ. eigenvalues --  -10.29637 -10.29559 -10.29466 -10.29327 -10.29264
 Alpha  occ. eigenvalues --  -10.29021 -10.28990 -10.28978 -10.28785 -10.28614
 Alpha  occ. eigenvalues --  -10.28598 -10.28477 -10.28471 -10.28094 -10.28090
 Alpha  occ. eigenvalues --  -10.28054 -10.27815 -10.27795 -10.27785 -10.27754
 Alpha  occ. eigenvalues --  -10.27711 -10.27669 -10.27634 -10.27596 -10.27595
 Alpha  occ. eigenvalues --  -10.27452 -10.27366 -10.27364 -10.27115 -10.26762
 Alpha  occ. eigenvalues --  -10.26755 -10.26668 -10.26572 -10.26529 -10.26480
 Alpha  occ. eigenvalues --  -10.26475 -10.26349 -10.26290 -10.26281 -10.26220
 Alpha  occ. eigenvalues --  -10.26162 -10.25832 -10.25805 -10.25759 -10.25736
 Alpha  occ. eigenvalues --  -10.25573 -10.25524 -10.25283 -10.25097 -10.25014
 Alpha  occ. eigenvalues --  -10.24960  -3.16919  -3.16280  -1.91819  -1.91391
 Alpha  occ. eigenvalues --   -1.91209  -1.91182  -1.90751  -1.90578  -1.17627
 Alpha  occ. eigenvalues --   -1.16908  -1.11536  -1.10435  -1.09815  -1.08277
 Alpha  occ. eigenvalues --   -1.08024  -1.07138  -1.05438  -1.05250  -1.04095
 Alpha  occ. eigenvalues --   -1.03920  -1.03098  -1.03066  -1.02090  -1.01958
 Alpha  occ. eigenvalues --   -0.93331  -0.93035  -0.89393  -0.89080  -0.88777
 Alpha  occ. eigenvalues --   -0.88683  -0.88659  -0.88553  -0.87903  -0.87322
 Alpha  occ. eigenvalues --   -0.87170  -0.86567  -0.86448  -0.85695  -0.84325
 Alpha  occ. eigenvalues --   -0.84082  -0.83967  -0.83750  -0.82526  -0.82444
 Alpha  occ. eigenvalues --   -0.81778  -0.81580  -0.81440  -0.81211  -0.80634
 Alpha  occ. eigenvalues --   -0.80296  -0.78384  -0.78010  -0.77554  -0.77374
 Alpha  occ. eigenvalues --   -0.77215  -0.76837  -0.76209  -0.75888  -0.75527
 Alpha  occ. eigenvalues --   -0.75200  -0.73217  -0.72700  -0.72021  -0.71808
 Alpha  occ. eigenvalues --   -0.70286  -0.69443  -0.68954  -0.68899  -0.68315
 Alpha  occ. eigenvalues --   -0.68122  -0.66218  -0.66080  -0.65797  -0.65204
 Alpha  occ. eigenvalues --   -0.64952  -0.64937  -0.64620  -0.64315  -0.64184
 Alpha  occ. eigenvalues --   -0.64170  -0.62388  -0.62081  -0.60522  -0.60250
 Alpha  occ. eigenvalues --   -0.59990  -0.59667  -0.59179  -0.59114  -0.58879
 Alpha  occ. eigenvalues --   -0.58838  -0.58324  -0.58160  -0.58017  -0.57935
 Alpha  occ. eigenvalues --   -0.56549  -0.56242  -0.56154  -0.56080  -0.55667
 Alpha  occ. eigenvalues --   -0.55367  -0.55022  -0.54753  -0.54245  -0.54243
 Alpha  occ. eigenvalues --   -0.53653  -0.53536  -0.53463  -0.53349  -0.52981
 Alpha  occ. eigenvalues --   -0.52936  -0.52713  -0.52408  -0.52324  -0.52285
 Alpha  occ. eigenvalues --   -0.52100  -0.51826  -0.51762  -0.51667  -0.51325
 Alpha  occ. eigenvalues --   -0.50779  -0.50735  -0.50370  -0.50249  -0.50164
 Alpha  occ. eigenvalues --   -0.50004  -0.49984  -0.49900  -0.49731  -0.49708
 Alpha  occ. eigenvalues --   -0.49578  -0.49342  -0.49327  -0.49271  -0.48943
 Alpha  occ. eigenvalues --   -0.48792  -0.48759  -0.48260  -0.48250  -0.48156
 Alpha  occ. eigenvalues --   -0.48081  -0.47994  -0.47739  -0.47655  -0.47499
 Alpha  occ. eigenvalues --   -0.47119  -0.46925  -0.46866  -0.46640  -0.46563
 Alpha  occ. eigenvalues --   -0.46518  -0.46453  -0.46031  -0.45977  -0.45853
 Alpha  occ. eigenvalues --   -0.45852  -0.45603  -0.45496  -0.45271  -0.45225
 Alpha  occ. eigenvalues --   -0.45030  -0.44757  -0.44693  -0.44224  -0.43876
 Alpha  occ. eigenvalues --   -0.43750  -0.43712  -0.43553  -0.43375  -0.43334
 Alpha  occ. eigenvalues --   -0.43280  -0.42997  -0.42876  -0.42845  -0.42712
 Alpha  occ. eigenvalues --   -0.42323  -0.42105  -0.42006  -0.42003  -0.41895
 Alpha  occ. eigenvalues --   -0.41806  -0.41624  -0.41588  -0.41550  -0.41449
 Alpha  occ. eigenvalues --   -0.41123  -0.41008  -0.40876  -0.40637  -0.40410
 Alpha  occ. eigenvalues --   -0.40241  -0.40041  -0.39819  -0.39570  -0.39459
 Alpha  occ. eigenvalues --   -0.38436  -0.38416  -0.38058  -0.37969  -0.37527
 Alpha  occ. eigenvalues --   -0.37475  -0.37147  -0.36931  -0.36662  -0.36564
 Alpha  occ. eigenvalues --   -0.36405  -0.35868  -0.35152  -0.34215  -0.34006
 Alpha  occ. eigenvalues --   -0.33977  -0.33361  -0.33275  -0.31597  -0.31458
 Alpha  occ. eigenvalues --   -0.31242  -0.31028  -0.30648  -0.30475  -0.30435
 Alpha  occ. eigenvalues --   -0.29838  -0.29378  -0.29094  -0.24605  -0.23826
 Alpha  occ. eigenvalues --   -0.21113  -0.21112
 Alpha virt. eigenvalues --   -0.09067  -0.08452  -0.01904  -0.01543   0.00173
 Alpha virt. eigenvalues --    0.00411   0.02361   0.02594   0.03009   0.03421
 Alpha virt. eigenvalues --    0.04662   0.05321   0.05367   0.05836   0.06049

 Mulliken charges:
               1
     1  Mg   0.828556
     2  C    0.007471
     3  C   -0.059512
     4  C   -0.069229
     5  C   -0.093605
     6  N   -0.267919
     7  C   -0.051208
     8  C    0.020205
     9  C   -0.103951
    10  C    0.038329
    11  C    0.063724
    12  C    0.034982
    13  C   -0.056579
    14  H    0.031819
    15  N   -0.358591
    16  C    0.139205
    17  C   -0.203024
    18  C   -0.035951
    19  C    0.110411
    20  C    0.139563
    21  C    0.019220
    22  O   -0.225630
    23  C    0.056039
    24  N   -0.391530
    25  C    0.083614
    26  C   -0.019328
    27  C   -0.020650
    28  C    0.118482
    29  C    0.088222
    30  C   -0.004950
    31  C    0.053344
    32  N   -0.339594
    33  C    0.089664
    34  C   -0.168127
    35  C    0.069283
    36  C    0.103918
    37  C    0.107993
    38  C    0.017670
    39  O   -0.153767
    40  C   -0.052428
    41  C    0.180649
    42  O   -0.217064
    43  O   -0.331545
    44  C    0.179191
    45  H   -0.027508
    46  H   -0.006603
    47  H   -0.026943
    48  H    0.017577
    49  H    0.009473
    50  H    0.020283
    51  H    0.021738
    52  H    0.015379
    53  H    0.010983
    54  H    0.033018
    55  H    0.029999
    56  H    0.029348
    57  H    0.042899
    58  H    0.027704
    59  H    0.001102
    60  H    0.024394
    61  H    0.024864
    62  H    0.039968
    63  H    0.000231
    64  H   -0.003832
    65  H    0.020443
    66  H    0.019225
    67  H    0.019149
    68  H   -0.002505
    69  H   -0.003863
    70  H    0.012710
    71  H   -0.002502
    72  H    0.028763
    73  H    0.038366
    74  H    0.023658
    75  H    0.027416
    76  H    0.043216
    77  H    0.041471
    78  H    0.041646
    79  H    0.051361
    80  Mg   0.826099
    81  C   -0.012360
    82  C   -0.069442
    83  C   -0.074841
    84  C   -0.110763
    85  N   -0.226809
    86  C   -0.083283
    87  C   -0.038336
    88  C   -0.040642
    89  C    0.001547
    90  C    0.086683
    91  C    0.038287
    92  C   -0.033810
    93  H    0.030034
    94  N   -0.395514
    95  C    0.163789
    96  C   -0.171009
    97  C   -0.041626
    98  C    0.168841
    99  C    0.109762
   100  C    0.017420
   101  O   -0.181326
   102  C    0.052849
   103  N   -0.266037
   104  C   -0.012142
   105  C   -0.046943
   106  C   -0.006095
   107  C    0.066942
   108  C    0.083998
   109  C    0.038655
   110  C   -0.018429
   111  N   -0.393989
   112  C    0.127063
   113  C   -0.170482
   114  C    0.015081
   115  C    0.149489
   116  C    0.114105
   117  C    0.076137
   118  O   -0.199771
   119  C   -0.076672
   120  C    0.177544
   121  O   -0.154509
   122  O   -0.338152
   123  C    0.149825
   124  H   -0.021743
   125  H   -0.018188
   126  H   -0.032789
   127  H   -0.002279
   128  H   -0.002001
   129  H    0.017264
   130  H    0.023457
   131  H    0.018040
   132  H    0.001280
   133  H    0.042095
   134  H    0.018717
   135  H    0.015670
   136  H    0.037192
   137  H    0.036381
   138  H    0.006411
   139  H    0.032728
   140  H   -0.000048
   141  H    0.047145
   142  H    0.021822
   143  H    0.003761
   144  H    0.024779
   145  H    0.026009
   146  H    0.031880
   147  H    0.004419
   148  H    0.015879
   149  H    0.010622
   150  H    0.010208
   151  H    0.020206
   152  H    0.037295
   153  H    0.019404
   154  H    0.024870
   155  H    0.054915
   156  H    0.050902
   157  H    0.046127
   158  H    0.046400
 Sum of Mulliken charges =  -0.00000

 Dipole moment (field-independent basis, Debye):
    X=             -6.2917    Y=              1.2102    Z=              5.1054  Tot=              8.1924
 Quadrupole moment (field-independent basis, Debye-Ang):
   XX=           -479.5067   YY=           -485.5974   ZZ=           -505.6962
   XY=             -1.2020   XZ=              5.6896   YZ=             60.9157

 Normal termination of Gaussian 16 at Thu Sep  2 08:51:53 2021.
