 Gaussian 16, Revision A.03,
 Gaussian 16:  ES64L-G16RevA.03 25-Dec-2016

 ----------------------------------------------------------
 #p cam-b3lyp/Def2SVP td=(nstates=5) density=(transition=1)
 ----------------------------------------------------------

 --------------------------------
 TDDFT excited states in gaussian
 --------------------------------
 Symbolic Z-matrix:
 Charge =  0 Multiplicity = 1

                         Standard orientation:
 ---------------------------------------------------------------------
 Center     Atomic      Atomic             Coordinates (Angstroms)
 Number     Number       Type             X           Y           Z
 ---------------------------------------------------------------------
      1         12           0       17.673284   -0.096900    0.276394
      2          6           0       15.000379   -0.976887   -1.639643
      3          6           0       18.532765    2.164927   -2.208495
      4          6           0       20.077440    1.031983    2.330233
      5          6           0       16.348934   -1.910740    2.985979
      6          7           0       16.691832    0.697875   -1.593648
      7          6           0       15.618078    0.113081   -2.161490
      8          6           0       15.174757    0.811756   -3.394656
      9          6           0       16.582422    1.596516   -3.762259
     10          6           0       17.358201    1.497186   -2.431911
     11          6           0       17.309388    0.987585   -4.997458
     12          6           0       14.043629    1.771873   -3.062264
     13          6           0       14.264323    2.876559   -1.927936
     14          1           0       13.720202    4.288018   -2.109912
     15          7           0       19.100539    1.380719    0.100094
     16          6           0       19.393921    2.126860   -1.069298
     17          6           0       20.617498    2.816007   -0.828290
     18          6           0       21.072827    2.570553    0.461196
     19          6           0       20.127237    1.602704    1.042321
     20          6           0       21.183007    3.672777   -1.942711
     21          6           0       22.245909    3.213624    1.161600
     22          8           0       22.885539    4.058208    0.486495
     23          6           0       22.556455    3.107702    2.547738
     24          7           0       18.000844   -0.244845    2.433723
     25          6           0       19.121689    0.272911    3.013329
     26          6           0       19.186018   -0.074865    4.519853
     27          6           0       17.959056   -1.031016    4.699652
     28          6           0       17.344390   -1.012639    3.310318
     29          6           0       20.508936   -0.675051    4.945551
     30          6           0       16.967918   -0.500102    5.867262
     31          6           0       16.429463   -1.606889    6.781083
     32          7           0       15.984522   -1.274614    0.689409
     33          6           0       15.671969   -2.098746    1.722732
     34          6           0       14.601870   -2.946567    1.272218
     35          6           0       14.279139   -2.607899   -0.087430
     36          6           0       15.142268   -1.562528   -0.371435
     37          6           0       13.775586   -3.827004    2.145918
     38          6           0       13.426854   -2.797795   -1.216851
     39          8           0       12.536235   -3.654162   -1.286076
     40          6           0       13.883111   -1.789089   -2.254740
     41          6           0       14.287609   -2.521814   -3.479195
     42          8           0       13.485734   -3.254985   -4.023646
     43          8           0       15.535236   -2.221759   -3.934136
     44          6           0       15.937102   -2.921755   -5.155785
     45          1           0       18.953711    2.661943   -3.084852
     46          1           0       20.991469    1.226630    2.894837
     47          1           0       15.980059   -2.634350    3.716330
     48          1           0       14.808822    0.208236   -4.225353
     49          1           0       16.380823    2.602246   -4.133287
     50          1           0       17.434475    1.747751   -5.767696
     51          1           0       16.653996    0.213880   -5.398269
     52          1           0       18.271726    0.523719   -4.777178
     53          1           0       13.157260    1.165391   -2.875040
     54          1           0       13.790595    2.172278   -4.043899
     55          1           0       15.301820    3.087093   -1.668031
     56          1           0       13.699696    2.451613   -1.098557
     57          1           0       20.681349    4.636078   -1.848670
     58          1           0       20.901531    3.236264   -2.900192
     59          1           0       22.264316    3.813365   -1.945246
     60          1           0       23.053883    4.003349    2.921208
     61          1           0       23.067340    2.180768    2.811469
     62          1           0       21.590882    3.155751    3.049357
     63          1           0       19.003633    0.886691    5.000964
     64          1           0       18.314092   -2.050176    4.851283
     65          1           0       21.265702   -0.682220    4.161559
     66          1           0       20.555306   -1.631408    5.465748
     67          1           0       20.918364    0.100017    5.594082
     68          1           0       16.092315    0.031802    5.494962
     69          1           0       17.436244    0.266513    6.484318
     70          1           0       16.926034   -1.517171    7.746864
     71          1           0       16.747415   -2.567327    6.374859
     72          1           0       15.349372   -1.556851    6.919794
     73          1           0       14.252508   -4.712675    2.563989
     74          1           0       12.919290   -4.111201    1.533128
     75          1           0       13.409020   -3.302068    3.028125
     76          1           0       13.013231   -1.170421   -2.477252
     77          1           0       15.203739   -2.688863   -5.928355
     78          1           0       16.072292   -3.994500   -5.016868
     79          1           0       16.954836   -2.650856   -5.436349
     80         12           0      -17.774532    0.557046    0.324554
     81          6           0      -14.710658   -0.955969   -0.421371
     82          6           0      -19.014487   -2.647000    0.808902
     83          6           0      -20.717167    1.912555    0.597981
     84          6           0      -16.309434    3.686271   -0.453336
     85          7           0      -17.040061   -1.626213   -0.190024
     86          6           0      -15.746636   -1.943078   -0.308640
     87          6           0      -15.638850   -3.431096   -0.279689
     88          6           0      -17.099895   -3.941793   -0.325554
     89          6           0      -17.793257   -2.682601    0.155580
     90          6           0      -17.675805   -4.487520   -1.633404
     91          6           0      -14.886333   -3.937034    0.991769
     92          6           0      -13.727473   -4.972296    0.824859
     93          1           0      -13.773676   -5.980815   -0.365164
     94          7           0      -19.627981   -0.261019    0.813689
     95          6           0      -19.848925   -1.589768    1.150987
     96          6           0      -21.214073   -1.683976    1.554813
     97          6           0      -21.800984   -0.366770    1.381467
     98          6           0      -20.733826    0.512623    0.927895
     99          6           0      -21.922359   -2.996639    1.955244
    100          6           0      -23.276578    0.096533    1.550273
    101          8           0      -23.659867    1.207527    1.362664
    102          6           0      -24.248747   -0.953692    2.050573
    103          7           0      -18.376286    2.516734    0.109527
    104          6           0      -19.690227    2.817275    0.212565
    105          6           0      -20.010138    4.323993    0.009998
    106          6           0      -18.534099    4.908437   -0.058241
    107          6           0      -17.658630    3.662070   -0.112683
    108          6           0      -20.932668    4.543877   -1.323126
    109          6           0      -18.217080    5.947288    1.062960
    110          6           0      -17.470874    5.459908    2.292018
    111          7           0      -15.879731    1.312642   -0.280624
    112          6           0      -15.426323    2.590946   -0.464789
    113          6           0      -13.961004    2.523563   -0.801866
    114          6           0      -13.660573    1.142708   -0.788033
    115          6           0      -14.863360    0.414098   -0.506181
    116          6           0      -13.065365    3.646974   -1.248603
    117          6           0      -12.601513    0.154427   -0.977121
    118          8           0      -11.420642    0.354661   -1.275488
    119          6           0      -13.215964   -1.186852   -0.587921
    120          6           0      -12.894139   -2.124091   -1.716496
    121          8           0      -13.472797   -2.157836   -2.787022
    122          8           0      -11.770379   -2.730785   -1.371362
    123          6           0      -10.992255   -3.382334   -2.413255
    124          1           0      -19.444524   -3.650204    0.821908
    125          1           0      -21.652914    2.409123    0.861850
    126          1           0      -15.855092    4.653776   -0.678248
    127          1           0      -15.070892   -3.754829   -1.151306
    128          1           0      -17.142535   -4.787757    0.360593
    129          1           0      -16.993351   -4.531145   -2.482387
    130          1           0      -18.543408   -3.900907   -1.936771
    131          1           0      -18.012074   -5.500417   -1.413009
    132          1           0      -15.551734   -4.287286    1.780584
    133          1           0      -14.481391   -2.986560    1.338945
    134          1           0      -13.760154   -5.537952    1.756878
    135          1           0      -12.784488   -4.429683    0.763211
    136          1           0      -22.839339   -3.179616    1.395009
    137          1           0      -22.293132   -2.970836    2.980038
    138          1           0      -21.296909   -3.887476    1.884023
    139          1           0      -23.899113   -1.458877    2.951169
    140          1           0      -24.447916   -1.643811    1.230620
    141          1           0      -25.236771   -0.516659    2.195058
    142          1           0      -20.555012    4.752611    0.850949
    143          1           0      -18.348796    5.495512   -0.957633
    144          1           0      -20.257099    5.004728   -2.043892
    145          1           0      -21.710423    5.296874   -1.193955
    146          1           0      -21.270547    3.617239   -1.788482
    147          1           0      -19.199921    6.218140    1.448913
    148          1           0      -17.741734    6.848246    0.675656
    149          1           0      -17.951700    4.510638    2.531352
    150          1           0      -17.690159    6.257687    3.001253
    151          1           0      -16.414111    5.199617    2.237773
    152          1           0      -13.505211    4.628828   -1.423799
    153          1           0      -12.587811    3.370769   -2.188792
    154          1           0      -12.263038    3.677047   -0.512074
    155          1           0      -12.735154   -1.682297    0.255788
    156          1           0      -11.285106   -3.281695   -3.457855
    157          1           0      -11.133825   -4.439447   -2.186283
    158          1           0       -9.944248   -3.365058   -2.113864
 ---------------------------------------------------------------------

 SCF Done:  E(RCAM-B3LYP) =  -4069.80732573     A.U. after   17 cycles

 Excitation energies and oscillator strengths:

 Excited State   1:      Singlet-A      1.7294 eV  716.92 nm  f=0.4587  <S**2>=0.000
     310 -> 316       -0.18650
     312 -> 314        0.68148
     310 <- 316       -0.10936
 This state for optimization and/or second-order correction.
 Total Energy, E(TD-HF/TD-DFT) =  -4069.74377183
 Copying the excited state density for this state as the 1-particle RhoCI density.

 Excited State   2:      Singlet-A      1.7419 eV  711.78 nm  f=0.3342  <S**2>=0.000
     309 -> 315        0.17635
     311 -> 313        0.68299
     309 <- 315        0.10356

 Excited State   3:      Singlet-A      2.2140 eV  559.99 nm  f=0.1011  <S**2>=0.000
     310 -> 314        0.64247
     312 -> 316        0.28228

 Excited State   4:      Singlet-A      2.2176 eV  559.10 nm  f=0.1287  <S**2>=0.000
     309 -> 313        0.65044
     311 -> 315       -0.25331

 Excited State   5:      Singlet-A      2.9684 eV  417.68 nm  f=0.0000  <S**2>=0.000
     312 -> 313        0.70709

 The electronic state is 1-A.
 Alpha  occ. eigenvalues --  -46.89114 -46.88750 -19.26398 -19.26198 -19.19588
 Alpha  occ. eigenvalues --  -19.19483 -19.19364 -19.18587 -19.18284 -19.18168
 Alpha  occ. eigenvalues --  -14.42085 -14.42067 -14.41741 -14.41555 -14.39795
 Alpha  occ. eigenvalues --  -14.39272 -14.38697 -14.38611 -10.39472 -10.39097
 Alpha  occ. eigenvalues --  -10.35415 -10.34843 -10.34459 -10.34454 -10.32748
 Alpha  occ. eigenvalues --  -10.31986 -10.31685 -10.31224 -10.31221 -10.31192
 Alpha  occ. eigenvalues --  -10.31032 -10.30748 -10.30599 -10.30526 -10.30393
 Alpha  occ. eigenvalues --  -10.30216 -10.29693 -10.29519 -10.29428 -10.29339
 Alpha  occ. eigenvalues --  -10.29214 -10.29206 -10.29047 -10.28934 -10.28565
 Alpha  occ. eigenvalues --  -10.28465 -10.28382 -10.28346 -10.28338 -10.28284
 Alpha  occ. eigenvalues --  -10.28230 -10.28213 -10.28163 -10.28025 -10.28010
 Alpha  occ. eigenvalues --  -10.27737 -10.27526 -10.27405 -10.27366 -10.27299
 Alpha  occ. eigenvalues --  -10.27231 -10.27180 -10.27097 -10.27075 -10.27003
 Alpha  occ. eigenvalues --  -10.26966 -10.26778 -10.26656 -10.26647 -10.26562
 Alpha  occ. eigenvalues --  -10.26553 -10.26474 -10.26444 -10.26345 -10.26306
 Alpha  occ. eigenvalues --  -10.26264 -10.25911 -10.25863 -10.25751 -10.25626
 Alpha  occ. eigenvalues --  -10.25560 -10.25341 -10.25175 -10.25041 -10.24979
 Alpha  occ. eigenvalues --  -10.24557  -3.17567  -3.17206  -1.92443  -1.92114
 Alpha  occ. eigenvalues --   -1.92042  -1.91849  -1.91697  -1.91467  -1.18276
 Alpha  occ. eigenvalues --   -1.17422  -1.11329  -1.09562  -1.09058  -1.08615
 Alpha  occ. eigenvalues --   -1.08404  -1.07998  -1.04990  -1.04974  -1.04549
 Alpha  occ. eigenvalues --   -1.03735  -1.02737  -1.02559  -1.01821  -1.01522
 Alpha  occ. eigenvalues --   -0.94077  -0.93307  -0.89288  -0.89053  -0.88755
 Alpha  occ. eigenvalues --   -0.88682  -0.88570  -0.87982  -0.87797  -0.87057
 Alpha  occ. eigenvalues --   -0.86333  -0.86193  -0.85853  -0.85492  -0.85107
 Alpha  occ. eigenvalues --   -0.84395  -0.84137  -0.83683  -0.83359  -0.82809
 Alpha  occ. eigenvalues --   -0.82578  -0.81464  -0.81367  -0.80905  -0.80745
 Alpha  occ. eigenvalues --   -0.79984  -0.78632  -0.77999  -0.77866  -0.77293
 Alpha  occ. eigenvalues --   -0.77068  -0.76964  -0.76267  -0.76168  -0.75076
 Alpha  occ. eigenvalues --   -0.74965  -0.72634  -0.72520  -0.72132  -0.71667
 Alpha  occ. eigenvalues --   -0.70154  -0.69490  -0.69130  -0.68852  -0.68850
 Alpha  occ. eigenvalues --   -0.67995  -0.67137  -0.66568  -0.66058  -0.65344
 Alpha  occ. eigenvalues --   -0.65222  -0.65219  -0.64929  -0.64606  -0.64397
 Alpha  occ. eigenvalues --   -0.64295  -0.63833  -0.62757  -0.60249  -0.59808
 Alpha  occ. eigenvalues --   -0.59741  -0.59615  -0.59347  -0.59162  -0.58833
 Alpha  occ. eigenvalues --   -0.58419  -0.58393  -0.58050  -0.58029  -0.57265
 Alpha  occ. eigenvalues --   -0.56849  -0.56820  -0.56594  -0.55962  -0.55812
 Alpha  occ. eigenvalues --   -0.55166  -0.54915  -0.54751  -0.54631  -0.54526
 Alpha  occ. eigenvalues --   -0.54259  -0.53761  -0.53546  -0.53492  -0.53211
 Alpha  occ. eigenvalues --   -0.53081  -0.52890  -0.52492  -0.52479  -0.51988
 Alpha  occ. eigenvalues --   -0.51896  -0.51833  -0.51661  -0.51438  -0.51295
 Alpha  occ. eigenvalues --   -0.51195  -0.51087  -0.50996  -0.50928  -0.50338
 Alpha  occ. eigenvalues --   -0.50084  -0.49639  -0.49607  -0.49477  -0.49357
 Alpha  occ. eigenvalues --   -0.49159  -0.49125  -0.48803  -0.48760  -0.48693
 Alpha  occ. eigenvalues --   -0.48623  -0.48482  -0.48327  -0.48165  -0.48072
 Alpha  occ. eigenvalues --   -0.47923  -0.47635  -0.47262  -0.47104  -0.46853
 Alpha  occ. eigenvalues --   -0.46732  -0.46436  -0.46414  -0.46367  -0.46060
 Alpha  occ. eigenvalues --   -0.45974  -0.45859  -0.45825  -0.45744  -0.45648
 Alpha  occ. eigenvalues --   -0.45611  -0.45546  -0.45303  -0.45238  -0.44954
 Alpha  occ. eigenvalues --   -0.44866  -0.44784  -0.44665  -0.44627  -0.44546
 Alpha  occ. eigenvalues --   -0.44405  -0.43740  -0.43707  -0.43554  -0.43286
 Alpha  occ. eigenvalues --   -0.43217  -0.43015  -0.42898  -0.42818  -0.42666
 Alpha  occ. eigenvalues --   -0.42447  -0.42313  -0.42253  -0.42123  -0.41912
 Alpha  occ. eigenvalues --   -0.41791  -0.41711  -0.41605  -0.41280  -0.41160
 Alpha  occ. eigenvalues --   -0.41156  -0.40965  -0.40963  -0.40682  -0.40489
 Alpha  occ. eigenvalues --   -0.40233  -0.39569  -0.39536  -0.39253  -0.39202
 Alpha  occ. eigenvalues --   -0.38684  -0.38355  -0.37835  -0.37698  -0.37525
 Alpha  occ. eigenvalues --   -0.37107  -0.37061  -0.36894  -0.36667  -0.36338
 Alpha  occ. eigenvalues --   -0.36171  -0.35973  -0.34700  -0.34343  -0.34016
 Alpha  occ. eigenvalues --   -0.33999  -0.33111  -0.33107  -0.31786  -0.31355
 Alpha  occ. eigenvalues --   -0.30885  -0.30734  -0.30448  -0.30341  -0.30106
 Alpha  occ. eigenvalues --   -0.29875  -0.28994  -0.28908  -0.24303  -0.23746
 Alpha  occ. eigenvalues --   -0.21673  -0.21027
 Alpha virt. eigenvalues --   -0.09146  -0.08439  -0.01888  -0.01472   0.00144
 Alpha virt. eigenvalues --    0.00244   0.01337   0.02009   0.02864   0.02921
 Alpha virt. eigenvalues --    0.04984   0.05126   0.05507   0.05654   0.05952

 Mulliken charges:
               1
     1  Mg  12.000131
     2  C    5.998925
     3  C    6.001795
     4  C    6.001351
     5  C    5.998385
     6  N    6.999949
     7  C    6.002507
     8  C    5.998705
     9  C    6.001180
    10  C    5.997493
    11  C    6.000245
    12  C    5.999425
    13  C    5.999741
    14  H    1.000768
    15  N    7.000939
    16  C    5.995712
    17  C    5.998574
    18  C    5.999215
    19  C    5.996254
    20  C    6.000312
    21  C    5.998853
    22  O    7.998135
    23  C    6.000498
    24  N    6.999561
    25  C    5.997550
    26  C    6.000780
    27  C    5.999045
    28  C    6.002667
    29  C    6.000101
    30  C    5.999735
    31  C    5.999924
    32  N    6.999757
    33  C    6.003244
    34  C    6.002707
    35  C    6.000252
    36  C    6.002625
    37  C    5.999688
    38  C    6.001442
    39  O    8.002538
    40  C    6.000140
    41  C    6.000394
    42  O    8.000436
    43  O    7.999972
    44  C    5.999832
    45  H    0.999260
    46  H    0.999203
    47  H    1.000308
    48  H    1.000145
    49  H    0.999742
    50  H    0.999891
    51  H    0.998868
    52  H    1.000139
    53  H    0.999652
    54  H    1.000801
    55  H    1.001147
    56  H    0.999412
    57  H    0.998283
    58  H    0.998414
    59  H    0.998565
    60  H    0.998825
    61  H    0.998940
    62  H    0.999436
    63  H    0.999916
    64  H    0.999932
    65  H    1.000260
    66  H    0.999074
    67  H    0.999887
    68  H    1.000017
    69  H    1.000786
    70  H    1.000330
    71  H    0.999768
    72  H    0.999894
    73  H    1.002000
    74  H    1.001254
    75  H    1.002134
    76  H    1.000964
    77  H    1.000443
    78  H    1.000103
    79  H    1.000722
    80  Mg  12.002414
    81  C    6.014022
    82  C    5.977721
    83  C    5.984272
    84  C    6.026569
    85  N    6.996682
    86  C    5.970043
    87  C    6.005386
    88  C    5.989822
    89  C    6.039961
    90  C    5.999352
    91  C    6.001769
    92  C    6.001580
    93  H    0.994582
    94  N    6.988315
    95  C    6.049776
    96  C    6.013936
    97  C    6.018749
    98  C    6.033731
    99  C    5.995641
   100  C    6.014628
   101  O    8.026332
   102  C    5.993074
   103  N    7.006014
   104  C    6.032849
   105  C    5.989626
   106  C    6.011600
   107  C    5.961686
   108  C    5.993176
   109  C    6.001474
   110  C    6.008120
   111  N    7.007208
   112  C    5.952349
   113  C    5.971431
   114  C    5.995841
   115  C    5.965659
   116  C    6.004113
   117  C    5.983361
   118  O    7.970696
   119  C    6.002351
   120  C    5.994588
   121  O    7.993196
   122  O    7.999531
   123  C    6.005118
   124  H    1.009635
   125  H    1.006587
   126  H    0.994399
   127  H    0.998222
   128  H    1.002440
   129  H    1.013875
   130  H    0.995197
   131  H    1.002142
   132  H    0.985365
   133  H    1.007219
   134  H    0.995310
   135  H    1.005054
   136  H    1.017950
   137  H    1.019221
   138  H    1.019328
   139  H    1.006386
   140  H    1.008606
   141  H    1.015839
   142  H    1.000902
   143  H    0.998248
   144  H    1.012874
   145  H    1.003913
   146  H    0.996433
   147  H    0.988675
   148  H    0.999547
   149  H    0.989202
   150  H    0.994505
   151  H    1.007729
   152  H    0.979330
   153  H    0.981510
   154  H    0.981214
   155  H    0.989451
   156  H    0.996306
   157  H    0.992718
   158  H    0.996326
 Sum of Mulliken charges = 624.00000

 Dipole moment (field-independent basis, Debye):
    X=            -10.8810    Y=             -3.8017    Z=              2.6507  Tot=             11.8269
 Quadrupole moment (field-independent basis, Debye-Ang):
   XX=            333.0406   YY=             -4.5014   ZZ=              1.5854
   XY=             45.3765   XZ=            -47.8725   YZ=             -1.3022

 Normal termination of Gaussian 16 at Wed Sep 22 19:56:35 2021.
