 Gaussian 16, Revision A.03,
 Gaussian 16:  ES64L-G16RevA.03 25-Dec-2016

 -----------------------------------
 #p cam-b3lyp/Def2SVP td=(nstates=5)
 -----------------------------------

 --------------------------------
 TDDFT excited states in gaussian
 --------------------------------
 Symbolic Z-matrix:
 Charge =  0 Multiplicity = 1

                         Standard orientation:
 ---------------------------------------------------------------------
 Center     Atomic      Atomic             Coordinates (Angstroms)
 Number     Number       Type             X           Y           Z
 ---------------------------------------------------------------------
      1         12           0       -8.754424   -0.448056   -0.135075
      2          6           0       -7.112864    2.519113    0.887276
      3          6           0      -11.096260    1.656822   -1.652932
      4          6           0      -10.342164   -3.092599   -1.259800
      5          6           0       -6.802926   -2.265322    2.096321
      6          7           0       -9.006580    1.812012   -0.357646
      7          6           0       -8.152998    2.809195    0.005884
      8          6           0       -8.594844    4.238359   -0.352810
      9          6           0       -9.983192    3.862865   -1.081003
     10          6           0      -10.010653    2.365388   -0.997351
     11          6           0      -11.267475    4.461444   -0.382088
     12          6           0       -7.588784    4.970279   -1.299786
     13          6           0       -6.741489    6.171377   -0.898240
     14          1           0       -6.428501    7.284752   -1.889165
     15          7           0      -10.443820   -0.719472   -1.364433
     16          6           0      -11.320769    0.268902   -1.834164
     17          6           0      -12.421765   -0.405462   -2.485014
     18          6           0      -12.150484   -1.770800   -2.528450
     19          6           0      -10.906200   -1.907981   -1.746606
     20          6           0      -13.459728    0.421576   -3.163693
     21          6           0      -12.946696   -2.943478   -3.099901
     22          8           0      -12.597314   -4.126160   -3.037756
     23          6           0      -14.143991   -2.614386   -3.901552
     24          7           0       -8.693345   -2.404313    0.401243
     25          6           0       -9.289496   -3.382657   -0.345213
     26          6           0       -8.658207   -4.784328   -0.044877
     27          6           0       -7.652860   -4.477277    1.057418
     28          6           0       -7.756859   -2.941102    1.267844
     29          6           0       -9.715308   -5.889746    0.280363
     30          6           0       -6.254704   -4.945919    0.626516
     31          6           0       -5.415292   -5.668438    1.616455
     32          7           0       -7.326865   -0.016620    1.305554
     33          6           0       -6.596212   -0.847674    2.116604
     34          6           0       -5.652175   -0.112309    2.903827
     35          6           0       -5.706565    1.280955    2.406327
     36          6           0       -6.763923    1.249305    1.413970
     37          6           0       -4.736405   -0.698595    3.991935
     38          6           0       -5.170564    2.662107    2.502993
     39          8           0       -4.185024    3.098539    3.121543
     40          6           0       -6.074390    3.499238    1.507079
     41          6           0       -6.635866    4.510744    2.456796
     42          8           0       -7.631199    4.421726    3.165428
     43          8           0       -5.984550    5.638279    2.371253
     44          6           0       -6.266971    6.726372    3.338666
     45          1           0      -11.653137    2.419667   -2.200432
     46          1           0      -10.798238   -4.048658   -1.523900
     47          1           0       -6.151782   -2.862056    2.737916
     48          1           0       -8.787125    4.768067    0.581057
     49          1           0      -10.085459    4.084061   -2.143864
     50          1           0      -11.151671    4.832878    0.635742
     51          1           0      -12.046141    3.701487   -0.327138
     52          1           0      -11.640607    5.280720   -0.996901
     53          1           0       -8.172738    5.323752   -2.149739
     54          1           0       -6.835191    4.271520   -1.660780
     55          1           0       -5.776295    5.686866   -0.750037
     56          1           0       -7.257949    6.512704   -0.001040
     57          1           0      -13.491174    0.235136   -4.236284
     58          1           0      -13.270384    1.485588   -3.019591
     59          1           0      -14.469315    0.226990   -2.803062
     60          1           0      -13.887327   -1.859041   -4.644412
     61          1           0      -14.901914   -2.087527   -3.321658
     62          1           0      -14.556601   -3.453817   -4.460293
     63          1           0       -8.191943   -5.020621   -1.001222
     64          1           0       -7.868195   -5.052222    1.957914
     65          1           0      -10.747342   -5.589752    0.099269
     66          1           0       -9.693516   -6.228232    1.315584
     67          1           0       -9.450319   -6.813842   -0.233166
     68          1           0       -5.769607   -4.009350    0.354498
     69          1           0       -6.245221   -5.632350   -0.219778
     70          1           0       -4.487930   -5.097445    1.655396
     71          1           0       -5.325487   -6.718850    1.339735
     72          1           0       -5.776511   -5.624857    2.644165
     73          1           0       -5.248506   -0.645088    4.951952
     74          1           0       -3.804233   -0.133861    3.992853
     75          1           0       -4.524192   -1.755077    3.826433
     76          1           0       -5.398135    3.968862    0.793004
     77          1           0       -7.293846    7.089211    3.310785
     78          1           0       -5.603423    7.586225    3.248817
     79          1           0       -6.104918    6.501358    4.392361
     80         12           0        7.997594   -0.859236   -0.141438
     81          6           0       10.585494    1.288038   -0.752934
     82          6           0        5.800998    1.645611   -0.196383
     83          6           0        5.707218   -3.031854    0.668775
     84          6           0       10.487559   -3.330572    0.487153
     85          7           0        8.189453    1.298396   -0.275198
     86          6           0        9.299883    1.887784   -0.784689
     87          6           0        9.005684    3.255471   -1.337455
     88          6           0        7.505226    3.445610   -0.875648
     89          6           0        7.140239    2.080032   -0.335131
     90          6           0        7.275859    4.616906    0.109450
     91          6           0        9.319063    3.419948   -2.947465
     92          6           0       10.103577    4.653264   -3.420450
     93          1           0       10.054089    5.916225   -2.504273
     94          7           0        6.085424   -0.751460    0.010636
     95          6           0        5.292378    0.350948   -0.027773
     96          6           0        3.911772    0.070183    0.282593
     97          6           0        3.836713   -1.289072    0.330948
     98          6           0        5.260537   -1.730140    0.457532
     99          6           0        2.990709    1.259456    0.484690
    100          6           0        2.589200   -2.183862    0.471239
    101          8           0        2.626722   -3.388456    0.567499
    102          6           0        1.297472   -1.422307    0.516539
    103          7           0        8.141528   -2.858649    0.656744
    104          6           0        6.992079   -3.547482    0.774379
    105          6           0        7.267038   -5.017959    1.104297
    106          6           0        8.779976   -5.182022    0.732984
    107          6           0        9.192065   -3.698455    0.640997
    108          6           0        6.921247   -5.542540    2.562711
    109          6           0        9.091193   -5.898419   -0.634877
    110          6           0        8.582576   -5.388212   -1.957466
    111          7           0       10.110895   -1.109418   -0.192973
    112          6           0       11.005355   -2.122526    0.167165
    113          6           0       12.400636   -1.700234   -0.009575
    114          6           0       12.284027   -0.353258   -0.384135
    115          6           0       10.881594   -0.085938   -0.473152
    116          6           0       13.652493   -2.529815    0.117603
    117          6           0       12.978750    0.807575   -0.708265
    118          8           0       14.166874    1.087407   -0.742213
    119          6           0       11.932837    1.846989   -1.188100
    120          6           0       12.345562    3.072031   -0.465586
    121          8           0       12.090344    3.327189    0.713814
    122          8           0       13.154823    3.852022   -1.239805
    123          6           0       13.907713    4.947371   -0.620550
    124          1           0        5.094723    2.450071   -0.412998
    125          1           0        4.992831   -3.825689    0.893394
    126          1           0       11.133902   -4.192676    0.668750
    127          1           0        9.561724    4.017999   -0.791938
    128          1           0        6.880917    3.582000   -1.758407
    129          1           0        7.150606    4.212831    1.113933
    130          1           0        6.354206    5.127242   -0.170260
    131          1           0        8.160940    5.250224    0.047938
    132          1           0        8.336539    3.418208   -3.419581
    133          1           0        9.913126    2.580705   -3.307828
    134          1           0        9.682553    5.032540   -4.351194
    135          1           0       11.126529    4.367714   -3.665373
    136          1           0        3.262424    1.921885    1.306702
    137          1           0        1.969763    1.114229    0.837283
    138          1           0        3.002357    1.698315   -0.513011
    139          1           0        1.192841   -0.789342   -0.364340
    140          1           0        1.365833   -0.928405    1.485590
    141          1           0        0.359648   -1.974922    0.472619
    142          1           0        6.579538   -5.525279    0.426550
    143          1           0        9.303611   -5.612143    1.587030
    144          1           0        6.500338   -4.727212    3.150587
    145          1           0        7.830248   -5.793638    3.108018
    146          1           0        6.274122   -6.418835    2.624048
    147          1           0        8.693063   -6.888505   -0.411324
    148          1           0       10.161462   -5.989796   -0.817251
    149          1           0        7.865750   -4.584046   -1.786332
    150          1           0        8.047138   -6.174268   -2.489718
    151          1           0        9.320315   -4.936407   -2.620274
    152          1           0       14.223200   -2.286474    1.012709
    153          1           0       14.276127   -2.393021   -0.766001
    154          1           0       13.262433   -3.537430    0.263532
    155          1           0       11.915362    1.934848   -2.274568
    156          1           0       14.810426    5.194730   -1.180389
    157          1           0       14.044774    4.794776    0.448886
    158          1           0       13.337285    5.875050   -0.578259
 ---------------------------------------------------------------------

 SCF Done:  E(RCAM-B3LYP) =  -4069.79861115     A.U. after   17 cycles

 Excitation energies and oscillator strengths:

 Excited State   1:      Singlet-A      1.7518 eV  707.75 nm  f=0.6577  <S**2>=0.000
     309 -> 315        0.15387
     311 -> 313        0.58233
     312 -> 314        0.35894
 This state for optimization and/or second-order correction.
 Total Energy, E(TD-HF/TD-DFT) =  -4069.73423317
 Copying the excited state density for this state as the 1-particle RhoCI density.

 Excited State   2:      Singlet-A      1.7780 eV  697.34 nm  f=0.1351  <S**2>=0.000
     310 -> 316        0.16469
     311 -> 313       -0.35855
     312 -> 314        0.57973

 Excited State   3:      Singlet-A      2.2203 eV  558.42 nm  f=0.0983  <S**2>=0.000
     309 -> 313        0.63638
     311 -> 315       -0.29310

 Excited State   4:      Singlet-A      2.2773 eV  544.43 nm  f=0.0585  <S**2>=0.000
     310 -> 314        0.61547
     312 -> 316       -0.33826

 Excited State   5:      Singlet-A      2.6615 eV  465.85 nm  f=0.0000  <S**2>=0.000
     312 -> 313        0.70684

 The electronic state is 1-A.
 Alpha  occ. eigenvalues --  -46.88732 -46.87800 -19.25544 -19.23790 -19.19753
 Alpha  occ. eigenvalues --  -19.19738 -19.19139 -19.18420 -19.18208 -19.17504
 Alpha  occ. eigenvalues --  -14.42791 -14.42095 -14.41554 -14.40905 -14.40022
 Alpha  occ. eigenvalues --  -14.39835 -14.39205 -14.38597 -10.38882 -10.38124
 Alpha  occ. eigenvalues --  -10.36145 -10.35758 -10.35708 -10.33402 -10.32171
 Alpha  occ. eigenvalues --  -10.31835 -10.31623 -10.31325 -10.31097 -10.30948
 Alpha  occ. eigenvalues --  -10.30738 -10.30674 -10.30547 -10.30431 -10.30291
 Alpha  occ. eigenvalues --  -10.30104 -10.29970 -10.29626 -10.29254 -10.29064
 Alpha  occ. eigenvalues --  -10.28988 -10.28943 -10.28916 -10.28878 -10.28810
 Alpha  occ. eigenvalues --  -10.28734 -10.28650 -10.28555 -10.28254 -10.28228
 Alpha  occ. eigenvalues --  -10.28110 -10.28079 -10.27927 -10.27904 -10.27693
 Alpha  occ. eigenvalues --  -10.27680 -10.27660 -10.27648 -10.27633 -10.27468
 Alpha  occ. eigenvalues --  -10.27433 -10.27428 -10.27332 -10.27246 -10.27188
 Alpha  occ. eigenvalues --  -10.27132 -10.27089 -10.26738 -10.26712 -10.26556
 Alpha  occ. eigenvalues --  -10.26326 -10.26245 -10.26155 -10.26017 -10.25991
 Alpha  occ. eigenvalues --  -10.25919 -10.25916 -10.25889 -10.25862 -10.25769
 Alpha  occ. eigenvalues --  -10.25406 -10.25354 -10.25116 -10.24948 -10.24900
 Alpha  occ. eigenvalues --  -10.23902  -3.17329  -3.16655  -1.92230  -1.91785
 Alpha  occ. eigenvalues --   -1.91633  -1.91520  -1.91124  -1.90988  -1.18034
 Alpha  occ. eigenvalues --   -1.14717  -1.11332  -1.10253  -1.08859  -1.08664
 Alpha  occ. eigenvalues --   -1.06721  -1.05792  -1.05686  -1.05428  -1.04539
 Alpha  occ. eigenvalues --   -1.04211  -1.03960  -1.02971  -1.02841  -1.01575
 Alpha  occ. eigenvalues --   -0.92191  -0.92076  -0.89743  -0.89437  -0.89227
 Alpha  occ. eigenvalues --   -0.88999  -0.88259  -0.87927  -0.87875  -0.87815
 Alpha  occ. eigenvalues --   -0.87313  -0.86947  -0.86402  -0.85319  -0.84544
 Alpha  occ. eigenvalues --   -0.84217  -0.83676  -0.83449  -0.83075  -0.82868
 Alpha  occ. eigenvalues --   -0.82506  -0.82445  -0.81040  -0.80911  -0.80717
 Alpha  occ. eigenvalues --   -0.80364  -0.78969  -0.78798  -0.77686  -0.77322
 Alpha  occ. eigenvalues --   -0.77089  -0.76840  -0.76389  -0.75551  -0.75348
 Alpha  occ. eigenvalues --   -0.75068  -0.72486  -0.72442  -0.72013  -0.71532
 Alpha  occ. eigenvalues --   -0.69511  -0.69418  -0.68862  -0.68350  -0.68003
 Alpha  occ. eigenvalues --   -0.67836  -0.67149  -0.67127  -0.66098  -0.65455
 Alpha  occ. eigenvalues --   -0.65269  -0.65065  -0.64836  -0.64586  -0.64410
 Alpha  occ. eigenvalues --   -0.63619  -0.62622  -0.61578  -0.61133  -0.60908
 Alpha  occ. eigenvalues --   -0.59725  -0.59190  -0.59163  -0.59125  -0.58692
 Alpha  occ. eigenvalues --   -0.58091  -0.57858  -0.57789  -0.57648  -0.57398
 Alpha  occ. eigenvalues --   -0.56885  -0.56118  -0.55857  -0.55185  -0.55175
 Alpha  occ. eigenvalues --   -0.54936  -0.54538  -0.54494  -0.54382  -0.54201
 Alpha  occ. eigenvalues --   -0.54040  -0.53742  -0.53478  -0.53094  -0.53068
 Alpha  occ. eigenvalues --   -0.52858  -0.52767  -0.52470  -0.52440  -0.52321
 Alpha  occ. eigenvalues --   -0.52252  -0.52161  -0.51623  -0.51444  -0.51093
 Alpha  occ. eigenvalues --   -0.50762  -0.50641  -0.50470  -0.50284  -0.50221
 Alpha  occ. eigenvalues --   -0.50086  -0.50064  -0.49921  -0.49607  -0.49309
 Alpha  occ. eigenvalues --   -0.49254  -0.49172  -0.48949  -0.48946  -0.48724
 Alpha  occ. eigenvalues --   -0.48622  -0.48413  -0.48405  -0.48212  -0.47981
 Alpha  occ. eigenvalues --   -0.47905  -0.47858  -0.47643  -0.47618  -0.47005
 Alpha  occ. eigenvalues --   -0.46838  -0.46628  -0.46513  -0.46511  -0.46365
 Alpha  occ. eigenvalues --   -0.46249  -0.46050  -0.45773  -0.45656  -0.45559
 Alpha  occ. eigenvalues --   -0.45397  -0.45335  -0.45201  -0.45099  -0.44872
 Alpha  occ. eigenvalues --   -0.44684  -0.44578  -0.44452  -0.44351  -0.44182
 Alpha  occ. eigenvalues --   -0.43971  -0.43769  -0.43662  -0.43397  -0.43271
 Alpha  occ. eigenvalues --   -0.43264  -0.43033  -0.43032  -0.42727  -0.42698
 Alpha  occ. eigenvalues --   -0.42636  -0.42243  -0.42089  -0.42004  -0.41857
 Alpha  occ. eigenvalues --   -0.41699  -0.41578  -0.41464  -0.41423  -0.41101
 Alpha  occ. eigenvalues --   -0.41021  -0.40929  -0.40594  -0.40557  -0.40383
 Alpha  occ. eigenvalues --   -0.40298  -0.40004  -0.39721  -0.39441  -0.39072
 Alpha  occ. eigenvalues --   -0.38634  -0.38339  -0.38133  -0.38047  -0.37431
 Alpha  occ. eigenvalues --   -0.36873  -0.36823  -0.36614  -0.36303  -0.36125
 Alpha  occ. eigenvalues --   -0.36060  -0.35029  -0.34652  -0.34208  -0.33670
 Alpha  occ. eigenvalues --   -0.33305  -0.33134  -0.32791  -0.32302  -0.32104
 Alpha  occ. eigenvalues --   -0.31960  -0.31164  -0.30871  -0.30564  -0.30518
 Alpha  occ. eigenvalues --   -0.29947  -0.29559  -0.28951  -0.24122  -0.23657
 Alpha  occ. eigenvalues --   -0.21392  -0.20452
 Alpha virt. eigenvalues --   -0.08725  -0.07659  -0.02065  -0.01594  -0.00409
 Alpha virt. eigenvalues --    0.00398   0.01859   0.02423   0.02467   0.03179
 Alpha virt. eigenvalues --    0.05009   0.05153   0.05554   0.05960   0.06259

 Mulliken charges:
               1
     1  Mg   0.831872
     2  C    0.053170
     3  C   -0.082017
     4  C   -0.070293
     5  C   -0.080724
     6  N   -0.209772
     7  C   -0.072102
     8  C    0.011175
     9  C   -0.072519
    10  C   -0.024344
    11  C    0.046582
    12  C    0.028692
    13  C   -0.068149
    14  H    0.028063
    15  N   -0.362325
    16  C    0.170522
    17  C   -0.116267
    18  C   -0.037711
    19  C    0.148313
    20  C    0.098432
    21  C    0.036830
    22  O   -0.200481
    23  C    0.053864
    24  N   -0.348646
    25  C   -0.000747
    26  C   -0.010973
    27  C   -0.014541
    28  C    0.090635
    29  C    0.058739
    30  C    0.000380
    31  C    0.009764
    32  N   -0.369794
    33  C    0.133995
    34  C   -0.186207
    35  C   -0.008826
    36  C    0.093984
    37  C    0.119682
    38  C    0.043345
    39  O   -0.193140
    40  C   -0.048247
    41  C    0.168122
    42  O   -0.239386
    43  O   -0.279406
    44  C    0.189373
    45  H   -0.019942
    46  H   -0.008213
    47  H   -0.031772
    48  H    0.036634
    49  H    0.020386
    50  H    0.030332
    51  H    0.017794
    52  H    0.015003
    53  H    0.015098
    54  H    0.007704
    55  H    0.039737
    56  H    0.030467
    57  H    0.032715
    58  H    0.010940
    59  H    0.025324
    60  H    0.019533
    61  H    0.028450
    62  H    0.034876
    63  H    0.027855
    64  H    0.007372
    65  H    0.037098
    66  H    0.003751
    67  H    0.013181
    68  H    0.012027
    69  H    0.007694
    70  H    0.015517
    71  H    0.021684
    72  H    0.005643
    73  H    0.034158
    74  H    0.036106
    75  H    0.005669
    76  H    0.045162
    77  H    0.033802
    78  H    0.033709
    79  H    0.035588
    80  Mg   0.850319
    81  C    0.012208
    82  C   -0.108948
    83  C   -0.070685
    84  C   -0.108992
    85  N   -0.257879
    86  C   -0.052066
    87  C   -0.000754
    88  C   -0.101486
    89  C    0.045417
    90  C    0.094674
    91  C    0.048975
    92  C   -0.072426
    93  H    0.012989
    94  N   -0.419625
    95  C    0.163524
    96  C   -0.108294
    97  C   -0.091463
    98  C    0.162250
    99  C    0.092726
   100  C    0.025774
   101  O   -0.169533
   102  C    0.036601
   103  N   -0.251388
   104  C    0.003285
   105  C   -0.036962
   106  C    0.002062
   107  C   -0.034714
   108  C    0.070326
   109  C    0.035546
   110  C    0.008631
   111  N   -0.312580
   112  C    0.155180
   113  C   -0.183471
   114  C    0.078686
   115  C    0.062572
   116  C    0.144298
   117  C   -0.022679
   118  O   -0.178101
   119  C    0.001695
   120  C    0.195324
   121  O   -0.239353
   122  O   -0.323791
   123  C    0.190595
   124  H   -0.032245
   125  H   -0.010841
   126  H   -0.035470
   127  H    0.021958
   128  H    0.005768
   129  H    0.023962
   130  H    0.017032
   131  H    0.024674
   132  H    0.008789
   133  H    0.017932
   134  H    0.025613
   135  H    0.039871
   136  H    0.038958
   137  H    0.011589
   138  H    0.044550
   139  H    0.040670
   140  H    0.051525
   141  H    0.020577
   142  H    0.008137
   143  H    0.002338
   144  H    0.017057
   145  H    0.004936
   146  H    0.027793
   147  H    0.006179
   148  H    0.007457
   149  H    0.010020
   150  H    0.017463
   151  H    0.021237
   152  H    0.036019
   153  H    0.041194
   154  H   -0.001795
   155  H    0.043758
   156  H    0.042607
   157  H    0.040266
   158  H    0.011956
 Sum of Mulliken charges =  -0.00000

 Dipole moment (field-independent basis, Debye):
    X=             -8.5498    Y=              1.0996    Z=             -5.8633  Tot=             10.4253
 Quadrupole moment (field-independent basis, Debye-Ang):
   XX=           -553.8111   YY=           -474.6145   ZZ=           -511.4510
   XY=            -44.5748   XZ=             15.7457   YZ=            -25.6178

 Normal termination of Gaussian 16 at Thu Sep  2 19:41:35 2021.
