 Gaussian 16, Revision A.03,
 Gaussian 16:  ES64L-G16RevA.03 25-Dec-2016

 -----------------------------------
 #p cam-b3lyp/Def2SVP td=(nstates=5)
 -----------------------------------

 --------------------------------
 TDDFT excited states in gaussian
 --------------------------------
 Symbolic Z-matrix:
 Charge =  0 Multiplicity = 1

                         Standard orientation:
 ---------------------------------------------------------------------
 Center     Atomic      Atomic             Coordinates (Angstroms)
 Number     Number       Type             X           Y           Z
 ---------------------------------------------------------------------
      1         12           0      -24.193560    0.527053    0.088492
      2          6           0      -21.968720   -1.937108    1.139931
      3          6           0      -26.555624   -1.899205   -0.518773
      4          6           0      -26.127602    2.999075   -1.156874
      5          6           0      -21.533921    2.895844    0.379800
      6          7           0      -24.177605   -1.645471    0.195165
      7          6           0      -23.191145   -2.451764    0.672883
      8          6           0      -23.652521   -3.912579    0.755558
      9          6           0      -25.085793   -3.832496    0.065884
     10          6           0      -25.283348   -2.320344   -0.083278
     11          6           0      -25.112599   -4.538778   -1.284232
     12          6           0      -23.861000   -4.486062    2.202382
     13          6           0      -23.684214   -5.970379    2.390721
     14          1           0      -23.669351   -6.850828    1.222252
     15          7           0      -26.077529    0.550130   -0.625261
     16          6           0      -26.896240   -0.582564   -0.806073
     17          6           0      -28.195709   -0.084525   -1.174011
     18          6           0      -28.140312    1.324646   -1.320469
     19          6           0      -26.732386    1.694120   -1.033201
     20          6           0      -29.344317   -0.985025   -1.575503
     21          6           0      -29.185264    2.309947   -1.639437
     22          8           0      -28.947448    3.464214   -1.924880
     23          6           0      -30.684320    1.860617   -1.785878
     24          7           0      -23.963352    2.739263   -0.194109
     25          6           0      -24.887780    3.475650   -0.734359
     26          6           0      -24.414838    4.950841   -0.903715
     27          6           0      -22.998257    4.960202   -0.358574
     28          6           0      -22.738991    3.438199   -0.067524
     29          6           0      -24.624565    5.435280   -2.415188
     30          6           0      -22.822191    5.895766    0.856173
     31          6           0      -22.273210    7.344448    0.575402
     32          7           0      -22.319037    0.598215    0.851983
     33          6           0      -21.341635    1.622691    0.907851
     34          6           0      -20.147551    1.159571    1.505345
     35          6           0      -20.353873   -0.285111    1.527727
     36          6           0      -21.707193   -0.512213    1.146425
     37          6           0      -18.856178    1.944993    1.643527
     38          6           0      -19.648971   -1.479597    1.814983
     39          8           0      -18.513012   -1.687045    2.222699
     40          6           0      -20.792482   -2.680565    1.638867
     41          6           0      -20.171484   -3.677320    0.704839
     42          8           0      -19.792152   -3.419204   -0.442302
     43          8           0      -19.934597   -4.939479    1.325885
     44          6           0      -19.305060   -5.983391    0.458018
     45          1           0      -27.254714   -2.721278   -0.690141
     46          1           0      -26.740070    3.691643   -1.737363
     47          1           0      -20.703149    3.586423    0.536850
     48          1           0      -22.944110   -4.487722    0.158934
     49          1           0      -25.871018   -4.295296    0.663520
     50          1           0      -24.243363   -5.183828   -1.409564
     51          1           0      -25.239808   -3.848930   -2.118960
     52          1           0      -25.889687   -5.298551   -1.368103
     53          1           0      -24.856441   -4.189049    2.530659
     54          1           0      -23.207381   -3.911015    2.858646
     55          1           0      -24.550899   -6.322310    2.949843
     56          1           0      -22.758881   -6.151196    2.937738
     57          1           0      -29.612241   -0.895602   -2.628217
     58          1           0      -30.190337   -0.761210   -0.924342
     59          1           0      -29.171628   -2.056507   -1.475778
     60          1           0      -30.773558    1.453696   -2.793461
     61          1           0      -31.337012    2.733501   -1.804678
     62          1           0      -30.928019    1.077727   -1.068723
     63          1           0      -25.109429    5.501794   -0.269330
     64          1           0      -22.266613    5.172687   -1.136571
     65          1           0      -23.683689    5.785108   -2.839784
     66          1           0      -25.265547    6.312354   -2.506696
     67          1           0      -24.970222    4.543466   -2.939584
     68          1           0      -22.122984    5.390875    1.523658
     69          1           0      -23.788412    5.935673    1.359311
     70          1           0      -21.184238    7.286803    0.562575
     71          1           0      -22.609528    8.168100    1.205445
     72          1           0      -22.576081    7.469179   -0.463671
     73          1           0      -19.003140    2.499577    2.569947
     74          1           0      -18.725904    2.645410    0.819424
     75          1           0      -17.929902    1.382103    1.521376
     76          1           0      -21.023317   -3.090942    2.622707
     77          1           0      -18.306773   -5.689070    0.136144
     78          1           0      -19.834850   -6.299507   -0.440984
     79          1           0      -19.211404   -6.780529    1.195512
     80         12           0       24.278130    0.587387   -0.039325
     81          6           0       23.170008   -2.534322   -1.156977
     82          6           0       24.223670   -0.667437    3.174579
     83          6           0       24.667306    3.756734    1.166842
     84          6           0       23.649431    1.858005   -3.198953
     85          7           0       23.842452   -1.377864    0.817881
     86          6           0       23.628970   -2.522699    0.156751
     87          6           0       23.734609   -3.790037    1.017613
     88          6           0       23.889458   -3.173087    2.460457
     89          6           0       24.099410   -1.584851    2.162876
     90          6           0       22.744904   -3.428080    3.464782
     91          6           0       24.862977   -4.740694    0.617159
     92          6           0       24.589232   -6.205972    1.001999
     93          1           0       23.288932   -6.558913    1.737900
     94          7           0       24.537680    1.433750    1.872326
     95          6           0       24.550489    0.728913    3.098055
     96          6           0       24.826302    1.672721    4.162563
     97          6           0       24.895803    3.001034    3.598584
     98          6           0       24.736323    2.779597    2.162208
     99          6           0       25.074570    1.202913    5.569516
    100          6           0       25.249941    4.398061    4.280676
    101          8           0       25.413994    5.423413    3.665181
    102          6           0       25.361400    4.397816    5.789858
    103          7           0       24.081299    2.515628   -0.864800
    104          6           0       24.326057    3.678759   -0.195239
    105          6           0       24.227101    4.938559   -1.132151
    106          6           0       23.976670    4.281094   -2.488320
    107          6           0       23.893242    2.803104   -2.156359
    108          6           0       23.273079    6.152389   -0.787667
    109          6           0       25.118426    4.596033   -3.483066
    110          6           0       26.412363    3.754140   -3.425191
    111          7           0       23.697650   -0.145359   -1.913882
    112          6           0       23.482428    0.481503   -3.113837
    113          6           0       23.084452   -0.447371   -4.117897
    114          6           0       22.930973   -1.706998   -3.381699
    115          6           0       23.280317   -1.445574   -2.114222
    116          6           0       22.820508   -0.281111   -5.548818
    117          6           0       22.458767   -3.082859   -3.452473
    118          8           0       22.112184   -3.754277   -4.430170
    119          6           0       22.589539   -3.703640   -2.030454
    120          6           0       21.307792   -4.204374   -1.544641
    121          8           0       20.394794   -3.526354   -1.085329
    122          8           0       21.182805   -5.527273   -1.887618
    123          6           0       19.848754   -6.158418   -1.894109
    124          1           0       24.154237   -1.142975    4.155351
    125          1           0       24.971582    4.747114    1.511744
    126          1           0       23.543724    2.236019   -4.217928
    127          1           0       22.785294   -4.323107    1.064807
    128          1           0       24.842403   -3.409962    2.932274
    129          1           0       23.310570   -3.834516    4.303005
    130          1           0       22.044596   -4.164900    3.072101
    131          1           0       22.214762   -2.501084    3.683591
    132          1           0       25.822703   -4.434904    1.031962
    133          1           0       25.010158   -4.714595   -0.462876
    134          1           0       25.461274   -6.413685    1.622423
    135          1           0       24.716885   -6.880147    0.153860
    136          1           0       24.802187    0.147445    5.574948
    137          1           0       24.457398    1.786510    6.252939
    138          1           0       26.110290    1.333223    5.886783
    139          1           0       24.431204    4.350158    6.356978
    140          1           0       25.950921    5.268315    6.077583
    141          1           0       25.956907    3.502386    5.967500
    142          1           0       25.238105    5.335265   -1.042276
    143          1           0       23.027932    4.676649   -2.849194
    144          1           0       22.645679    6.486812   -1.613040
    145          1           0       23.896839    7.009940   -0.537427
    146          1           0       22.702771    5.881245    0.101274
    147          1           0       25.346866    5.650278   -3.331356
    148          1           0       24.656865    4.507733   -4.467001
    149          1           0       27.213973    4.480241   -3.558040
    150          1           0       26.497826    3.036754   -4.241051
    151          1           0       26.514368    3.147539   -2.526031
    152          1           0       23.255824   -1.135937   -6.065205
    153          1           0       23.199055    0.638892   -5.994339
    154          1           0       21.757954   -0.420796   -5.748553
    155          1           0       23.329019   -4.494266   -2.156770
    156          1           0       19.069330   -5.477744   -1.549885
    157          1           0       19.877917   -6.999252   -1.200674
    158          1           0       19.753213   -6.422045   -2.946837
 ---------------------------------------------------------------------

 SCF Done:  E(RCAM-B3LYP) =  -4069.85453223     A.U. after   19 cycles

 Excitation energies and oscillator strengths:

 Excited State   1:      Singlet-A      1.7177 eV  721.80 nm  f=0.4125  <S**2>=0.000
     310 -> 316        0.18152
     312 -> 314        0.68398
     310 <- 316        0.10677
 This state for optimization and/or second-order correction.
 Total Energy, E(TD-HF/TD-DFT) =  -4069.79140726
 Copying the excited state density for this state as the 1-particle RhoCI density.

 Excited State   2:      Singlet-A      1.7264 eV  718.17 nm  f=0.3727  <S**2>=0.000
     309 -> 315        0.17542
     311 -> 313        0.68643
     309 <- 315        0.10553

 Excited State   3:      Singlet-A      2.1354 eV  580.60 nm  f=0.1569  <S**2>=0.000
     310 -> 314        0.65932
     312 -> 316       -0.23564

 Excited State   4:      Singlet-A      2.2226 eV  557.83 nm  f=0.1465  <S**2>=0.000
     309 -> 313        0.65064
     311 -> 315       -0.26125

 Excited State   5:      Singlet-A      3.1361 eV  395.34 nm  f=0.0000  <S**2>=0.000
     312 -> 313        0.70710

 The electronic state is 1-A.
 Alpha  occ. eigenvalues --  -46.88211 -46.87977 -19.24139 -19.23839 -19.19912
 Alpha  occ. eigenvalues --  -19.19441 -19.19263 -19.18951 -19.18672 -19.18210
 Alpha  occ. eigenvalues --  -14.42677 -14.42247 -14.41859 -14.41641 -14.40160
 Alpha  occ. eigenvalues --  -14.39398 -14.39342 -14.38131 -10.39054 -10.38648
 Alpha  occ. eigenvalues --  -10.36155 -10.35463 -10.35052 -10.34328 -10.31689
 Alpha  occ. eigenvalues --  -10.31600 -10.31176 -10.31148 -10.31132 -10.30853
 Alpha  occ. eigenvalues --  -10.30846 -10.30843 -10.30801 -10.30683 -10.30677
 Alpha  occ. eigenvalues --  -10.30640 -10.30285 -10.29838 -10.29690 -10.28890
 Alpha  occ. eigenvalues --  -10.28858 -10.28842 -10.28820 -10.28543 -10.28478
 Alpha  occ. eigenvalues --  -10.28239 -10.28121 -10.28095 -10.28077 -10.28038
 Alpha  occ. eigenvalues --  -10.27926 -10.27838 -10.27762 -10.27760 -10.27750
 Alpha  occ. eigenvalues --  -10.27743 -10.27629 -10.27605 -10.27542 -10.27537
 Alpha  occ. eigenvalues --  -10.27493 -10.27467 -10.27390 -10.27092 -10.26970
 Alpha  occ. eigenvalues --  -10.26915 -10.26881 -10.26872 -10.26801 -10.26559
 Alpha  occ. eigenvalues --  -10.26356 -10.26339 -10.26319 -10.26315 -10.26291
 Alpha  occ. eigenvalues --  -10.25984 -10.25951 -10.25886 -10.25850 -10.25844
 Alpha  occ. eigenvalues --  -10.25815 -10.25794 -10.25766 -10.25441 -10.24725
 Alpha  occ. eigenvalues --  -10.24523  -3.16736  -3.16673  -1.91637  -1.91585
 Alpha  occ. eigenvalues --   -1.91188  -1.91121  -1.91042  -1.90991  -1.15055
 Alpha  occ. eigenvalues --   -1.13436  -1.11550  -1.11118  -1.08833  -1.08616
 Alpha  occ. eigenvalues --   -1.06609  -1.05814  -1.05188  -1.04418  -1.03945
 Alpha  occ. eigenvalues --   -1.03373  -1.03296  -1.02417  -1.02415  -1.00989
 Alpha  occ. eigenvalues --   -0.92097  -0.92042  -0.89288  -0.89151  -0.88971
 Alpha  occ. eigenvalues --   -0.88776  -0.88404  -0.88107  -0.87762  -0.87482
 Alpha  occ. eigenvalues --   -0.87063  -0.86427  -0.86261  -0.86055  -0.84327
 Alpha  occ. eigenvalues --   -0.84169  -0.83406  -0.82983  -0.82307  -0.82200
 Alpha  occ. eigenvalues --   -0.81934  -0.81491  -0.80968  -0.80388  -0.80139
 Alpha  occ. eigenvalues --   -0.80023  -0.78786  -0.78096  -0.77266  -0.77108
 Alpha  occ. eigenvalues --   -0.76861  -0.76807  -0.75868  -0.75859  -0.75058
 Alpha  occ. eigenvalues --   -0.74981  -0.73118  -0.72400  -0.71615  -0.71061
 Alpha  occ. eigenvalues --   -0.69789  -0.69563  -0.68972  -0.68417  -0.67982
 Alpha  occ. eigenvalues --   -0.67655  -0.67287  -0.66047  -0.65785  -0.65250
 Alpha  occ. eigenvalues --   -0.64949  -0.64735  -0.64670  -0.64608  -0.64411
 Alpha  occ. eigenvalues --   -0.63694  -0.61392  -0.61368  -0.60348  -0.59740
 Alpha  occ. eigenvalues --   -0.59639  -0.59316  -0.59060  -0.59050  -0.58530
 Alpha  occ. eigenvalues --   -0.58284  -0.57779  -0.57636  -0.57378  -0.57351
 Alpha  occ. eigenvalues --   -0.56259  -0.55825  -0.55405  -0.55139  -0.54972
 Alpha  occ. eigenvalues --   -0.54631  -0.54625  -0.54002  -0.53673  -0.53392
 Alpha  occ. eigenvalues --   -0.53318  -0.53232  -0.52901  -0.52836  -0.52648
 Alpha  occ. eigenvalues --   -0.52489  -0.52369  -0.52295  -0.52254  -0.52103
 Alpha  occ. eigenvalues --   -0.52048  -0.51946  -0.51591  -0.51579  -0.51016
 Alpha  occ. eigenvalues --   -0.50772  -0.50605  -0.50559  -0.50192  -0.50136
 Alpha  occ. eigenvalues --   -0.49868  -0.49639  -0.49606  -0.49551  -0.49511
 Alpha  occ. eigenvalues --   -0.49334  -0.49285  -0.49082  -0.49029  -0.48970
 Alpha  occ. eigenvalues --   -0.48567  -0.48510  -0.48380  -0.48199  -0.48144
 Alpha  occ. eigenvalues --   -0.48098  -0.47653  -0.47591  -0.47497  -0.47214
 Alpha  occ. eigenvalues --   -0.47140  -0.47081  -0.46930  -0.46715  -0.46706
 Alpha  occ. eigenvalues --   -0.46225  -0.46094  -0.45795  -0.45770  -0.45615
 Alpha  occ. eigenvalues --   -0.45215  -0.45071  -0.45047  -0.44997  -0.44686
 Alpha  occ. eigenvalues --   -0.44611  -0.44534  -0.44254  -0.44236  -0.44089
 Alpha  occ. eigenvalues --   -0.43935  -0.43891  -0.43610  -0.43375  -0.43371
 Alpha  occ. eigenvalues --   -0.43155  -0.43024  -0.43017  -0.42882  -0.42757
 Alpha  occ. eigenvalues --   -0.42642  -0.42613  -0.42474  -0.42331  -0.41997
 Alpha  occ. eigenvalues --   -0.41896  -0.41836  -0.41494  -0.41467  -0.41301
 Alpha  occ. eigenvalues --   -0.41065  -0.40853  -0.40815  -0.40583  -0.40262
 Alpha  occ. eigenvalues --   -0.40199  -0.39884  -0.39862  -0.39427  -0.38622
 Alpha  occ. eigenvalues --   -0.38483  -0.38360  -0.37809  -0.37777  -0.37657
 Alpha  occ. eigenvalues --   -0.37230  -0.36984  -0.36596  -0.36160  -0.36090
 Alpha  occ. eigenvalues --   -0.35778  -0.35638  -0.34372  -0.34287  -0.33850
 Alpha  occ. eigenvalues --   -0.33766  -0.33510  -0.33242  -0.31658  -0.31572
 Alpha  occ. eigenvalues --   -0.31073  -0.30851  -0.30784  -0.30508  -0.29773
 Alpha  occ. eigenvalues --   -0.29572  -0.29481  -0.28622  -0.24186  -0.23481
 Alpha  occ. eigenvalues --   -0.21544  -0.21285
 Alpha virt. eigenvalues --   -0.09055  -0.08881  -0.01652  -0.01279   0.00213
 Alpha virt. eigenvalues --    0.00635   0.02400   0.02524   0.02642   0.03745
 Alpha virt. eigenvalues --    0.04712   0.05174   0.05210   0.05366   0.06041

 Mulliken charges:
               1
     1  Mg   0.837741
     2  C   -0.064363
     3  C   -0.101932
     4  C   -0.064624
     5  C   -0.069213
     6  N   -0.258941
     7  C   -0.042785
     8  C    0.004781
     9  C   -0.089128
    10  C    0.049850
    11  C    0.062951
    12  C    0.057701
    13  C   -0.049631
    14  H    0.021461
    15  N   -0.445138
    16  C    0.218504
    17  C   -0.136274
    18  C    0.001398
    19  C    0.123215
    20  C    0.099297
    21  C   -0.029035
    22  O   -0.193701
    23  C    0.055178
    24  N   -0.251936
    25  C    0.025431
    26  C   -0.042239
    27  C    0.006479
    28  C    0.003631
    29  C    0.061044
    30  C    0.040835
    31  C    0.012903
    32  N   -0.354130
    33  C    0.120119
    34  C   -0.140560
    35  C   -0.036374
    36  C    0.156020
    37  C    0.107118
    38  C    0.042577
    39  O   -0.174794
    40  C   -0.012630
    41  C    0.224442
    42  O   -0.232302
    43  O   -0.374603
    44  C    0.182345
    45  H   -0.020872
    46  H    0.005677
    47  H   -0.023851
    48  H    0.019841
    49  H    0.013815
    50  H    0.012102
    51  H    0.027936
    52  H    0.000676
    53  H    0.000786
    54  H    0.001728
    55  H    0.026162
    56  H    0.043848
    57  H    0.040760
    58  H    0.027823
    59  H    0.006496
    60  H    0.030782
    61  H    0.029451
    62  H    0.018262
    63  H    0.021891
    64  H    0.001266
    65  H    0.008348
    66  H    0.023160
    67  H    0.031269
    68  H    0.001442
    69  H    0.002345
    70  H    0.015199
    71  H    0.031738
    72  H    0.007752
    73  H    0.031012
    74  H    0.017769
    75  H    0.040089
    76  H    0.041917
    77  H    0.040500
    78  H    0.036940
    79  H    0.035249
    80  Mg   0.823039
    81  C    0.006443
    82  C   -0.075164
    83  C   -0.064054
    84  C   -0.084842
    85  N   -0.287767
    86  C   -0.049486
    87  C   -0.003273
    88  C   -0.105778
    89  C    0.045298
    90  C    0.081857
    91  C    0.057007
    92  C   -0.056549
    93  H    0.033422
    94  N   -0.398848
    95  C    0.148720
    96  C   -0.158247
    97  C   -0.054702
    98  C    0.106818
    99  C    0.107920
   100  C    0.035173
   101  O   -0.175863
   102  C    0.039520
   103  N   -0.264169
   104  C    0.020586
   105  C   -0.037473
   106  C    0.004138
   107  C    0.026971
   108  C    0.071304
   109  C    0.003291
   110  C    0.023095
   111  N   -0.363414
   112  C    0.130875
   113  C   -0.149193
   114  C    0.007059
   115  C    0.102497
   116  C    0.128407
   117  C    0.019660
   118  O   -0.185026
   119  C    0.009736
   120  C    0.206552
   121  O   -0.224760
   122  O   -0.347464
   123  C    0.165984
   124  H   -0.022139
   125  H   -0.007217
   126  H   -0.041553
   127  H    0.017820
   128  H    0.005479
   129  H    0.018264
   130  H    0.021383
   131  H    0.034532
   132  H    0.006308
   133  H    0.007276
   134  H    0.018402
   135  H    0.031211
   136  H    0.004042
   137  H    0.025195
   138  H    0.045373
   139  H    0.059624
   140  H    0.027288
   141  H    0.011644
   142  H    0.014039
   143  H    0.008391
   144  H    0.018931
   145  H    0.013825
   146  H    0.029164
   147  H    0.005392
   148  H    0.006362
   149  H    0.017050
   150  H    0.014981
   151  H    0.026899
   152  H    0.029730
   153  H    0.012611
   154  H    0.034375
   155  H    0.043350
   156  H    0.050369
   157  H    0.036879
   158  H    0.055421
 Sum of Mulliken charges =  -0.00000

 Dipole moment (field-independent basis, Debye):
    X=             -2.7046    Y=             -1.3009    Z=              2.0478  Tot=              3.6333
 Quadrupole moment (field-independent basis, Debye-Ang):
   XX=           -142.6371   YY=           -477.2228   ZZ=           -504.0529
   XY=             47.3240   XZ=             64.5203   YZ=            -20.7775

 Normal termination of Gaussian 16 at Thu Sep 16 06:52:38 2021.
