 Gaussian 16, Revision A.03,
 Gaussian 16:  ES64L-G16RevA.03 25-Dec-2016

 -----------------------------------
 #p cam-b3lyp/Def2SVP td=(nstates=5)
 -----------------------------------

 --------------------------------
 TDDFT excited states in gaussian
 --------------------------------
 Symbolic Z-matrix:
 Charge =  0 Multiplicity = 1

                         Standard orientation:
 ---------------------------------------------------------------------
 Center     Atomic      Atomic             Coordinates (Angstroms)
 Number     Number       Type             X           Y           Z
 ---------------------------------------------------------------------
      1         12           0        4.825963    0.535857    0.124262
      2          6           0        2.674517   -2.070507    0.953330
      3          6           0        7.368263   -1.648688   -0.216175
      4          6           0        6.917516    3.168512   -0.222169
      5          6           0        2.307651    2.735689    0.966065
      6          7           0        4.970435   -1.661296    0.375271
      7          6           0        3.915278   -2.527304    0.510276
      8          6           0        4.383542   -3.929721    0.417185
      9          6           0        5.882469   -3.868079    0.101299
     10          6           0        6.151171   -2.302407    0.052182
     11          6           0        6.853276   -4.639022    0.982259
     12          6           0        3.508498   -4.780384   -0.667606
     13          6           0        2.703525   -5.994545   -0.147904
     14          1           0        2.618902   -7.268535   -0.952074
     15          7           0        6.828554    0.734778   -0.295612
     16          6           0        7.744812   -0.302132   -0.387971
     17          6           0        9.040287    0.227144   -0.614801
     18          6           0        8.942548    1.645044   -0.617598
     19          6           0        7.516848    1.904357   -0.392291
     20          6           0       10.216886   -0.779329   -0.923132
     21          6           0       10.119962    2.610014   -0.745665
     22          8           0       10.046914    3.845893   -0.670303
     23          6           0       11.452607    2.088463   -1.061211
     24          7           0        4.756429    2.671048    0.566845
     25          6           0        5.682749    3.547714    0.238466
     26          6           0        5.262508    4.977220    0.648387
     27          6           0        3.700561    4.777972    0.524093
     28          6           0        3.554259    3.266805    0.671813
     29          6           0        5.636254    5.549793    2.065688
     30          6           0        3.002803    5.314044   -0.816500
     31          6           0        3.451785    4.757186   -2.105062
     32          7           0        2.819403    0.454200    0.887521
     33          6           0        1.884115    1.467405    1.175699
     34          6           0        0.667777    0.872754    1.630328
     35          6           0        0.925564   -0.483629    1.631303
     36          6           0        2.225352   -0.692223    1.064164
     37          6           0       -0.453729    1.562171    2.238290
     38          6           0        0.321103   -1.726034    1.751616
     39          8           0       -0.816804   -2.056308    2.101081
     40          6           0        1.419774   -2.837040    1.423660
     41          6           0        1.714167   -3.500174    2.728514
     42          8           0        2.131595   -3.064412    3.780942
     43          8           0        1.381677   -4.779470    2.547080
     44          6           0        1.611592   -5.690738    3.715678
     45          1           0        8.040209   -2.455900   -0.515008
     46          1           0        7.593875    3.980436   -0.494872
     47          1           0        1.500080    3.442896    1.165368
     48          1           0        4.217053   -4.343290    1.411068
     49          1           0        6.042206   -4.218624   -0.918120
     50          1           0        7.095863   -3.808335    1.643942
     51          1           0        7.691394   -5.107874    0.466360
     52          1           0        6.486872   -5.452634    1.607675
     53          1           0        4.169140   -5.101774   -1.472272
     54          1           0        2.695562   -4.209859   -1.117462
     55          1           0        1.664039   -5.667772   -0.107554
     56          1           0        2.946537   -6.234293    0.886407
     57          1           0       11.043633   -0.558466   -0.248261
     58          1           0       10.454891   -0.396707   -1.915706
     59          1           0       10.042012   -1.844358   -0.770384
     60          1           0       11.773927    1.359793   -0.318261
     61          1           0       12.143240    2.900293   -0.834275
     62          1           0       11.592171    1.758718   -2.091041
     63          1           0        5.484857    5.647426   -0.182086
     64          1           0        3.304153    5.361059    1.354998
     65          1           0        5.560506    4.847527    2.894991
     66          1           0        4.944283    6.386834    2.165362
     67          1           0        6.662225    5.918727    2.074108
     68          1           0        3.114337    6.389017   -0.960355
     69          1           0        1.969391    4.974388   -0.885131
     70          1           0        2.909501    3.814725   -2.166970
     71          1           0        4.506539    4.518551   -2.244980
     72          1           0        3.199698    5.293655   -3.019215
     73          1           0       -0.142876    1.687491    3.276167
     74          1           0       -1.402618    1.027109    2.214069
     75          1           0       -0.716569    2.492385    1.733396
     76          1           0        1.123038   -3.516913    0.624952
     77          1           0        2.489527   -6.272225    3.433356
     78          1           0        0.723514   -6.298520    3.887457
     79          1           0        1.869262   -5.228703    4.669105
     80         12           0       -4.936493    0.596840   -0.071898
     81          6           0       -2.854910   -1.916929   -1.436590
     82          6           0       -7.344109   -1.632795    0.000887
     83          6           0       -6.984616    3.181213    0.169409
     84          6           0       -2.346533    2.868021   -0.944949
     85          7           0       -4.936342   -1.622066   -0.527896
     86          6           0       -4.036026   -2.427579   -0.960183
     87          6           0       -4.499902   -3.892872   -0.828937
     88          6           0       -6.107644   -3.763815   -0.822727
     89          6           0       -6.174316   -2.213566   -0.497982
     90          6           0       -6.853016   -4.148602   -2.161587
     91          6           0       -4.004631   -4.527544    0.573484
     92          6           0       -3.650851   -6.046628    0.675240
     93          1           0       -4.415793   -7.005611   -0.309681
     94          7           0       -6.877708    0.749647    0.276332
     95          6           0       -7.714359   -0.355075    0.328814
     96          6           0       -9.109081    0.124085    0.631152
     97          6           0       -8.975788    1.572889    0.715212
     98          6           0       -7.604352    1.972089    0.387728
     99          6           0      -10.270846   -0.846665    0.727918
    100          6           0      -10.057122    2.566108    1.079879
    101          8           0       -9.906978    3.795731    1.096800
    102          6           0      -11.380981    2.055246    1.482246
    103          7           0       -4.663247    2.806818   -0.254873
    104          6           0       -5.712770    3.601180   -0.145885
    105          6           0       -5.238627    5.114764    0.004800
    106          6           0       -3.674459    4.961527   -0.403837
    107          6           0       -3.539210    3.444670   -0.506408
    108          6           0       -6.068875    6.127314   -0.851365
    109          6           0       -2.601151    5.572114    0.555976
    110          6           0       -1.832117    6.766103    0.051583
    111          7           0       -2.880953    0.533118   -0.808266
    112          6           0       -2.004981    1.562014   -1.091876
    113          6           0       -0.846512    1.054042   -1.699400
    114          6           0       -1.159498   -0.305200   -1.889898
    115          6           0       -2.400780   -0.603533   -1.379678
    116          6           0        0.337045    1.772577   -2.114253
    117          6           0       -0.568160   -1.498520   -2.357316
    118          8           0        0.566427   -1.836524   -2.791650
    119          6           0       -1.764329   -2.552766   -2.329583
    120          6           0       -1.278507   -3.870735   -1.848668
    121          8           0       -0.815031   -4.147659   -0.744301
    122          8           0       -1.553604   -4.821877   -2.881256
    123          6           0       -1.148477   -6.211900   -2.636129
    124          1           0       -8.070223   -2.437441    0.137308
    125          1           0       -7.663442    4.023671    0.313025
    126          1           0       -1.526612    3.564302   -1.136538
    127          1           0       -4.299039   -4.376339   -1.784625
    128          1           0       -6.503163   -4.484930   -0.108246
    129          1           0       -6.162579   -4.243648   -2.999381
    130          1           0       -7.552860   -3.371841   -2.469248
    131          1           0       -7.341644   -5.102462   -1.963162
    132          1           0       -4.707696   -4.296617    1.373932
    133          1           0       -3.129527   -3.967298    0.903350
    134          1           0       -3.817113   -6.470530    1.666097
    135          1           0       -2.636972   -6.154876    0.287971
    136          1           0      -10.908529   -0.640157    1.588215
    137          1           0       -9.956150   -1.889101    0.777327
    138          1           0      -10.799973   -0.869620   -0.224442
    139          1           0      -11.822095    1.442657    0.695448
    140          1           0      -12.044171    2.889157    1.712380
    141          1           0      -11.398917    1.458213    2.394022
    142          1           0       -5.242428    5.455131    1.040224
    143          1           0       -3.490197    5.252856   -1.438945
    144          1           0       -6.775021    5.595345   -1.489166
    145          1           0       -5.266936    6.696049   -1.322477
    146          1           0       -6.525942    6.826451   -0.152278
    147          1           0       -1.868396    4.790858    0.759198
    148          1           0       -3.068131    5.822221    1.508803
    149          1           0       -2.356658    7.029896   -0.865812
    150          1           0       -0.831424    6.425871   -0.217302
    151          1           0       -1.869229    7.621792    0.724627
    152          1           0        0.666349    2.355322   -1.254394
    153          1           0        0.177470    2.593261   -2.813681
    154          1           0        1.115115    1.063824   -2.398370
    155          1           0       -2.156175   -2.645811   -3.342954
    156          1           0       -1.324794   -6.826708   -3.519140
    157          1           0       -1.835057   -6.647964   -1.910249
    158          1           0       -0.080404   -6.240665   -2.423099
 ---------------------------------------------------------------------

 SCF Done:  E(RCAM-B3LYP) =  -4069.76522561     A.U. after   19 cycles

 Excitation energies and oscillator strengths:

 Excited State   1:      Singlet-A      1.6705 eV  742.20 nm  f=0.7584  <S**2>=0.000
     310 -> 316       -0.14799
     311 -> 313       -0.15777
     311 -> 314       -0.19319
     312 -> 313        0.45832
     312 -> 314       -0.44779
 This state for optimization and/or second-order correction.
 Total Energy, E(TD-HF/TD-DFT) =  -4069.70383605
 Copying the excited state density for this state as the 1-particle RhoCI density.

 Excited State   2:      Singlet-A      1.7952 eV  690.63 nm  f=0.1313  <S**2>=0.000
     309 -> 315        0.19408
     311 -> 313        0.54861
     311 -> 314        0.28130
     312 -> 314       -0.27250
     309 <- 315        0.10039

 Excited State   3:      Singlet-A      2.1360 eV  580.45 nm  f=0.0879  <S**2>=0.000
     309 -> 314       -0.10838
     310 -> 313       -0.41621
     310 -> 314        0.47225
     312 -> 316       -0.23542

 Excited State   4:      Singlet-A      2.2093 eV  561.20 nm  f=0.0947  <S**2>=0.000
     309 -> 313        0.53256
     309 -> 314        0.30937
     310 -> 314        0.12813
     311 -> 315       -0.28734

 Excited State   5:      Singlet-A      2.2710 eV  545.94 nm  f=0.0103  <S**2>=0.000
     310 -> 314        0.10379
     311 -> 313        0.13812
     312 -> 313        0.51253
     312 -> 314        0.43480

 The electronic state is 1-A.
 Alpha  occ. eigenvalues --  -46.89233 -46.88693 -19.24317 -19.24168 -19.20855
 Alpha  occ. eigenvalues --  -19.18928 -19.18714 -19.18219 -19.18207 -19.17537
 Alpha  occ. eigenvalues --  -14.41976 -14.41647 -14.41361 -14.41242 -14.39857
 Alpha  occ. eigenvalues --  -14.39116 -14.38459 -14.38304 -10.39764 -10.37662
 Alpha  occ. eigenvalues --  -10.35055 -10.34701 -10.34630 -10.33318 -10.31392
 Alpha  occ. eigenvalues --  -10.31292 -10.31064 -10.30901 -10.30752 -10.30669
 Alpha  occ. eigenvalues --  -10.30581 -10.30521 -10.30402 -10.30275 -10.30188
 Alpha  occ. eigenvalues --  -10.30171 -10.29740 -10.29599 -10.29189 -10.28916
 Alpha  occ. eigenvalues --  -10.28529 -10.28499 -10.28411 -10.28347 -10.28321
 Alpha  occ. eigenvalues --  -10.28307 -10.28278 -10.28223 -10.28151 -10.27996
 Alpha  occ. eigenvalues --  -10.27926 -10.27792 -10.27650 -10.27631 -10.27516
 Alpha  occ. eigenvalues --  -10.27485 -10.27440 -10.27435 -10.27225 -10.27214
 Alpha  occ. eigenvalues --  -10.27073 -10.27067 -10.26965 -10.26854 -10.26771
 Alpha  occ. eigenvalues --  -10.26592 -10.26416 -10.26384 -10.26361 -10.26358
 Alpha  occ. eigenvalues --  -10.26243 -10.26220 -10.26192 -10.25993 -10.25947
 Alpha  occ. eigenvalues --  -10.25812 -10.25805 -10.25754 -10.25653 -10.25576
 Alpha  occ. eigenvalues --  -10.25540 -10.25219 -10.25202 -10.24629 -10.24578
 Alpha  occ. eigenvalues --  -10.23940  -3.17686  -3.17099  -1.92588  -1.92153
 Alpha  occ. eigenvalues --   -1.92001  -1.91974  -1.91534  -1.91417  -1.16127
 Alpha  occ. eigenvalues --   -1.14435  -1.09352  -1.08686  -1.07755  -1.07552
 Alpha  occ. eigenvalues --   -1.07168  -1.06497  -1.05606  -1.05149  -1.04899
 Alpha  occ. eigenvalues --   -1.03575  -1.03391  -1.02756  -1.01970  -1.01376
 Alpha  occ. eigenvalues --   -0.92940  -0.91335  -0.89488  -0.88837  -0.88568
 Alpha  occ. eigenvalues --   -0.87987  -0.87793  -0.87751  -0.87514  -0.87411
 Alpha  occ. eigenvalues --   -0.87123  -0.87022  -0.86830  -0.86333  -0.84159
 Alpha  occ. eigenvalues --   -0.84048  -0.84000  -0.83847  -0.82689  -0.82380
 Alpha  occ. eigenvalues --   -0.81850  -0.81429  -0.81406  -0.80884  -0.80694
 Alpha  occ. eigenvalues --   -0.80069  -0.78894  -0.78184  -0.77712  -0.77098
 Alpha  occ. eigenvalues --   -0.76821  -0.76771  -0.75826  -0.75268  -0.75256
 Alpha  occ. eigenvalues --   -0.74818  -0.73154  -0.72868  -0.72204  -0.71052
 Alpha  occ. eigenvalues --   -0.69051  -0.68880  -0.68677  -0.68542  -0.67717
 Alpha  occ. eigenvalues --   -0.67041  -0.66980  -0.66346  -0.65849  -0.65569
 Alpha  occ. eigenvalues --   -0.65419  -0.65114  -0.64667  -0.64576  -0.64366
 Alpha  occ. eigenvalues --   -0.63383  -0.61485  -0.61276  -0.60463  -0.60099
 Alpha  occ. eigenvalues --   -0.59957  -0.59257  -0.59217  -0.58605  -0.58242
 Alpha  occ. eigenvalues --   -0.57998  -0.57755  -0.57613  -0.57472  -0.57035
 Alpha  occ. eigenvalues --   -0.56949  -0.55861  -0.55751  -0.55570  -0.55015
 Alpha  occ. eigenvalues --   -0.54920  -0.54616  -0.54544  -0.54287  -0.54062
 Alpha  occ. eigenvalues --   -0.53715  -0.53426  -0.53339  -0.53198  -0.53110
 Alpha  occ. eigenvalues --   -0.52797  -0.52591  -0.52424  -0.52351  -0.52236
 Alpha  occ. eigenvalues --   -0.52159  -0.51777  -0.51247  -0.51229  -0.51075
 Alpha  occ. eigenvalues --   -0.50773  -0.50530  -0.50475  -0.50344  -0.50115
 Alpha  occ. eigenvalues --   -0.49917  -0.49823  -0.49487  -0.49409  -0.49220
 Alpha  occ. eigenvalues --   -0.48911  -0.48883  -0.48735  -0.48661  -0.48562
 Alpha  occ. eigenvalues --   -0.48390  -0.48336  -0.48108  -0.47926  -0.47806
 Alpha  occ. eigenvalues --   -0.47741  -0.47650  -0.47486  -0.47123  -0.46968
 Alpha  occ. eigenvalues --   -0.46880  -0.46728  -0.46523  -0.46312  -0.46272
 Alpha  occ. eigenvalues --   -0.46096  -0.45992  -0.45785  -0.45512  -0.45426
 Alpha  occ. eigenvalues --   -0.45282  -0.45016  -0.44919  -0.44721  -0.44282
 Alpha  occ. eigenvalues --   -0.44088  -0.43983  -0.43863  -0.43823  -0.43662
 Alpha  occ. eigenvalues --   -0.43518  -0.43415  -0.43255  -0.43207  -0.42926
 Alpha  occ. eigenvalues --   -0.42730  -0.42501  -0.42379  -0.42228  -0.41876
 Alpha  occ. eigenvalues --   -0.41803  -0.41737  -0.41633  -0.41489  -0.41360
 Alpha  occ. eigenvalues --   -0.41331  -0.41161  -0.41067  -0.41034  -0.40836
 Alpha  occ. eigenvalues --   -0.40607  -0.40463  -0.40375  -0.40322  -0.40063
 Alpha  occ. eigenvalues --   -0.40054  -0.39290  -0.39109  -0.38747  -0.38471
 Alpha  occ. eigenvalues --   -0.38171  -0.37741  -0.37724  -0.37314  -0.37280
 Alpha  occ. eigenvalues --   -0.37038  -0.36473  -0.36286  -0.36261  -0.35611
 Alpha  occ. eigenvalues --   -0.35462  -0.35257  -0.34721  -0.33936  -0.33836
 Alpha  occ. eigenvalues --   -0.33506  -0.33425  -0.32853  -0.31750  -0.31230
 Alpha  occ. eigenvalues --   -0.30860  -0.30624  -0.30577  -0.30248  -0.29980
 Alpha  occ. eigenvalues --   -0.29657  -0.29399  -0.29005  -0.24049  -0.23303
 Alpha  occ. eigenvalues --   -0.21599  -0.20845
 Alpha virt. eigenvalues --   -0.08733  -0.08220  -0.02558  -0.01058  -0.00195
 Alpha virt. eigenvalues --    0.00948   0.02213   0.02739   0.02820   0.03189
 Alpha virt. eigenvalues --    0.04102   0.05519   0.05672   0.05869   0.06037

 Mulliken charges:
               1
     1  Mg   0.805161
     2  C    0.012180
     3  C   -0.056676
     4  C   -0.059402
     5  C   -0.094852
     6  N   -0.310036
     7  C   -0.022663
     8  C   -0.020556
     9  C   -0.001485
    10  C   -0.047689
    11  C    0.052967
    12  C    0.037320
    13  C   -0.088466
    14  H    0.006370
    15  N   -0.378008
    16  C    0.181571
    17  C   -0.166074
    18  C   -0.027908
    19  C    0.106583
    20  C    0.128623
    21  C    0.003347
    22  O   -0.218470
    23  C    0.054818
    24  N   -0.227723
    25  C    0.004382
    26  C    0.007747
    27  C   -0.064800
    28  C    0.078158
    29  C    0.091839
    30  C    0.061841
    31  C   -0.039230
    32  N   -0.323401
    33  C    0.081058
    34  C   -0.118812
    35  C    0.057903
    36  C    0.069920
    37  C    0.124468
    38  C    0.022755
    39  O   -0.197507
    40  C   -0.026914
    41  C    0.190331
    42  O   -0.217503
    43  O   -0.311932
    44  C    0.162019
    45  H   -0.031243
    46  H   -0.015014
    47  H   -0.035638
    48  H    0.020080
    49  H    0.007723
    50  H    0.026114
    51  H    0.018081
    52  H    0.016877
    53  H    0.013944
    54  H    0.038189
    55  H    0.050343
    56  H    0.011763
    57  H    0.014915
    58  H    0.038686
    59  H    0.029725
    60  H    0.017618
    61  H    0.017951
    62  H    0.052340
    63  H   -0.009707
    64  H   -0.005901
    65  H    0.027855
    66  H    0.018313
    67  H    0.028198
    68  H    0.010326
    69  H   -0.001965
    70  H    0.003139
    71  H    0.019051
    72  H    0.013646
    73  H    0.045663
    74  H    0.030633
    75  H    0.006807
    76  H    0.052652
    77  H    0.028848
    78  H    0.045710
    79  H    0.053056
    80  Mg   0.818540
    81  C    0.027132
    82  C   -0.077628
    83  C   -0.040225
    84  C   -0.098550
    85  N   -0.224084
    86  C   -0.114241
    87  C    0.019409
    88  C   -0.108262
    89  C    0.027505
    90  C    0.065615
    91  C    0.053383
    92  C   -0.069897
    93  H   -0.023868
    94  N   -0.489083
    95  C    0.214578
    96  C   -0.138958
    97  C   -0.019818
    98  C    0.152586
    99  C    0.115690
   100  C    0.007107
   101  O   -0.211340
   102  C    0.033090
   103  N   -0.209024
   104  C    0.016809
   105  C   -0.071925
   106  C   -0.029066
   107  C   -0.011684
   108  C    0.089647
   109  C    0.026259
   110  C    0.019296
   111  N   -0.336440
   112  C    0.133247
   113  C   -0.136842
   114  C    0.018085
   115  C    0.119348
   116  C    0.150092
   117  C    0.055509
   118  O   -0.223790
   119  C   -0.032634
   120  C    0.233867
   121  O   -0.209245
   122  O   -0.377094
   123  C    0.181799
   124  H   -0.030408
   125  H   -0.007488
   126  H   -0.044047
   127  H   -0.002602
   128  H    0.019899
   129  H    0.014568
   130  H    0.017199
   131  H    0.022082
   132  H    0.005208
   133  H    0.052028
   134  H    0.041854
   135  H    0.059173
   136  H    0.034595
   137  H    0.008600
   138  H    0.036880
   139  H    0.032360
   140  H    0.024078
   141  H    0.039059
   142  H    0.021841
   143  H    0.008917
   144  H    0.040459
   145  H    0.006806
   146  H    0.016336
   147  H    0.008606
   148  H    0.000881
   149  H    0.003329
   150  H    0.018020
   151  H    0.024186
   152  H    0.003302
   153  H    0.017782
   154  H    0.044458
   155  H    0.051893
   156  H    0.025450
   157  H    0.030777
   158  H    0.048986
 Sum of Mulliken charges =  -0.00000

 Dipole moment (field-independent basis, Debye):
    X=             -2.8983    Y=             -2.9242    Z=             -1.2965  Tot=              4.3165
 Quadrupole moment (field-independent basis, Debye-Ang):
   XX=           -482.4325   YY=           -480.0932   ZZ=           -520.8559
   XY=             -1.3185   XZ=             -3.6464   YZ=              0.2864

 Normal termination of Gaussian 16 at Tue Sep 14 22:02:27 2021.
