 Gaussian 16, Revision A.03,
 Gaussian 16:  ES64L-G16RevA.03 25-Dec-2016

 ----------------------------------------------------------
 #p cam-b3lyp/Def2SVP td=(nstates=5) density=(transition=1)
 ----------------------------------------------------------

 --------------------------------
 TDDFT excited states in gaussian
 --------------------------------
 Symbolic Z-matrix:
 Charge =  0 Multiplicity = 1

                         Standard orientation:
 ---------------------------------------------------------------------
 Center     Atomic      Atomic             Coordinates (Angstroms)
 Number     Number       Type             X           Y           Z
 ---------------------------------------------------------------------
      1         12           0       16.529157   -0.568476    0.266566
      2          6           0       15.531345    2.408601   -1.140200
      3          6           0       18.010185    1.267722    2.853750
      4          6           0       17.627583   -3.437270    1.665805
      5          6           0       15.401800   -2.256653   -2.453062
      6          7           0       16.959326    1.641492    0.633923
      7          6           0       16.220521    2.658323    0.016281
      8          6           0       16.291612    3.983719    0.800171
      9          6           0       17.198435    3.555631    2.012220
     10          6           0       17.391625    2.058793    1.897592
     11          6           0       18.522564    4.307342    2.062797
     12          6           0       14.964521    4.678785    1.268971
     13          6           0       14.590150    6.100709    0.579289
     14          1           0       14.480447    7.213397    1.626374
     15          7           0       17.723318   -1.024669    1.920291
     16          6           0       18.119282   -0.131783    2.929206
     17          6           0       18.644438   -0.845489    4.097888
     18          6           0       18.630465   -2.305242    3.761183
     19          6           0       17.916534   -2.345784    2.422862
     20          6           0       19.132278   -0.143192    5.345828
     21          6           0       19.104775   -3.469296    4.495419
     22          8           0       19.072791   -4.588049    3.961900
     23          6           0       19.713299   -3.381876    5.884077
     24          7           0       16.572975   -2.472284   -0.362464
     25          6           0       16.960602   -3.563597    0.436894
     26          6           0       16.640525   -4.987359   -0.174255
     27          6           0       15.934300   -4.519402   -1.549315
     28          6           0       15.957898   -2.978403   -1.434356
     29          6           0       17.928846   -5.922305   -0.400856
     30          6           0       14.488494   -5.108584   -1.688508
     31          6           0       14.033328   -5.537477   -3.048227
     32          7           0       15.722272    0.001245   -1.525835
     33          6           0       15.247977   -0.828193   -2.546132
     34          6           0       14.542254   -0.075979   -3.526511
     35          6           0       14.547518    1.245182   -2.943844
     36          6           0       15.340680    1.208246   -1.790027
     37          6           0       13.844035   -0.491180   -4.752933
     38          6           0       14.190654    2.605452   -3.199980
     39          8           0       13.542066    3.189726   -4.074943
     40          6           0       14.962123    3.443202   -2.081951
     41          6           0       15.956332    4.326166   -2.747416
     42          8           0       17.105271    4.161645   -2.877711
     43          8           0       15.355718    5.523167   -3.130418
     44          6           0       16.254909    6.653169   -3.238529
     45          1           0       18.391449    1.841711    3.700916
     46          1           0       17.867197   -4.433522    2.043153
     47          1           0       14.906323   -2.808361   -3.254622
     48          1           0       16.848487    4.707646    0.206233
     49          1           0       16.745406    3.819392    2.968289
     50          1           0       19.332753    3.599880    1.888215
     51          1           0       18.552507    4.665663    3.091073
     52          1           0       18.596319    5.183931    1.419519
     53          1           0       15.029853    4.827431    2.347100
     54          1           0       14.095663    4.055202    1.057958
     55          1           0       13.588292    5.908668    0.194823
     56          1           0       15.325394    6.359456   -0.182335
     57          1           0       20.087329    0.317077    5.089579
     58          1           0       19.279034   -0.896183    6.118618
     59          1           0       18.502482    0.693888    5.647857
     60          1           0       20.253325   -4.318639    6.023245
     61          1           0       18.981987   -3.217608    6.676158
     62          1           0       20.536150   -2.681628    6.026484
     63          1           0       15.865343   -5.475769    0.415320
     64          1           0       16.428621   -4.860577   -2.459187
     65          1           0       17.800931   -6.460230   -1.340437
     66          1           0       18.063752   -6.748283    0.296411
     67          1           0       18.864263   -5.362663   -0.417960
     68          1           0       13.709213   -4.471358   -1.270778
     69          1           0       14.367708   -6.047894   -1.149211
     70          1           0       13.244357   -4.831362   -3.306631
     71          1           0       13.478741   -6.466752   -3.178573
     72          1           0       14.860959   -5.462938   -3.754372
     73          1           0       13.514288   -1.522796   -4.626864
     74          1           0       14.617710   -0.457378   -5.519900
     75          1           0       13.110505    0.272773   -5.011330
     76          1           0       14.258100    4.064808   -1.529292
     77          1           0       16.771289    6.484529   -4.182909
     78          1           0       16.949201    6.554700   -2.404198
     79          1           0       15.710529    7.597031   -3.279695
     80         12           0      -16.076589   -0.783654    0.062198
     81          6           0      -17.925608    1.952131    1.142245
     82          6           0      -13.435067    1.424614   -0.356840
     83          6           0      -14.410187   -3.320820   -1.471469
     84          6           0      -18.885611   -2.773124    0.389763
     85          7           0      -15.746803    1.447722    0.310028
     86          6           0      -16.638961    2.385944    0.806424
     87          6           0      -16.080169    3.862963    0.800167
     88          6           0      -14.740913    3.639485   -0.003653
     89          6           0      -14.627140    2.071769   -0.068227
     90          6           0      -14.560091    4.211333   -1.412836
     91          6           0      -15.934234    4.401147    2.235330
     92          6           0      -16.924787    5.444341    2.681098
     93          1           0      -16.391800    6.560227    3.597224
     94          7           0      -14.136458   -1.027580   -0.627019
     95          6           0      -13.231113   -0.012691   -0.621777
     96          6           0      -12.001690   -0.580305   -1.208911
     97          6           0      -12.266460   -1.892857   -1.629972
     98          6           0      -13.601703   -2.160105   -1.259102
     99          6           0      -10.730838    0.167584   -1.177516
    100          6           0      -11.391808   -2.869818   -2.359678
    101          8           0      -11.721718   -4.067882   -2.581964
    102          6           0      -10.113281   -2.541162   -2.907235
    103          7           0      -16.531772   -2.735744   -0.381654
    104          6           0      -15.680464   -3.606214   -0.990014
    105          6           0      -16.263638   -4.945670   -1.214554
    106          6           0      -17.688620   -4.813430   -0.566663
    107          6           0      -17.717539   -3.369670   -0.231194
    108          6           0      -16.347406   -5.616116   -2.617415
    109          6           0      -18.001006   -5.841171    0.630250
    110          6           0      -17.582498   -5.578716    2.107446
    111          7           0      -18.024679   -0.535536    0.594804
    112          6           0      -19.044597   -1.434327    0.720016
    113          6           0      -20.139488   -0.835866    1.349513
    114          6           0      -19.738984    0.552368    1.445316
    115          6           0      -18.437591    0.661077    0.997267
    116          6           0      -21.431217   -1.499944    1.822663
    117          6           0      -20.177184    1.806518    1.987146
    118          8           0      -21.144271    2.168243    2.626084
    119          6           0      -19.063409    2.835580    1.584452
    120          6           0      -19.557611    3.713278    0.505068
    121          8           0      -19.145156    3.744357   -0.675258
    122          8           0      -20.571970    4.528952    0.866753
    123          6           0      -21.005207    5.631705   -0.057660
    124          1           0      -12.628769    2.135240   -0.546776
    125          1           0      -13.943125   -4.162277   -1.987833
    126          1           0      -19.754660   -3.367355    0.681475
    127          1           0      -16.604676    4.497353    0.084878
    128          1           0      -13.948960    4.017148    0.643020
    129          1           0      -14.548128    3.405329   -2.146921
    130          1           0      -13.537487    4.583118   -1.457406
    131          1           0      -15.285901    4.969085   -1.710000
    132          1           0      -14.959455    4.889928    2.254658
    133          1           0      -15.881534    3.548989    2.912934
    134          1           0      -17.718990    4.928820    3.221721
    135          1           0      -17.458195    5.959039    1.881811
    136          1           0      -10.065861   -0.441598   -0.566665
    137          1           0      -10.715247    1.190486   -0.799103
    138          1           0      -10.315946    0.222754   -2.183923
    139          1           0      -10.253514   -1.580228   -3.401554
    140          1           0       -9.700868   -3.383466   -3.461199
    141          1           0       -9.401254   -2.292062   -2.120386
    142          1           0      -15.594511   -5.530893   -0.584450
    143          1           0      -18.447283   -4.952201   -1.336006
    144          1           0      -15.720372   -6.505231   -2.684366
    145          1           0      -15.987171   -4.944329   -3.397275
    146          1           0      -17.365302   -5.861037   -2.920520
    147          1           0      -17.440589   -6.723333    0.319966
    148          1           0      -19.070891   -5.991864    0.485453
    149          1           0      -17.200669   -4.579362    2.314648
    150          1           0      -16.963284   -6.345710    2.573496
    151          1           0      -18.512740   -5.709116    2.658829
    152          1           0      -22.313558   -1.034776    1.381878
    153          1           0      -21.511135   -1.330762    2.896361
    154          1           0      -21.457421   -2.582574    1.696097
    155          1           0      -18.943521    3.525232    2.420156
    156          1           0      -21.585322    6.193231    0.674770
    157          1           0      -21.592361    5.310396   -0.917329
    158          1           0      -20.129949    6.169492   -0.423403
 ---------------------------------------------------------------------

 SCF Done:  E(RCAM-B3LYP) =  -4069.80335161     A.U. after   19 cycles

 Excitation energies and oscillator strengths:

 Excited State   1:      Singlet-A      1.6721 eV  741.49 nm  f=0.4153  <S**2>=0.000
     309 -> 315        0.15713
     311 -> 313        0.68792
 This state for optimization and/or second-order correction.
 Total Energy, E(TD-HF/TD-DFT) =  -4069.74190342
 Copying the excited state density for this state as the 1-particle RhoCI density.

 Excited State   2:      Singlet-A      1.7036 eV  727.79 nm  f=0.3815  <S**2>=0.000
     310 -> 316       -0.17710
     312 -> 314        0.68417
     310 <- 316       -0.10745

 Excited State   3:      Singlet-A      2.1913 eV  565.79 nm  f=0.1212  <S**2>=0.000
     309 -> 313        0.64534
     311 -> 315       -0.25760

 Excited State   4:      Singlet-A      2.2075 eV  561.65 nm  f=0.1455  <S**2>=0.000
     310 -> 314        0.65086
     312 -> 316        0.26115

 Excited State   5:      Singlet-A      2.9204 eV  424.54 nm  f=0.0000  <S**2>=0.000
     312 -> 313        0.70709

 The electronic state is 1-A.
 Alpha  occ. eigenvalues --  -46.87973 -46.87524 -19.24059 -19.22217 -19.19632
 Alpha  occ. eigenvalues --  -19.18900 -19.18254 -19.18219 -19.17999 -19.17945
 Alpha  occ. eigenvalues --  -14.42605 -14.42041 -14.41997 -14.41855 -14.40316
 Alpha  occ. eigenvalues --  -14.39526 -14.38628 -14.38354 -10.38533 -10.38154
 Alpha  occ. eigenvalues --  -10.35376 -10.34510 -10.34251 -10.34174 -10.32008
 Alpha  occ. eigenvalues --  -10.31874 -10.31333 -10.31094 -10.31077 -10.30952
 Alpha  occ. eigenvalues --  -10.30805 -10.30799 -10.30665 -10.30588 -10.30513
 Alpha  occ. eigenvalues --  -10.30461 -10.30323 -10.30118 -10.30019 -10.29581
 Alpha  occ. eigenvalues --  -10.29332 -10.29280 -10.28900 -10.28602 -10.28551
 Alpha  occ. eigenvalues --  -10.28359 -10.28302 -10.28293 -10.28287 -10.28141
 Alpha  occ. eigenvalues --  -10.27903 -10.27830 -10.27797 -10.27758 -10.27726
 Alpha  occ. eigenvalues --  -10.27658 -10.27657 -10.27519 -10.27374 -10.27355
 Alpha  occ. eigenvalues --  -10.27250 -10.27246 -10.27209 -10.27141 -10.27088
 Alpha  occ. eigenvalues --  -10.26900 -10.26873 -10.26743 -10.26690 -10.26583
 Alpha  occ. eigenvalues --  -10.26535 -10.26523 -10.26499 -10.26311 -10.26230
 Alpha  occ. eigenvalues --  -10.26027 -10.25989 -10.25924 -10.25909 -10.25884
 Alpha  occ. eigenvalues --  -10.25868 -10.25719 -10.25656 -10.25367 -10.24604
 Alpha  occ. eigenvalues --  -10.24533  -3.16734  -3.16240  -1.91604  -1.91200
 Alpha  occ. eigenvalues --   -1.91150  -1.91052  -1.90699  -1.90544  -1.16823
 Alpha  occ. eigenvalues --   -1.15128  -1.09605  -1.09521  -1.08164  -1.07943
 Alpha  occ. eigenvalues --   -1.07765  -1.05124  -1.04833  -1.04679  -1.04080
 Alpha  occ. eigenvalues --   -1.03479  -1.03232  -1.02222  -1.02111  -1.00672
 Alpha  occ. eigenvalues --   -0.93076  -0.92637  -0.89232  -0.89029  -0.88665
 Alpha  occ. eigenvalues --   -0.88547  -0.88443  -0.88293  -0.87568  -0.87396
 Alpha  occ. eigenvalues --   -0.87248  -0.87001  -0.86722  -0.86092  -0.84372
 Alpha  occ. eigenvalues --   -0.84272  -0.83640  -0.83509  -0.82798  -0.82457
 Alpha  occ. eigenvalues --   -0.82453  -0.81938  -0.80980  -0.80914  -0.80538
 Alpha  occ. eigenvalues --   -0.80273  -0.78823  -0.78548  -0.77504  -0.77450
 Alpha  occ. eigenvalues --   -0.76860  -0.76741  -0.76203  -0.75309  -0.75289
 Alpha  occ. eigenvalues --   -0.75280  -0.73114  -0.73106  -0.71736  -0.71327
 Alpha  occ. eigenvalues --   -0.70100  -0.69376  -0.68767  -0.68737  -0.67995
 Alpha  occ. eigenvalues --   -0.67995  -0.67598  -0.67092  -0.65717  -0.65352
 Alpha  occ. eigenvalues --   -0.65194  -0.65080  -0.65044  -0.64604  -0.64358
 Alpha  occ. eigenvalues --   -0.63934  -0.61484  -0.60906  -0.60234  -0.59952
 Alpha  occ. eigenvalues --   -0.59637  -0.59449  -0.59141  -0.59047  -0.58586
 Alpha  occ. eigenvalues --   -0.58507  -0.58343  -0.57788  -0.57743  -0.57298
 Alpha  occ. eigenvalues --   -0.56552  -0.56162  -0.55630  -0.55622  -0.55333
 Alpha  occ. eigenvalues --   -0.54888  -0.54436  -0.53974  -0.53820  -0.53676
 Alpha  occ. eigenvalues --   -0.53311  -0.53240  -0.53042  -0.52901  -0.52719
 Alpha  occ. eigenvalues --   -0.52520  -0.52431  -0.52325  -0.52200  -0.52069
 Alpha  occ. eigenvalues --   -0.51878  -0.51650  -0.51411  -0.51236  -0.51063
 Alpha  occ. eigenvalues --   -0.50831  -0.50803  -0.50606  -0.50343  -0.50172
 Alpha  occ. eigenvalues --   -0.50158  -0.50052  -0.49836  -0.49753  -0.49669
 Alpha  occ. eigenvalues --   -0.49629  -0.49418  -0.49013  -0.48933  -0.48799
 Alpha  occ. eigenvalues --   -0.48634  -0.48584  -0.48470  -0.48181  -0.48125
 Alpha  occ. eigenvalues --   -0.48065  -0.47920  -0.47758  -0.47324  -0.47220
 Alpha  occ. eigenvalues --   -0.46997  -0.46879  -0.46747  -0.46538  -0.46488
 Alpha  occ. eigenvalues --   -0.46242  -0.46189  -0.46041  -0.45983  -0.45699
 Alpha  occ. eigenvalues --   -0.45449  -0.45395  -0.45323  -0.45257  -0.45165
 Alpha  occ. eigenvalues --   -0.45023  -0.44795  -0.44682  -0.44241  -0.44206
 Alpha  occ. eigenvalues --   -0.43973  -0.43810  -0.43785  -0.43709  -0.43559
 Alpha  occ. eigenvalues --   -0.43408  -0.43380  -0.43105  -0.42956  -0.42886
 Alpha  occ. eigenvalues --   -0.42754  -0.42555  -0.42449  -0.42029  -0.41698
 Alpha  occ. eigenvalues --   -0.41593  -0.41475  -0.41464  -0.41221  -0.41119
 Alpha  occ. eigenvalues --   -0.41071  -0.40787  -0.40683  -0.40325  -0.40177
 Alpha  occ. eigenvalues --   -0.39971  -0.39938  -0.39698  -0.39110  -0.38916
 Alpha  occ. eigenvalues --   -0.38758  -0.38198  -0.37870  -0.37811  -0.37732
 Alpha  occ. eigenvalues --   -0.37119  -0.36905  -0.36498  -0.36382  -0.36165
 Alpha  occ. eigenvalues --   -0.35595  -0.34967  -0.34503  -0.34299  -0.34131
 Alpha  occ. eigenvalues --   -0.33230  -0.33181  -0.32873  -0.31590  -0.31479
 Alpha  occ. eigenvalues --   -0.30986  -0.30605  -0.30076  -0.30026  -0.29888
 Alpha  occ. eigenvalues --   -0.29824  -0.29321  -0.29312  -0.24424  -0.23633
 Alpha  occ. eigenvalues --   -0.21510  -0.21103
 Alpha virt. eigenvalues --   -0.09330  -0.08682  -0.02218  -0.01301  -0.00283
 Alpha virt. eigenvalues --    0.00693   0.01894   0.02369   0.02370   0.03571
 Alpha virt. eigenvalues --    0.05053   0.05070   0.05305   0.05649   0.05782

 Mulliken charges:
               1
     1  Mg  12.003363
     2  C    5.985784
     3  C    6.017442
     4  C    6.021926
     5  C    5.988358
     6  N    6.994936
     7  C    6.027337
     8  C    5.986789
     9  C    6.009582
    10  C    5.971997
    11  C    6.001547
    12  C    5.998718
    13  C    5.996309
    14  H    1.009030
    15  N    7.005323
    16  C    5.958142
    17  C    5.971513
    18  C    5.985925
    19  C    5.963863
    20  C    6.003873
    21  C    5.989054
    22  O    7.970068
    23  C    6.007324
    24  N    7.001973
    25  C    5.960795
    26  C    6.016026
    27  C    5.986348
    28  C    6.032350
    29  C    6.003009
    30  C    5.993633
    31  C    6.000667
    32  N    6.998025
    33  C    6.042221
    34  C    6.028328
    35  C    6.006498
    36  C    6.029074
    37  C    5.997885
    38  C    6.015700
    39  O    8.034462
    40  C    5.999908
    41  C    6.000722
    42  O    8.008127
    43  O    7.999509
    44  C    5.997421
    45  H    0.991749
    46  H    0.993308
    47  H    1.010237
    48  H    1.003061
    49  H    0.999710
    50  H    1.002896
    51  H    0.999665
    52  H    0.986210
    53  H    1.010102
    54  H    0.997020
    55  H    0.996868
    56  H    0.997829
    57  H    0.978687
    58  H    0.984305
    59  H    0.978910
    60  H    0.985560
    61  H    0.989575
    62  H    0.991930
    63  H    0.995932
    64  H    1.003313
    65  H    0.987863
    66  H    1.001071
    67  H    1.001145
    68  H    1.000470
    69  H    1.012281
    70  H    0.994385
    71  H    1.005338
    72  H    1.000030
    73  H    1.019706
    74  H    1.020053
    75  H    1.014622
    76  H    1.011629
    77  H    1.002241
    78  H    1.006461
    79  H    1.004956
    80  Mg  12.000050
    81  C    5.999013
    82  C    6.000779
    83  C    6.000996
    84  C    5.999992
    85  N    6.999784
    86  C    6.001270
    87  C    5.999514
    88  C    6.000240
    89  C    5.998863
    90  C    6.000137
    91  C    5.999812
    92  C    5.999875
    93  H    1.000361
    94  N    7.000432
    95  C    5.998037
    96  C    5.998768
    97  C    5.999745
    98  C    5.998282
    99  C    6.000351
   100  C    5.999477
   101  O    7.998965
   102  C    6.000235
   103  N    7.000407
   104  C    5.998212
   105  C    6.000689
   106  C    5.999367
   107  C    6.001417
   108  C    5.999962
   109  C    5.999808
   110  C    5.999887
   111  N    6.999681
   112  C    6.001290
   113  C    6.001166
   114  C    6.000272
   115  C    6.001370
   116  C    5.999849
   117  C    6.000623
   118  O    8.001305
   119  C    6.000254
   120  C    6.000020
   121  O    8.000370
   122  O    7.999957
   123  C    5.999888
   124  H    0.999456
   125  H    0.999648
   126  H    1.000652
   127  H    1.000190
   128  H    0.999920
   129  H    1.000117
   130  H    0.999904
   131  H    0.999472
   132  H    1.000364
   133  H    1.000069
   134  H    0.999836
   135  H    0.999986
   136  H    0.999011
   137  H    0.999022
   138  H    0.998799
   139  H    0.999768
   140  H    0.999262
   141  H    0.999607
   142  H    1.000013
   143  H    1.000057
   144  H    0.999988
   145  H    1.000044
   146  H    0.999588
   147  H    1.000571
   148  H    0.999990
   149  H    0.999938
   150  H    1.000445
   151  H    1.000012
   152  H    1.000875
   153  H    1.000873
   154  H    1.000800
   155  H    1.000403
   156  H    1.000193
   157  H    1.000133
   158  H    1.000220
 Sum of Mulliken charges = 624.00000

 Dipole moment (field-independent basis, Debye):
    X=             -5.9293    Y=              3.1796    Z=             -9.2583  Tot=             11.4448
 Quadrupole moment (field-independent basis, Debye-Ang):
   XX=           -167.4271   YY=             -0.2781   ZZ=             -6.4323
   XY=             54.2639   XZ=           -161.8062   YZ=              5.2168

 Normal termination of Gaussian 16 at Thu Sep 23 08:13:05 2021.
