 Gaussian 16, Revision A.03,
 Gaussian 16:  ES64L-G16RevA.03 25-Dec-2016

 ----------------------------------------------------------
 #p cam-b3lyp/Def2SVP td=(nstates=5) density=(transition=1)
 ----------------------------------------------------------

 --------------------------------
 TDDFT excited states in gaussian
 --------------------------------
 Symbolic Z-matrix:
 Charge =  0 Multiplicity = 1

                         Standard orientation:
 ---------------------------------------------------------------------
 Center     Atomic      Atomic             Coordinates (Angstroms)
 Number     Number       Type             X           Y           Z
 ---------------------------------------------------------------------
      1         12           0      -27.287087   -0.409312   -0.113145
      2          6           0      -25.492939    2.479718   -0.862858
      3          6           0      -28.733337    1.210643    2.554992
      4          6           0      -28.737800   -3.363582    0.641886
      5          6           0      -25.425580   -2.091834   -2.657476
      6          7           0      -27.023067    1.560366    0.771251
      7          6           0      -26.272447    2.593675    0.301920
      8          6           0      -26.512581    3.873914    1.112480
      9          6           0      -27.454639    3.338790    2.279745
     10          6           0      -27.766419    1.914180    1.809468
     11          6           0      -26.751236    3.343186    3.631622
     12          6           0      -27.290070    5.019775    0.372102
     13          6           0      -27.018542    6.435528    0.810094
     14          1           0      -26.339367    6.681110    2.082549
     15          7           0      -28.603906   -0.952026    1.311905
     16          6           0      -29.078761   -0.119254    2.344852
     17          6           0      -30.111546   -0.862698    3.017672
     18          6           0      -30.189327   -2.168745    2.471343
     19          6           0      -29.143874   -2.217246    1.419693
     20          6           0      -30.803861   -0.370236    4.270499
     21          6           0      -31.089766   -3.293768    2.768020
     22          8           0      -30.908171   -4.419110    2.354506
     23          6           0      -32.269482   -3.119880    3.792004
     24          7           0      -27.259460   -2.468772   -0.998915
     25          6           0      -27.917075   -3.462428   -0.480362
     26          6           0      -27.628411   -4.793760   -1.237178
     27          6           0      -26.645908   -4.405420   -2.327064
     28          6           0      -26.344983   -2.900859   -1.989181
     29          6           0      -27.173958   -5.934057   -0.209360
     30          6           0      -27.187414   -4.658662   -3.749923
     31          6           0      -26.776707   -6.009550   -4.446566
     32          7           0      -26.014714    0.071886   -1.613589
     33          6           0      -25.328007   -0.705827   -2.578774
     34          6           0      -24.499142    0.100656   -3.391106
     35          6           0      -24.490511    1.365671   -2.663204
     36          6           0      -25.464058    1.251127   -1.629992
     37          6           0      -23.543445   -0.395556   -4.460705
     38          6           0      -23.843584    2.625582   -2.680713
     39          8           0      -23.012329    3.113445   -3.436143
     40          6           0      -24.595040    3.486978   -1.466518
     41          6           0      -23.479414    4.005553   -0.607434
     42          8           0      -22.648801    3.293000   -0.034025
     43          8           0      -23.387732    5.428977   -0.625290
     44          6           0      -22.288978    6.020327    0.200729
     45          1           0      -29.150925    1.785777    3.384895
     46          1           0      -29.097996   -4.304407    1.062409
     47          1           0      -24.868098   -2.543624   -3.480182
     48          1           0      -25.536031    4.183263    1.485641
     49          1           0      -28.355551    3.938856    2.407053
     50          1           0      -25.844193    3.946347    3.602648
     51          1           0      -26.568486    2.339173    4.015553
     52          1           0      -27.286369    3.895127    4.404374
     53          1           0      -28.353975    4.803645    0.463087
     54          1           0      -27.104164    4.879648   -0.692972
     55          1           0      -27.987988    6.911568    0.955621
     56          1           0      -26.439959    6.941558    0.037217
     57          1           0      -30.559606   -0.958052    5.155258
     58          1           0      -31.877604   -0.358632    4.078678
     59          1           0      -30.551577    0.639897    4.592719
     60          1           0      -31.821621   -3.229976    4.779968
     61          1           0      -32.951546   -3.967600    3.725333
     62          1           0      -32.708712   -2.126020    3.714940
     63          1           0      -28.607147   -5.063049   -1.634680
     64          1           0      -25.673199   -4.872324   -2.180197
     65          1           0      -26.202098   -6.339056   -0.491096
     66          1           0      -27.812474   -6.817474   -0.228382
     67          1           0      -27.108501   -5.421764    0.751407
     68          1           0      -26.817872   -3.834858   -4.361583
     69          1           0      -28.271817   -4.564729   -3.690170
     70          1           0      -25.811148   -5.851038   -4.928144
     71          1           0      -27.477966   -6.484411   -5.133012
     72          1           0      -26.574222   -6.625969   -3.571357
     73          1           0      -24.180257   -0.477594   -5.341135
     74          1           0      -23.142098   -1.377229   -4.211824
     75          1           0      -22.599377    0.142416   -4.555964
     76          1           0      -25.198751    4.274913   -1.918541
     77          1           0      -21.307173    5.717272   -0.161242
     78          1           0      -22.289251    5.833716    1.274966
     79          1           0      -22.440916    7.071209   -0.045562
     80         12           0       26.270363   -0.762882    0.215691
     81          6           0       26.840614    2.554132   -1.017936
     82          6           0       25.565749    0.505109    3.161417
     83          6           0       26.587184   -3.865417    1.337445
     84          6           0       27.466736   -1.914668   -3.066201
     85          7           0       26.169409    1.305435    0.956069
     86          6           0       26.467163    2.524985    0.316079
     87          6           0       26.298025    3.787510    1.243202
     88          6           0       25.800712    3.006023    2.608335
     89          6           0       25.818124    1.520422    2.262372
     90          6           0       26.744310    3.303996    3.851432
     91          6           0       25.336316    4.904805    0.707734
     92          6           0       24.847399    5.910364    1.743333
     93          1           0       25.356893    7.348104    1.533809
     94          7           0       25.999831   -1.577083    1.997073
     95          6           0       25.677266   -0.934531    3.169248
     96          6           0       25.504056   -1.854609    4.273466
     97          6           0       25.802573   -3.151112    3.694163
     98          6           0       26.082624   -2.888131    2.237656
     99          6           0       25.058345   -1.528321    5.620780
    100          6           0       25.794099   -4.530100    4.330714
    101          8           0       25.944411   -5.552268    3.722194
    102          6           0       25.668190   -4.529858    5.831079
    103          7           0       26.996950   -2.626169   -0.717241
    104          6           0       26.981048   -3.779353   -0.002387
    105          6           0       27.388902   -4.987445   -0.887418
    106          6           0       27.525642   -4.332675   -2.305908
    107          6           0       27.266334   -2.862065   -2.041231
    108          6           0       28.661507   -5.805931   -0.481026
    109          6           0       26.552286   -4.871157   -3.413083
    110          6           0       26.981137   -6.237009   -3.993378
    111          7           0       27.021344    0.052911   -1.647447
    112          6           0       27.373179   -0.503039   -2.855808
    113          6           0       27.612260    0.530204   -3.783186
    114          6           0       27.486114    1.710530   -3.151949
    115          6           0       27.135629    1.407432   -1.801360
    116          6           0       27.884974    0.226090   -5.250523
    117          6           0       27.594616    3.172208   -3.196688
    118          8           0       27.905208    3.907002   -4.098479
    119          6           0       27.188683    3.760590   -1.762137
    120          6           0       28.428197    4.332108   -1.151124
    121          8           0       29.306776    3.828695   -0.488018
    122          8           0       28.381107    5.677100   -1.460000
    123          6           0       29.490707    6.522446   -0.958579
    124          1           0       25.369266    0.827453    4.185969
    125          1           0       26.816259   -4.828662    1.799594
    126          1           0       27.696746   -2.418159   -4.008050
    127          1           0       27.294385    4.172077    1.461716
    128          1           0       24.811494    3.384026    2.867579
    129          1           0       26.131102    3.499468    4.730993
    130          1           0       27.497502    4.087156    3.769262
    131          1           0       27.280385    2.401099    4.142225
    132          1           0       24.560482    4.281266    0.261553
    133          1           0       25.656173    5.497942   -0.149274
    134          1           0       25.166270    5.584312    2.732939
    135          1           0       23.770470    6.030737    1.629006
    136          1           0       24.104651   -2.056065    5.622274
    137          1           0       24.988211   -0.449637    5.761704
    138          1           0       25.641583   -1.908495    6.459225
    139          1           0       24.618704   -4.639082    6.104155
    140          1           0       26.339964   -3.828268    6.326490
    141          1           0       26.297365   -5.369372    6.125466
    142          1           0       26.473929   -5.568403   -1.007015
    143          1           0       28.573773   -4.353656   -2.605195
    144          1           0       29.459635   -5.858144   -1.222111
    145          1           0       28.326600   -6.841461   -0.425174
    146          1           0       29.143247   -5.492056    0.444986
    147          1           0       26.529712   -4.167842   -4.244759
    148          1           0       25.570545   -4.886668   -2.937709
    149          1           0       28.044824   -6.405407   -3.823995
    150          1           0       26.710000   -6.208749   -5.048673
    151          1           0       26.501869   -7.094170   -3.519488
    152          1           0       27.584483    1.057707   -5.887970
    153          1           0       27.369759   -0.696406   -5.518400
    154          1           0       28.934757   -0.029635   -5.395964
    155          1           0       26.388364    4.496892   -1.839694
    156          1           0       29.713712    7.218252   -1.767323
    157          1           0       30.391096    5.969583   -0.691143
    158          1           0       28.984880    6.989501   -0.112966
 ---------------------------------------------------------------------

 SCF Done:  E(RCAM-B3LYP) =  -4069.84914642     A.U. after   19 cycles

 Excitation energies and oscillator strengths:

 Excited State   1:      Singlet-A      1.6973 eV  730.49 nm  f=0.3950  <S**2>=0.000
     310 -> 316       -0.17774
     312 -> 314        0.68637
     310 <- 316       -0.10765
 This state for optimization and/or second-order correction.
 Total Energy, E(TD-HF/TD-DFT) =  -4069.78677275
 Copying the excited state density for this state as the 1-particle RhoCI density.

 Excited State   2:      Singlet-A      1.7265 eV  718.14 nm  f=0.3758  <S**2>=0.000
     309 -> 315        0.17541
     311 -> 313        0.68643
     309 <- 315        0.10553

 Excited State   3:      Singlet-A      2.2114 eV  560.66 nm  f=0.1370  <S**2>=0.000
     310 -> 314        0.65075
     312 -> 316        0.26505

 Excited State   4:      Singlet-A      2.2226 eV  557.82 nm  f=0.1478  <S**2>=0.000
     309 -> 313        0.65062
     311 -> 315       -0.26125

 Excited State   5:      Singlet-A      3.0574 eV  405.52 nm  f=0.0000  <S**2>=0.000
     312 -> 313        0.70711

 The electronic state is 1-A.
 Alpha  occ. eigenvalues --  -46.88554 -46.87999 -19.24163 -19.23826 -19.19906
 Alpha  occ. eigenvalues --  -19.19465 -19.19284 -19.19093 -19.18932 -19.18233
 Alpha  occ. eigenvalues --  -14.42699 -14.42173 -14.41663 -14.41304 -14.40182
 Alpha  occ. eigenvalues --  -14.39611 -14.39365 -14.38832 -10.39078 -10.38959
 Alpha  occ. eigenvalues --  -10.35484 -10.35251 -10.34754 -10.34351 -10.31711
 Alpha  occ. eigenvalues --  -10.31622 -10.31202 -10.31188 -10.31170 -10.30895
 Alpha  occ. eigenvalues --  -10.30865 -10.30849 -10.30823 -10.30705 -10.30351
 Alpha  occ. eigenvalues --  -10.30172 -10.30089 -10.30087 -10.29712 -10.29363
 Alpha  occ. eigenvalues --  -10.29073 -10.28912 -10.28891 -10.28881 -10.28842
 Alpha  occ. eigenvalues --  -10.28747 -10.28500 -10.28471 -10.28117 -10.28061
 Alpha  occ. eigenvalues --  -10.27948 -10.27860 -10.27783 -10.27782 -10.27770
 Alpha  occ. eigenvalues --  -10.27733 -10.27651 -10.27626 -10.27515 -10.27489
 Alpha  occ. eigenvalues --  -10.27167 -10.26979 -10.26925 -10.26893 -10.26823
 Alpha  occ. eigenvalues --  -10.26805 -10.26763 -10.26752 -10.26735 -10.26723
 Alpha  occ. eigenvalues --  -10.26688 -10.26377 -10.26358 -10.26340 -10.26138
 Alpha  occ. eigenvalues --  -10.26006 -10.25874 -10.25866 -10.25866 -10.25815
 Alpha  occ. eigenvalues --  -10.25696 -10.25582 -10.25547 -10.25533 -10.24690
 Alpha  occ. eigenvalues --  -10.24545  -3.17097  -3.16695  -1.91993  -1.91607
 Alpha  occ. eigenvalues --   -1.91533  -1.91421  -1.91143  -1.91013  -1.15689
 Alpha  occ. eigenvalues --   -1.13460  -1.11351  -1.11139  -1.10774  -1.08639
 Alpha  occ. eigenvalues --   -1.07450  -1.05839  -1.05210  -1.03967  -1.03791
 Alpha  occ. eigenvalues --   -1.03395  -1.03280  -1.02487  -1.02439  -1.01576
 Alpha  occ. eigenvalues --   -0.92999  -0.92119  -0.89310  -0.88993  -0.88914
 Alpha  occ. eigenvalues --   -0.88426  -0.88233  -0.88106  -0.87783  -0.87504
 Alpha  occ. eigenvalues --   -0.87131  -0.86829  -0.86284  -0.86005  -0.84349
 Alpha  occ. eigenvalues --   -0.83879  -0.83175  -0.83005  -0.82222  -0.82161
 Alpha  occ. eigenvalues --   -0.82034  -0.81512  -0.80693  -0.80410  -0.80060
 Alpha  occ. eigenvalues --   -0.80046  -0.78807  -0.78097  -0.77289  -0.76959
 Alpha  occ. eigenvalues --   -0.76883  -0.76626  -0.75883  -0.75527  -0.75080
 Alpha  occ. eigenvalues --   -0.74802  -0.73141  -0.72754  -0.71637  -0.71306
 Alpha  occ. eigenvalues --   -0.69627  -0.69585  -0.68993  -0.68734  -0.68004
 Alpha  occ. eigenvalues --   -0.67705  -0.67309  -0.66941  -0.65807  -0.65272
 Alpha  occ. eigenvalues --   -0.65028  -0.64971  -0.64630  -0.64592  -0.64398
 Alpha  occ. eigenvalues --   -0.63873  -0.61444  -0.61415  -0.60369  -0.60064
 Alpha  occ. eigenvalues --   -0.59661  -0.59457  -0.59338  -0.58803  -0.58552
 Alpha  occ. eigenvalues --   -0.58316  -0.57826  -0.57801  -0.57373  -0.56857
 Alpha  occ. eigenvalues --   -0.56280  -0.56113  -0.55753  -0.54994  -0.54985
 Alpha  occ. eigenvalues --   -0.54648  -0.54448  -0.54264  -0.54115  -0.54024
 Alpha  occ. eigenvalues --   -0.53643  -0.53414  -0.53254  -0.52923  -0.52642
 Alpha  occ. eigenvalues --   -0.52511  -0.52391  -0.52362  -0.52277  -0.52069
 Alpha  occ. eigenvalues --   -0.51933  -0.51614  -0.51605  -0.51321  -0.51038
 Alpha  occ. eigenvalues --   -0.50980  -0.50581  -0.50525  -0.50173  -0.50157
 Alpha  occ. eigenvalues --   -0.49890  -0.49785  -0.49658  -0.49627  -0.49533
 Alpha  occ. eigenvalues --   -0.49467  -0.49307  -0.49138  -0.49104  -0.48812
 Alpha  occ. eigenvalues --   -0.48589  -0.48403  -0.48390  -0.48166  -0.47953
 Alpha  occ. eigenvalues --   -0.47796  -0.47732  -0.47676  -0.47519  -0.47236
 Alpha  occ. eigenvalues --   -0.47162  -0.47037  -0.46953  -0.46739  -0.46729
 Alpha  occ. eigenvalues --   -0.46322  -0.45876  -0.45792  -0.45728  -0.45430
 Alpha  occ. eigenvalues --   -0.45284  -0.45159  -0.45093  -0.45069  -0.45024
 Alpha  occ. eigenvalues --   -0.44828  -0.44709  -0.44701  -0.44556  -0.44275
 Alpha  occ. eigenvalues --   -0.44110  -0.43964  -0.43914  -0.43796  -0.43460
 Alpha  occ. eigenvalues --   -0.43394  -0.43168  -0.43039  -0.42905  -0.42743
 Alpha  occ. eigenvalues --   -0.42635  -0.42533  -0.42495  -0.42055  -0.42020
 Alpha  occ. eigenvalues --   -0.41859  -0.41800  -0.41603  -0.41516  -0.41323
 Alpha  occ. eigenvalues --   -0.41101  -0.40931  -0.40837  -0.40760  -0.40457
 Alpha  occ. eigenvalues --   -0.40284  -0.39884  -0.39448  -0.39324  -0.38772
 Alpha  occ. eigenvalues --   -0.38644  -0.38086  -0.37799  -0.37737  -0.37251
 Alpha  occ. eigenvalues --   -0.37006  -0.36993  -0.36525  -0.36326  -0.36182
 Alpha  occ. eigenvalues --   -0.35803  -0.35717  -0.34622  -0.34394  -0.33921
 Alpha  occ. eigenvalues --   -0.33873  -0.33533  -0.32575  -0.31680  -0.31296
 Alpha  occ. eigenvalues --   -0.31094  -0.30815  -0.30553  -0.30530  -0.30093
 Alpha  occ. eigenvalues --   -0.29796  -0.29724  -0.29503  -0.24208  -0.23572
 Alpha  occ. eigenvalues --   -0.21566  -0.20944
 Alpha virt. eigenvalues --   -0.09077  -0.08517  -0.01674  -0.01114   0.00192
 Alpha virt. eigenvalues --    0.00897   0.02378   0.02484   0.02692   0.03725
 Alpha virt. eigenvalues --    0.04689   0.04962   0.05190   0.05868   0.06109

 Mulliken charges:
               1
     1  Mg  12.000008
     2  C    5.999912
     3  C    6.000057
     4  C    6.000090
     5  C    5.999938
     6  N    6.999942
     7  C    6.000080
     8  C    5.999971
     9  C    6.000029
    10  C    5.999904
    11  C    6.000039
    12  C    5.999998
    13  C    5.999998
    14  H    0.999997
    15  N    6.999991
    16  C    5.999825
    17  C    5.999941
    18  C    5.999914
    19  C    5.999876
    20  C    6.000041
    21  C    5.999968
    22  O    7.999893
    23  C    6.000022
    24  N    7.000066
    25  C    5.999903
    26  C    5.999994
    27  C    5.999988
    28  C    6.000058
    29  C    6.000018
    30  C    5.999979
    31  C    6.000005
    32  N    7.000028
    33  C    6.000184
    34  C    6.000057
    35  C    6.000085
    36  C    6.000122
    37  C    5.999987
    38  C    6.000017
    39  O    8.000145
    40  C    6.000022
    41  C    6.000012
    42  O    7.999992
    43  O    8.000014
    44  C    5.999995
    45  H    0.999942
    46  H    0.999977
    47  H    1.000066
    48  H    0.999983
    49  H    0.999996
    50  H    0.999933
    51  H    0.999988
    52  H    0.999979
    53  H    1.000046
    54  H    0.999981
    55  H    1.000022
    56  H    1.000001
    57  H    0.999915
    58  H    0.999943
    59  H    0.999927
    60  H    0.999953
    61  H    0.999949
    62  H    0.999991
    63  H    1.000024
    64  H    0.999983
    65  H    0.999955
    66  H    0.999997
    67  H    1.000002
    68  H    0.999991
    69  H    1.000048
    70  H    0.999997
    71  H    1.000032
    72  H    1.000006
    73  H    1.000079
    74  H    1.000055
    75  H    1.000058
    76  H    1.000043
    77  H    1.000001
    78  H    1.000001
    79  H    1.000033
    80  Mg  11.999540
    81  C    6.030233
    82  C    5.986698
    83  C    5.978057
    84  C    6.015706
    85  N    7.010323
    86  C    5.965129
    87  C    6.017247
    88  C    5.984862
    89  C    6.030207
    90  C    5.999540
    91  C    6.002257
    92  C    5.998927
    93  H    1.000033
    94  N    6.991622
    95  C    6.046890
    96  C    6.016140
    97  C    6.020762
    98  C    6.033926
    99  C    5.993404
   100  C    6.014919
   101  O    8.030475
   102  C    5.990219
   103  N    6.998421
   104  C    6.036277
   105  C    5.986494
   106  C    6.010803
   107  C    5.967374
   108  C    5.999282
   109  C    6.007241
   110  C    5.998357
   111  N    7.004254
   112  C    5.960019
   113  C    5.972052
   114  C    5.997928
   115  C    5.954391
   116  C    6.002026
   117  C    5.982379
   118  O    7.969609
   119  C    5.992334
   120  C    6.000668
   121  O    7.992003
   122  O    7.999195
   123  C    6.002351
   124  H    1.009512
   125  H    1.004369
   126  H    0.988757
   127  H    0.994380
   128  H    1.004781
   129  H    1.000143
   130  H    1.012432
   131  H    0.993749
   132  H    0.998346
   133  H    1.004836
   134  H    0.992194
   135  H    0.997430
   136  H    1.018514
   137  H    1.019472
   138  H    1.020798
   139  H    1.011410
   140  H    1.007188
   141  H    1.015677
   142  H    1.000613
   143  H    1.000297
   144  H    1.009853
   145  H    1.001062
   146  H    0.995202
   147  H    1.005787
   148  H    0.990383
   149  H    0.996919
   150  H    1.000028
   151  H    0.992489
   152  H    0.984329
   153  H    0.981644
   154  H    0.977920
   155  H    0.991488
   156  H    0.997290
   157  H    0.996635
   158  H    0.993500
 Sum of Mulliken charges = 624.00000

 Dipole moment (field-independent basis, Debye):
    X=             -2.4840    Y=             -4.7727    Z=              9.6852  Tot=             11.0793
 Quadrupole moment (field-independent basis, Debye-Ang):
   XX=           -135.1908   YY=              3.5771   ZZ=              6.1046
   XY=           -127.2772   XZ=            258.4425   YZ=            -10.3619

 Normal termination of Gaussian 16 at Thu Sep 23 06:12:32 2021.
