 Gaussian 16, Revision A.03,
 Gaussian 16:  ES64L-G16RevA.03 25-Dec-2016

 -----------------------------------
 #p cam-b3lyp/Def2SVP td=(nstates=5)
 -----------------------------------

 --------------------------------
 TDDFT excited states in gaussian
 --------------------------------
 Symbolic Z-matrix:
 Charge =  0 Multiplicity = 1

                         Standard orientation:
 ---------------------------------------------------------------------
 Center     Atomic      Atomic             Coordinates (Angstroms)
 Number     Number       Type             X           Y           Z
 ---------------------------------------------------------------------
      1         12           0      -16.328849    0.610343    0.523639
      2          6           0      -15.185716   -2.069040   -1.561782
      3          6           0      -17.660027   -1.892780    2.622664
      4          6           0      -18.041094    2.879594    2.143170
      5          6           0      -15.274458    2.829356   -1.827257
      6          7           0      -16.348071   -1.703323    0.522789
      7          6           0      -15.717278   -2.487120   -0.384437
      8          6           0      -15.770661   -3.927273    0.098209
      9          6           0      -16.528004   -3.951080    1.455790
     10          6           0      -16.844098   -2.447898    1.577074
     11          6           0      -17.826158   -4.939392    1.464546
     12          6           0      -14.328730   -4.569516    0.277616
     13          6           0      -14.116430   -5.955597   -0.332017
     14          1           0      -15.294511   -7.008881   -0.391695
     15          7           0      -17.721184    0.498145    2.141829
     16          6           0      -18.075002   -0.566135    2.830658
     17          6           0      -19.007611   -0.136612    3.834251
     18          6           0      -19.067273    1.279783    3.863990
     19          6           0      -18.303908    1.600594    2.686498
     20          6           0      -19.562123   -1.077447    4.902665
     21          6           0      -19.638123    2.299721    4.836740
     22          8           0      -19.632184    3.497651    4.620068
     23          6           0      -20.166532    1.752258    6.134049
     24          7           0      -16.891986    2.505467   -0.013267
     25          6           0      -17.454439    3.332211    0.961021
     26          6           0      -17.311518    4.843498    0.633784
     27          6           0      -16.280090    4.746051   -0.552814
     28          6           0      -16.121953    3.251134   -0.830194
     29          6           0      -18.675115    5.460411    0.290300
     30          6           0      -14.829362    5.319083   -0.189081
     31          6           0      -14.422183    6.637220   -0.757171
     32          7           0      -15.336706    0.465788   -1.227957
     33          6           0      -15.001158    1.477166   -2.101950
     34          6           0      -14.421345    0.980659   -3.347162
     35          6           0      -14.464890   -0.449926   -3.183730
     36          6           0      -15.131066   -0.699943   -1.960790
     37          6           0      -13.764706    1.841333   -4.365004
     38          6           0      -14.056229   -1.725802   -3.750894
     39          8           0      -13.425830   -1.910120   -4.807989
     40          6           0      -14.547253   -2.881357   -2.706389
     41          6           0      -15.491129   -3.689100   -3.462561
     42          8           0      -16.477315   -3.240860   -4.005205
     43          8           0      -15.137213   -4.979706   -3.469533
     44          6           0      -15.908171   -6.015591   -4.226051
     45          1           0      -18.029082   -2.622936    3.345818
     46          1           0      -18.208436    3.718206    2.823236
     47          1           0      -14.878495    3.582281   -2.511532
     48          1           0      -16.355462   -4.486265   -0.632313
     49          1           0      -15.919341   -4.374039    2.255179
     50          1           0      -17.734802   -5.706818    0.695843
     51          1           0      -18.677811   -4.279462    1.297355
     52          1           0      -17.929723   -5.400048    2.446842
     53          1           0      -13.961323   -4.601952    1.302402
     54          1           0      -13.594440   -3.946010   -0.232299
     55          1           0      -13.281299   -6.476751    0.136493
     56          1           0      -13.763359   -5.721505   -1.336335
     57          1           0      -19.024396   -1.043367    5.850328
     58          1           0      -19.685178   -2.091438    4.520969
     59          1           0      -20.587629   -0.755340    5.082035
     60          1           0      -19.565108    0.962075    6.584504
     61          1           0      -21.177036    1.349302    6.082493
     62          1           0      -20.049617    2.509939    6.908916
     63          1           0      -16.905387    5.328837    1.520835
     64          1           0      -16.688348    5.304087   -1.395544
     65          1           0      -19.528768    4.817159    0.503404
     66          1           0      -18.756508    5.689873   -0.771581
     67          1           0      -18.793304    6.395542    0.838692
     68          1           0      -13.998214    4.672623   -0.470774
     69          1           0      -14.661424    5.382145    0.885425
     70          1           0      -14.273460    7.361893    0.042330
     71          1           0      -15.273184    6.905546   -1.383465
     72          1           0      -13.489655    6.541671   -1.313291
     73          1           0      -12.918621    1.334240   -4.827546
     74          1           0      -13.545559    2.786314   -3.868270
     75          1           0      -14.511059    2.033017   -5.137135
     76          1           0      -13.719635   -3.510532   -2.381618
     77          1           0      -16.064137   -5.673770   -5.249417
     78          1           0      -16.887055   -6.212868   -3.788361
     79          1           0      -15.468904   -7.011567   -4.176899
     80         12           0       15.870503    0.808124    0.108626
     81          6           0       17.871337   -1.930415    1.323474
     82          6           0       13.561767   -1.378315   -0.913634
     83          6           0       14.558388    3.282802   -1.731231
     84          6           0       18.605698    2.884516    0.823864
     85          7           0       15.779301   -1.364739    0.155077
     86          6           0       16.585949   -2.278046    0.855133
     87          6           0       15.920227   -3.705648    0.912768
     88          6           0       14.588718   -3.486420    0.132648
     89          6           0       14.605707   -1.968206   -0.188495
     90          6           0       14.364244   -4.321840   -1.102133
     91          6           0       15.761206   -4.263493    2.426953
     92          6           0       16.342670   -5.661141    2.673185
     93          1           0       15.292084   -6.706622    3.202898
     94          7           0       14.188830    0.965958   -1.045912
     95          6           0       13.357154   -0.029665   -1.368768
     96          6           0       12.280684    0.430826   -2.247551
     97          6           0       12.647355    1.786841   -2.553681
     98          6           0       13.858885    2.077503   -1.779864
     99          6           0       11.167418   -0.423519   -2.679944
    100          6           0       11.904606    2.669852   -3.605078
    101          8           0       12.201650    3.837666   -3.793544
    102          6           0       10.768046    2.159977   -4.432502
    103          7           0       16.488488    2.732071   -0.352869
    104          6           0       15.683972    3.625383   -1.052104
    105          6           0       16.330605    5.048902   -1.092594
    106          6           0       17.435883    4.960218    0.024915
    107          6           0       17.495027    3.447233    0.234052
    108          6           0       16.771517    5.611318   -2.483169
    109          6           0       17.071031    5.700359    1.340875
    110          6           0       18.152558    6.457051    2.069870
    111          7           0       17.862722    0.559184    0.859603
    112          6           0       18.834195    1.492396    1.086143
    113          6           0       19.996774    0.817899    1.812979
    114          6           0       19.638579   -0.499369    1.968634
    115          6           0       18.366516   -0.625885    1.312039
    116          6           0       21.197952    1.583290    2.319726
    117          6           0       20.020462   -1.812223    2.457590
    118          8           0       21.092714   -2.053216    3.050632
    119          6           0       18.876874   -2.880931    1.957592
    120          6           0       19.354900   -3.889834    0.934288
    121          8           0       19.908457   -3.517950   -0.119339
    122          8           0       19.265785   -5.203663    1.396158
    123          6           0       20.092199   -6.120294    0.619379
    124          1           0       12.718420   -2.019611   -1.177345
    125          1           0       14.028617    4.046722   -2.303555
    126          1           0       19.361678    3.613173    1.125430
    127          1           0       16.645886   -4.322514    0.383040
    128          1           0       13.816754   -3.883197    0.793430
    129          1           0       15.206698   -4.971268   -1.340451
    130          1           0       14.405109   -3.535426   -1.855019
    131          1           0       13.476612   -4.952253   -1.041324
    132          1           0       14.682770   -4.232747    2.579781
    133          1           0       16.157727   -3.522153    3.120190
    134          1           0       17.196688   -5.529176    3.337516
    135          1           0       16.717940   -6.062904    1.731115
    136          1           0       10.965198   -0.563869   -3.741327
    137          1           0       10.276014    0.152433   -2.434010
    138          1           0       11.023272   -1.335954   -2.100923
    139          1           0        9.997780    1.882210   -3.712033
    140          1           0       11.115171    1.238584   -4.900930
    141          1           0       10.521472    2.966924   -5.121394
    142          1           0       15.534071    5.700906   -0.734011
    143          1           0       18.425519    5.242358   -0.333644
    144          1           0       16.389873    4.881913   -3.197243
    145          1           0       17.840719    5.802008   -2.571085
    146          1           0       16.206077    6.500601   -2.764395
    147          1           0       16.744538    4.829337    1.908725
    148          1           0       16.212984    6.368854    1.267464
    149          1           0       17.691563    7.393580    2.383930
    150          1           0       18.998423    6.716424    1.432391
    151          1           0       18.325235    5.909244    2.996585
    152          1           0       21.061413    2.624052    2.026568
    153          1           0       22.075516    1.232368    1.777198
    154          1           0       21.318776    1.408031    3.388547
    155          1           0       18.448393   -3.358886    2.838541
    156          1           0       20.958244   -6.523846    1.142149
    157          1           0       20.446033   -5.709164   -0.326177
    158          1           0       19.447263   -6.958714    0.357555
 ---------------------------------------------------------------------

 SCF Done:  E(RCAM-B3LYP) =  -4069.79334549     A.U. after   17 cycles

 Excitation energies and oscillator strengths:

 Excited State   1:      Singlet-A      1.6833 eV  736.56 nm  f=0.4059  <S**2>=0.000
     310 -> 316        0.17196
     311 -> 313        0.68326
     310 <- 316        0.10657
 This state for optimization and/or second-order correction.
 Total Energy, E(TD-HF/TD-DFT) =  -4069.73148579
 Copying the excited state density for this state as the 1-particle RhoCI density.

 Excited State   2:      Singlet-A      1.6981 eV  730.12 nm  f=0.4157  <S**2>=0.000
     309 -> 315        0.17217
     312 -> 314        0.68462
     309 <- 315        0.10727

 Excited State   3:      Singlet-A      2.1994 eV  563.73 nm  f=0.1311  <S**2>=0.000
     310 -> 313        0.65028
     311 -> 316       -0.26297

 Excited State   4:      Singlet-A      2.2865 eV  542.23 nm  f=0.0918  <S**2>=0.000
     309 -> 314        0.63009
     312 -> 315       -0.31288

 Excited State   5:      Singlet-A      2.9851 eV  415.35 nm  f=0.0000  <S**2>=0.000
     312 -> 313        0.70710

 The electronic state is 1-A.
 Alpha  occ. eigenvalues --  -46.88660 -46.88389 -19.26708 -19.25304 -19.20861
 Alpha  occ. eigenvalues --  -19.19935 -19.19567 -19.19054 -19.18559 -19.18552
 Alpha  occ. eigenvalues --  -14.42574 -14.41919 -14.41752 -14.41658 -14.39691
 Alpha  occ. eigenvalues --  -14.39414 -14.39376 -14.39127 -10.40844 -10.38542
 Alpha  occ. eigenvalues --  -10.36513 -10.35824 -10.35502 -10.34931 -10.32581
 Alpha  occ. eigenvalues --  -10.31753 -10.31600 -10.31373 -10.30968 -10.30783
 Alpha  occ. eigenvalues --  -10.30656 -10.30557 -10.30343 -10.30310 -10.30129
 Alpha  occ. eigenvalues --  -10.29963 -10.29789 -10.29689 -10.29623 -10.29511
 Alpha  occ. eigenvalues --  -10.29219 -10.29143 -10.29066 -10.29015 -10.28871
 Alpha  occ. eigenvalues --  -10.28795 -10.28607 -10.28571 -10.28249 -10.28245
 Alpha  occ. eigenvalues --  -10.28221 -10.28059 -10.28055 -10.27972 -10.27835
 Alpha  occ. eigenvalues --  -10.27767 -10.27725 -10.27659 -10.27473 -10.27371
 Alpha  occ. eigenvalues --  -10.27302 -10.27228 -10.27127 -10.27083 -10.27052
 Alpha  occ. eigenvalues --  -10.26951 -10.26698 -10.26611 -10.26514 -10.26467
 Alpha  occ. eigenvalues --  -10.26265 -10.26150 -10.26148 -10.26107 -10.26094
 Alpha  occ. eigenvalues --  -10.25929 -10.25845 -10.25728 -10.25616 -10.25608
 Alpha  occ. eigenvalues --  -10.25538 -10.25506 -10.25498 -10.25438 -10.25225
 Alpha  occ. eigenvalues --  -10.25058  -3.17288  -3.17041  -1.92154  -1.91922
 Alpha  occ. eigenvalues --   -1.91749  -1.91599  -1.91480  -1.91369  -1.16602
 Alpha  occ. eigenvalues --   -1.16352  -1.10882  -1.10115  -1.09050  -1.08480
 Alpha  occ. eigenvalues --   -1.07967  -1.07410  -1.04689  -1.03927  -1.03549
 Alpha  occ. eigenvalues --   -1.03305  -1.03185  -1.02652  -1.01925  -1.01892
 Alpha  occ. eigenvalues --   -0.92642  -0.92204  -0.89125  -0.88754  -0.88675
 Alpha  occ. eigenvalues --   -0.88304  -0.88140  -0.88042  -0.87338  -0.87236
 Alpha  occ. eigenvalues --   -0.87148  -0.87061  -0.86447  -0.86130  -0.84297
 Alpha  occ. eigenvalues --   -0.84269  -0.84163  -0.83671  -0.82728  -0.82706
 Alpha  occ. eigenvalues --   -0.81940  -0.81872  -0.81328  -0.81214  -0.80737
 Alpha  occ. eigenvalues --   -0.80240  -0.78439  -0.78305  -0.77715  -0.77617
 Alpha  occ. eigenvalues --   -0.76939  -0.76907  -0.76319  -0.76233  -0.74882
 Alpha  occ. eigenvalues --   -0.74714  -0.72526  -0.72458  -0.71456  -0.70980
 Alpha  occ. eigenvalues --   -0.69010  -0.68791  -0.68414  -0.67924  -0.67839
 Alpha  occ. eigenvalues --   -0.67690  -0.67018  -0.66726  -0.65596  -0.65349
 Alpha  occ. eigenvalues --   -0.65204  -0.65001  -0.64905  -0.64665  -0.64541
 Alpha  occ. eigenvalues --   -0.64363  -0.62602  -0.62465  -0.60541  -0.60297
 Alpha  occ. eigenvalues --   -0.59782  -0.59271  -0.58928  -0.58858  -0.58534
 Alpha  occ. eigenvalues --   -0.58531  -0.58342  -0.58084  -0.57513  -0.57328
 Alpha  occ. eigenvalues --   -0.56265  -0.56123  -0.55800  -0.55438  -0.55204
 Alpha  occ. eigenvalues --   -0.55125  -0.54933  -0.54407  -0.53781  -0.53541
 Alpha  occ. eigenvalues --   -0.53525  -0.53358  -0.53143  -0.53030  -0.52956
 Alpha  occ. eigenvalues --   -0.52659  -0.52609  -0.52463  -0.52401  -0.52137
 Alpha  occ. eigenvalues --   -0.51841  -0.51628  -0.51497  -0.51328  -0.51283
 Alpha  occ. eigenvalues --   -0.51231  -0.51144  -0.50834  -0.50628  -0.50567
 Alpha  occ. eigenvalues --   -0.50256  -0.50111  -0.50011  -0.49618  -0.49381
 Alpha  occ. eigenvalues --   -0.49305  -0.49166  -0.49069  -0.48799  -0.48795
 Alpha  occ. eigenvalues --   -0.48633  -0.48609  -0.48438  -0.48330  -0.48186
 Alpha  occ. eigenvalues --   -0.48155  -0.47963  -0.47758  -0.47470  -0.47247
 Alpha  occ. eigenvalues --   -0.47032  -0.46783  -0.46763  -0.46646  -0.46493
 Alpha  occ. eigenvalues --   -0.46234  -0.46159  -0.46031  -0.45956  -0.45931
 Alpha  occ. eigenvalues --   -0.45685  -0.45378  -0.45346  -0.45141  -0.44580
 Alpha  occ. eigenvalues --   -0.44552  -0.44338  -0.44276  -0.44152  -0.44043
 Alpha  occ. eigenvalues --   -0.43864  -0.43823  -0.43634  -0.43623  -0.43337
 Alpha  occ. eigenvalues --   -0.43209  -0.43058  -0.43007  -0.42859  -0.42798
 Alpha  occ. eigenvalues --   -0.42679  -0.42650  -0.42512  -0.41886  -0.41734
 Alpha  occ. eigenvalues --   -0.41712  -0.41558  -0.41456  -0.41329  -0.41132
 Alpha  occ. eigenvalues --   -0.41049  -0.40796  -0.40591  -0.40570  -0.40331
 Alpha  occ. eigenvalues --   -0.40187  -0.39758  -0.39511  -0.39370  -0.39142
 Alpha  occ. eigenvalues --   -0.38432  -0.38303  -0.37961  -0.37820  -0.37437
 Alpha  occ. eigenvalues --   -0.37425  -0.37015  -0.36593  -0.36428  -0.36263
 Alpha  occ. eigenvalues --   -0.36192  -0.36118  -0.35162  -0.34495  -0.34446
 Alpha  occ. eigenvalues --   -0.33804  -0.33050  -0.32894  -0.31733  -0.31561
 Alpha  occ. eigenvalues --   -0.31398  -0.31279  -0.30782  -0.30701  -0.30397
 Alpha  occ. eigenvalues --   -0.30126  -0.29788  -0.29434  -0.24179  -0.23872
 Alpha  occ. eigenvalues --   -0.21001  -0.20785
 Alpha virt. eigenvalues --   -0.08759  -0.08434  -0.01325  -0.01158  -0.00052
 Alpha virt. eigenvalues --    0.00076   0.01738   0.01776   0.02036   0.02320
 Alpha virt. eigenvalues --    0.02795   0.04523   0.04721   0.05482   0.05534

 Mulliken charges:
               1
     1  Mg   0.829298
     2  C   -0.027460
     3  C   -0.081372
     4  C   -0.048326
     5  C   -0.097988
     6  N   -0.248706
     7  C   -0.030249
     8  C    0.007202
     9  C   -0.059272
    10  C    0.026557
    11  C    0.039533
    12  C    0.031828
    13  C   -0.058998
    14  H    0.004093
    15  N   -0.302850
    16  C    0.146139
    17  C   -0.168985
    18  C   -0.020019
    19  C    0.093317
    20  C    0.099912
    21  C    0.033805
    22  O   -0.186952
    23  C    0.024084
    24  N   -0.332256
    25  C   -0.001067
    26  C   -0.024816
    27  C   -0.002642
    28  C    0.080339
    29  C    0.078515
    30  C   -0.015180
    31  C    0.023913
    32  N   -0.395346
    33  C    0.148585
    34  C   -0.178810
    35  C    0.024782
    36  C    0.119070
    37  C    0.137501
    38  C    0.044553
    39  O   -0.191661
    40  C    0.008879
    41  C    0.183304
    42  O   -0.215266
    43  O   -0.324749
    44  C    0.186176
    45  H   -0.034538
    46  H   -0.001808
    47  H   -0.023775
    48  H    0.020306
    49  H    0.020871
    50  H    0.027652
    51  H    0.024032
    52  H    0.016041
    53  H    0.005633
    54  H    0.004771
    55  H    0.020088
    56  H    0.032979
    57  H    0.044409
    58  H    0.015536
    59  H    0.008573
    60  H    0.015396
    61  H    0.052179
    62  H    0.023581
    63  H    0.017653
    64  H    0.012744
    65  H    0.031351
    66  H    0.004890
    67  H    0.019392
    68  H    0.006116
    69  H   -0.004186
    70  H    0.014290
    71  H    0.005160
    72  H    0.017067
    73  H    0.042073
    74  H    0.016886
    75  H    0.031402
    76  H    0.029601
    77  H    0.052804
    78  H    0.029893
    79  H    0.042522
    80  Mg   0.838873
    81  C   -0.085753
    82  C   -0.073215
    83  C   -0.080456
    84  C   -0.091739
    85  N   -0.300394
    86  C   -0.058300
    87  C   -0.033046
    88  C   -0.060008
    89  C    0.087835
    90  C    0.072286
    91  C    0.046876
    92  C   -0.051477
    93  H    0.010810
    94  N   -0.369154
    95  C    0.094519
    96  C   -0.130007
    97  C   -0.034176
    98  C    0.097040
    99  C    0.117788
   100  C   -0.018388
   101  O   -0.206450
   102  C    0.074208
   103  N   -0.329452
   104  C    0.078668
   105  C   -0.014136
   106  C   -0.051136
   107  C    0.040946
   108  C    0.083602
   109  C    0.023104
   110  C    0.033910
   111  N   -0.304526
   112  C    0.131415
   113  C   -0.210489
   114  C    0.055744
   115  C    0.126751
   116  C    0.140651
   117  C    0.068191
   118  O   -0.187306
   119  C    0.029246
   120  C    0.231173
   121  O   -0.228374
   122  O   -0.337461
   123  C    0.158747
   124  H   -0.037791
   125  H   -0.010922
   126  H   -0.028624
   127  H    0.019781
   128  H    0.008346
   129  H    0.005506
   130  H    0.020703
   131  H    0.020456
   132  H    0.007896
   133  H    0.014249
   134  H    0.041807
   135  H    0.032838
   136  H    0.024652
   137  H    0.006558
   138  H    0.018683
   139  H    0.028778
   140  H    0.031894
   141  H    0.041625
   142  H    0.004080
   143  H    0.004874
   144  H    0.017599
   145  H    0.023641
   146  H    0.013201
   147  H    0.005343
   148  H    0.010939
   149  H    0.005681
   150  H    0.020932
   151  H    0.021807
   152  H    0.000834
   153  H    0.035329
   154  H    0.044322
   155  H    0.029846
   156  H    0.045609
   157  H    0.055303
   158  H    0.027283
 Sum of Mulliken charges =  -0.00000

 Dipole moment (field-independent basis, Debye):
    X=             -2.7915    Y=             -2.3260    Z=              5.4194  Tot=              6.5248
 Quadrupole moment (field-independent basis, Debye-Ang):
   XX=           -658.4618   YY=           -460.8360   ZZ=           -532.1792
   XY=             41.4787   XZ=            -61.9232   YZ=             -0.7733

 Normal termination of Gaussian 16 at Wed Sep 15 07:54:19 2021.
