 Gaussian 16, Revision A.03,
 Gaussian 16:  ES64L-G16RevA.03 25-Dec-2016

 ----------------------------------------------------------
 #p cam-b3lyp/Def2SVP td=(nstates=5) density=(transition=1)
 ----------------------------------------------------------

 --------------------------------
 TDDFT excited states in gaussian
 --------------------------------
 Symbolic Z-matrix:
 Charge =  0 Multiplicity = 1

                         Standard orientation:
 ---------------------------------------------------------------------
 Center     Atomic      Atomic             Coordinates (Angstroms)
 Number     Number       Type             X           Y           Z
 ---------------------------------------------------------------------
      1         12           0       25.634914    0.205538    0.496049
      2          6           0       24.078222   -2.098511   -1.478214
      3          6           0       24.937125    2.655797   -1.958179
      4          6           0       27.354565    2.448465    2.291965
      5          6           0       26.197563   -2.243796    2.837623
      6          7           0       24.916243    0.227124   -1.606954
      7          6           0       24.213221   -0.854935   -2.151902
      8          6           0       23.621042   -0.518844   -3.549873
      9          6           0       24.009680    0.981772   -3.622719
     10          6           0       24.734702    1.324267   -2.333778
     11          6           0       24.792516    1.578543   -4.868934
     12          6           0       22.059036   -0.758255   -3.743182
     13          6           0       21.581089   -0.353226   -5.163394
     14          1           0       21.230714   -1.551111   -6.047225
     15          7           0       26.046383    2.328098    0.212124
     16          6           0       25.462495    3.144714   -0.732303
     17          6           0       26.020625    4.472625   -0.505271
     18          6           0       26.731548    4.395762    0.735465
     19          6           0       26.726883    3.031971    1.162448
     20          6           0       25.724711    5.590663   -1.428874
     21          6           0       27.500744    5.612736    1.358279
     22          8           0       28.293221    5.512343    2.316835
     23          6           0       27.359897    6.983039    0.748425
     24          7           0       26.603135    0.116250    2.192566
     25          6           0       27.292653    1.206553    2.793885
     26          6           0       28.168548    0.731676    3.931071
     27          6           0       27.422715   -0.542937    4.321305
     28          6           0       26.637433   -0.921771    3.073694
     29          6           0       29.647532    0.463164    3.493170
     30          6           0       26.413051   -0.317757    5.468980
     31          6           0       26.910270   -0.397321    6.887405
     32          7           0       25.296721   -1.815076    0.726846
     33          6           0       25.429259   -2.654636    1.766398
     34          6           0       24.956830   -3.954456    1.390739
     35          6           0       24.396461   -3.802254    0.140281
     36          6           0       24.588135   -2.457884   -0.214513
     37          6           0       25.017133   -5.125340    2.308524
     38          6           0       23.718520   -4.493124   -0.871965
     39          8           0       23.329040   -5.642541   -0.946296
     40          6           0       23.470229   -3.388528   -2.003230
     41          6           0       24.078552   -3.884692   -3.266952
     42          8           0       25.252716   -4.039006   -3.499988
     43          8           0       23.158475   -4.018320   -4.226890
     44          6           0       23.661707   -4.467870   -5.581852
     45          1           0       24.550948    3.378686   -2.679612
     46          1           0       27.912744    3.170219    2.891663
     47          1           0       26.224440   -3.041893    3.581978
     48          1           0       24.172770   -1.082614   -4.302178
     49          1           0       23.107776    1.592323   -3.569855
     50          1           0       24.514421    2.586996   -5.176334
     51          1           0       24.830273    0.839330   -5.669280
     52          1           0       25.808335    1.716744   -4.498887
     53          1           0       21.616062   -0.192394   -2.924543
     54          1           0       21.852749   -1.814019   -3.567850
     55          1           0       22.295313    0.336386   -5.613311
     56          1           0       20.647379    0.192235   -5.029619
     57          1           0       26.646690    5.844565   -1.952282
     58          1           0       25.244322    6.357273   -0.820877
     59          1           0       24.961520    5.303407   -2.152291
     60          1           0       27.911531    7.711526    1.342661
     61          1           0       26.309184    7.230391    0.905927
     62          1           0       27.610699    7.084035   -0.307185
     63          1           0       28.197957    1.464075    4.738285
     64          1           0       28.083823   -1.366916    4.589028
     65          1           0       29.724240   -0.454853    2.911835
     66          1           0       30.298361    0.417705    4.366761
     67          1           0       29.931084    1.328488    2.895090
     68          1           0       25.538931   -0.963758    5.397660
     69          1           0       25.931108    0.651798    5.342523
     70          1           0       26.707063    0.571834    7.342083
     71          1           0       27.993027   -0.428454    6.764890
     72          1           0       26.541588   -1.255041    7.450214
     73          1           0       24.062012   -5.259238    2.814888
     74          1           0       25.861334   -5.204504    2.994165
     75          1           0       25.120217   -5.990617    1.653489
     76          1           0       22.394307   -3.267225   -2.130933
     77          1           0       24.492464   -3.812754   -5.845007
     78          1           0       22.919653   -4.360673   -6.373465
     79          1           0       23.989427   -5.503312   -5.486748
     80         12           0      -25.815015   -0.574191   -0.452159
     81          6           0      -23.800675    2.454316   -0.263675
     82          6           0      -22.956710   -2.340683    0.254364
     83          6           0      -27.724833   -3.006106    0.820945
     84          6           0      -28.509711    1.323136   -1.279866
     85          7           0      -23.647394    0.052872    0.143844
     86          6           0      -23.043507    1.359882    0.073315
     87          6           0      -21.525509    1.226783    0.224130
     88          6           0      -21.246485   -0.290400    0.011660
     89          6           0      -22.684502   -0.963983    0.122503
     90          6           0      -20.578982   -0.628389   -1.404636
     91          6           0      -20.894558    1.874445    1.421962
     92          6           0      -21.822720    2.257214    2.598862
     93          1           0      -21.397876    2.863118    3.948989
     94          7           0      -25.397336   -2.507157    0.303204
     95          6           0      -24.144176   -3.031280    0.531385
     96          6           0      -24.308524   -4.451373    0.973018
     97          6           0      -25.671704   -4.566055    1.233322
     98          6           0      -26.358840   -3.335697    0.847782
     99          6           0      -23.126623   -5.334178    1.165197
    100          6           0      -26.345757   -5.822150    1.858262
    101          8           0      -25.623551   -6.733333    2.221920
    102          6           0      -27.798718   -5.932368    2.182585
    103          7           0      -27.841261   -0.681236   -0.139288
    104          6           0      -28.378999   -1.896575    0.282832
    105          6           0      -29.904864   -1.881940    0.191131
    106          6           0      -30.179975   -0.650399   -0.745826
    107          6           0      -28.797569    0.005717   -0.765789
    108          6           0      -30.628499   -3.159573   -0.306560
    109          6           0      -31.329997    0.309178   -0.301160
    110          6           0      -32.674647    0.232903   -1.159309
    111          7           0      -26.134279    1.464571   -0.810355
    112          6           0      -27.307290    2.076243   -1.228054
    113          6           0      -27.025594    3.447885   -1.573610
    114          6           0      -25.706558    3.608385   -1.128016
    115          6           0      -25.220317    2.349457   -0.696801
    116          6           0      -28.083515    4.428650   -2.108329
    117          6           0      -24.611057    4.522488   -1.020768
    118          8           0      -24.626969    5.710626   -1.400880
    119          6           0      -23.254122    3.810052   -0.586813
    120          6           0      -22.757097    4.625039    0.539637
    121          8           0      -23.404051    4.996704    1.524432
    122          8           0      -21.424267    4.777851    0.345499
    123          6           0      -20.725714    5.732827    1.261866
    124          1           0      -22.050404   -2.898955    0.496128
    125          1           0      -28.335903   -3.815063    1.227343
    126          1           0      -29.366831    1.879106   -1.664520
    127          1           0      -21.250425    1.767666   -0.681373
    128          1           0      -20.711848   -0.745734    0.845475
    129          1           0      -19.582283   -0.972830   -1.131723
    130          1           0      -20.596371    0.260999   -2.035004
    131          1           0      -21.161097   -1.456387   -1.810748
    132          1           0      -20.315308    2.714277    1.038658
    133          1           0      -20.182811    1.102708    1.717024
    134          1           0      -22.368396    1.341025    2.826747
    135          1           0      -22.540819    3.007369    2.267046
    136          1           0      -23.052764   -5.502571    2.239179
    137          1           0      -22.252150   -4.822099    0.764870
    138          1           0      -23.257893   -6.245456    0.580669
    139          1           0      -28.207176   -5.272937    2.947416
    140          1           0      -28.059090   -6.894510    2.622732
    141          1           0      -28.229738   -5.841302    1.185673
    142          1           0      -30.098961   -1.699433    1.248703
    143          1           0      -30.360601   -1.091119   -1.726506
    144          1           0      -31.047295   -3.764133    0.498577
    145          1           0      -29.912143   -3.813116   -0.803254
    146          1           0      -31.376468   -2.846805   -1.035952
    147          1           0      -31.045108    1.360824   -0.259193
    148          1           0      -31.505203    0.040014    0.740526
    149          1           0      -33.436915    0.245334   -0.380680
    150          1           0      -32.774044   -0.656477   -1.781766
    151          1           0      -32.648161    1.069514   -1.856599
    152          1           0      -27.701882    5.217420   -2.757010
    153          1           0      -28.431505    4.876127   -1.177956
    154          1           0      -28.778832    3.909493   -2.767595
    155          1           0      -22.571903    3.789033   -1.437930
    156          1           0      -19.665045    5.761173    1.009912
    157          1           0      -20.808490    5.414356    2.301185
    158          1           0      -21.241983    6.667456    1.047249
 ---------------------------------------------------------------------

 SCF Done:  E(RCAM-B3LYP) =  -4069.79897846     A.U. after   19 cycles

 Excitation energies and oscillator strengths:

 Excited State   1:      Singlet-A      1.6534 eV  749.88 nm  f=0.3230  <S**2>=0.000
     309 -> 316       -0.15928
     311 -> 313        0.68720
     309 <- 316       -0.10334
 This state for optimization and/or second-order correction.
 Total Energy, E(TD-HF/TD-DFT) =  -4069.73821759
 Copying the excited state density for this state as the 1-particle RhoCI density.

 Excited State   2:      Singlet-A      1.6562 eV  748.61 nm  f=0.4254  <S**2>=0.000
     310 -> 315        0.15580
     312 -> 314        0.68711
     310 <- 315        0.10105

 Excited State   3:      Singlet-A      2.2510 eV  550.79 nm  f=0.1083  <S**2>=0.000
     309 -> 313        0.63838
     311 -> 316        0.28836

 Excited State   4:      Singlet-A      2.2760 eV  544.75 nm  f=0.0762  <S**2>=0.000
     310 -> 314        0.61914
     312 -> 315       -0.32533

 Excited State   5:      Singlet-A      2.9975 eV  413.63 nm  f=0.0000  <S**2>=0.000
     312 -> 313        0.70711

 The electronic state is 1-A.
 Alpha  occ. eigenvalues --  -46.89321 -46.87521 -19.25380 -19.24935 -19.19440
 Alpha  occ. eigenvalues --  -19.19394 -19.19092 -19.18758 -19.18570 -19.17091
 Alpha  occ. eigenvalues --  -14.42739 -14.42485 -14.41759 -14.41563 -14.39743
 Alpha  occ. eigenvalues --  -14.38884 -14.38869 -14.38758 -10.39153 -10.38547
 Alpha  occ. eigenvalues --  -10.35518 -10.35231 -10.34959 -10.33551 -10.32310
 Alpha  occ. eigenvalues --  -10.32147 -10.32073 -10.31951 -10.31669 -10.31375
 Alpha  occ. eigenvalues --  -10.31021 -10.30891 -10.30828 -10.30583 -10.30518
 Alpha  occ. eigenvalues --  -10.30028 -10.29580 -10.29491 -10.29285 -10.29024
 Alpha  occ. eigenvalues --  -10.29011 -10.28999 -10.28852 -10.28734 -10.28620
 Alpha  occ. eigenvalues --  -10.28532 -10.28498 -10.28494 -10.28408 -10.28115
 Alpha  occ. eigenvalues --  -10.28076 -10.27895 -10.27875 -10.27806 -10.27776
 Alpha  occ. eigenvalues --  -10.27689 -10.27654 -10.27626 -10.27574 -10.27474
 Alpha  occ. eigenvalues --  -10.27387 -10.27386 -10.27315 -10.27252 -10.27181
 Alpha  occ. eigenvalues --  -10.27138 -10.27135 -10.26937 -10.26910 -10.26802
 Alpha  occ. eigenvalues --  -10.26782 -10.26689 -10.26550 -10.26406 -10.26370
 Alpha  occ. eigenvalues --  -10.26275 -10.26184 -10.26049 -10.25960 -10.25851
 Alpha  occ. eigenvalues --  -10.25754 -10.25594 -10.25545 -10.25117 -10.25035
 Alpha  occ. eigenvalues --  -10.23993  -3.17809  -3.16301  -1.92682  -1.92286
 Alpha  occ. eigenvalues --   -1.92091  -1.91203  -1.90772  -1.90599  -1.16930
 Alpha  occ. eigenvalues --   -1.16100  -1.10701  -1.10458  -1.08297  -1.07498
 Alpha  occ. eigenvalues --   -1.07160  -1.06695  -1.05459  -1.04854  -1.04038
 Alpha  occ. eigenvalues --   -1.03941  -1.03119  -1.02838  -1.01979  -1.00368
 Alpha  occ. eigenvalues --   -0.93353  -0.91953  -0.89362  -0.89101  -0.88989
 Alpha  occ. eigenvalues --   -0.88798  -0.88681  -0.88624  -0.87925  -0.87191
 Alpha  occ. eigenvalues --   -0.86838  -0.86665  -0.86587  -0.86100  -0.84391
 Alpha  occ. eigenvalues --   -0.84346  -0.83988  -0.83716  -0.82746  -0.82548
 Alpha  occ. eigenvalues --   -0.82367  -0.81600  -0.81233  -0.80983  -0.80655
 Alpha  occ. eigenvalues --   -0.80183  -0.78405  -0.78038  -0.77771  -0.77575
 Alpha  occ. eigenvalues --   -0.77236  -0.76507  -0.76230  -0.76015  -0.75265
 Alpha  occ. eigenvalues --   -0.75221  -0.73239  -0.73047  -0.71829  -0.71697
 Alpha  occ. eigenvalues --   -0.69652  -0.69465  -0.69029  -0.68976  -0.68335
 Alpha  occ. eigenvalues --   -0.67624  -0.66925  -0.66201  -0.66101  -0.65819
 Alpha  occ. eigenvalues --   -0.65383  -0.64973  -0.64680  -0.64642  -0.64205
 Alpha  occ. eigenvalues --   -0.63557  -0.62136  -0.62103  -0.60271  -0.60011
 Alpha  occ. eigenvalues --   -0.59640  -0.59136  -0.59133  -0.59061  -0.58900
 Alpha  occ. eigenvalues --   -0.58345  -0.58042  -0.58038  -0.57514  -0.57213
 Alpha  occ. eigenvalues --   -0.56787  -0.56570  -0.56298  -0.56102  -0.55192
 Alpha  occ. eigenvalues --   -0.55043  -0.54775  -0.54583  -0.54267  -0.54258
 Alpha  occ. eigenvalues --   -0.53684  -0.53483  -0.53471  -0.53370  -0.52956
 Alpha  occ. eigenvalues --   -0.52871  -0.52734  -0.52565  -0.52308  -0.52305
 Alpha  occ. eigenvalues --   -0.51851  -0.51783  -0.51688  -0.51394  -0.51346
 Alpha  occ. eigenvalues --   -0.51222  -0.51059  -0.50667  -0.50391  -0.50270
 Alpha  occ. eigenvalues --   -0.50004  -0.49988  -0.49922  -0.49752  -0.49679
 Alpha  occ. eigenvalues --   -0.49547  -0.49294  -0.48964  -0.48959  -0.48795
 Alpha  occ. eigenvalues --   -0.48780  -0.48365  -0.48280  -0.48129  -0.48101
 Alpha  occ. eigenvalues --   -0.47770  -0.47760  -0.47618  -0.47519  -0.47167
 Alpha  occ. eigenvalues --   -0.47140  -0.46945  -0.46924  -0.46807  -0.46561
 Alpha  occ. eigenvalues --   -0.46539  -0.46475  -0.46252  -0.46052  -0.45874
 Alpha  occ. eigenvalues --   -0.45728  -0.45518  -0.45475  -0.45292  -0.45202
 Alpha  occ. eigenvalues --   -0.44970  -0.44714  -0.44458  -0.44245  -0.44004
 Alpha  occ. eigenvalues --   -0.43958  -0.43771  -0.43733  -0.43575  -0.43493
 Alpha  occ. eigenvalues --   -0.43431  -0.43354  -0.42866  -0.42838  -0.42748
 Alpha  occ. eigenvalues --   -0.42572  -0.42294  -0.42135  -0.42024  -0.41941
 Alpha  occ. eigenvalues --   -0.41827  -0.41762  -0.41645  -0.41572  -0.41143
 Alpha  occ. eigenvalues --   -0.41087  -0.40897  -0.40780  -0.40658  -0.40431
 Alpha  occ. eigenvalues --   -0.40062  -0.39933  -0.39841  -0.39366  -0.39098
 Alpha  occ. eigenvalues --   -0.38521  -0.38457  -0.38081  -0.37496  -0.37421
 Alpha  occ. eigenvalues --   -0.37111  -0.36953  -0.36683  -0.36599  -0.36586
 Alpha  occ. eigenvalues --   -0.36359  -0.35854  -0.34395  -0.34236  -0.34028
 Alpha  occ. eigenvalues --   -0.33840  -0.33296  -0.32707  -0.31541  -0.31479
 Alpha  occ. eigenvalues --   -0.31264  -0.31186  -0.30669  -0.30495  -0.30120
 Alpha  occ. eigenvalues --   -0.29447  -0.29249  -0.29115  -0.24626  -0.24469
 Alpha  occ. eigenvalues --   -0.21134  -0.20769
 Alpha virt. eigenvalues --   -0.09088  -0.08600  -0.01808  -0.01564   0.00389
 Alpha virt. eigenvalues --    0.00910   0.01455   0.02340   0.02483   0.03395
 Alpha virt. eigenvalues --    0.04639   0.04869   0.05345   0.05392   0.06093

 Mulliken charges:
               1
     1  Mg  11.998573
     2  C    5.966788
     3  C    5.999414
     4  C    6.037059
     5  C    6.009088
     6  N    6.986559
     7  C    6.047028
     8  C    5.982302
     9  C    6.007002
    10  C    5.975617
    11  C    6.005074
    12  C    5.997469
    13  C    6.001905
    14  H    0.996143
    15  N    7.009311
    16  C    5.957731
    17  C    5.975033
    18  C    5.992190
    19  C    5.946929
    20  C    6.007003
    21  C    5.986424
    22  O    7.973774
    23  C    6.006504
    24  N    7.019300
    25  C    5.956552
    26  C    6.008933
    27  C    5.995112
    28  C    6.020720
    29  C    6.001591
    30  C    5.991363
    31  C    5.998903
    32  N    6.992772
    33  C    6.029227
    34  C    6.036141
    35  C    5.998763
    36  C    6.039848
    37  C    5.993696
    38  C    6.013595
    39  O    8.026974
    40  C    6.003775
    41  C    6.001510
    42  O    8.003777
    43  O    8.001710
    44  C    5.998561
    45  H    0.981706
    46  H    0.996590
    47  H    1.015193
    48  H    1.003288
    49  H    0.999189
    50  H    0.999873
    51  H    0.984082
    52  H    1.002149
    53  H    1.005897
    54  H    0.992706
    55  H    1.007924
    56  H    1.002805
    57  H    0.979169
    58  H    0.980316
    59  H    0.982419
    60  H    0.984865
    61  H    0.994030
    62  H    0.994242
    63  H    1.001532
    64  H    1.001473
    65  H    0.986437
    66  H    0.993789
    67  H    1.007852
    68  H    0.994880
    69  H    1.016913
    70  H    1.007879
    71  H    1.005033
    72  H    0.999413
    73  H    1.024385
    74  H    1.019809
    75  H    1.018118
    76  H    1.007523
    77  H    1.005177
    78  H    1.005336
    79  H    1.000263
    80  Mg  12.000028
    81  C    5.996566
    82  C    5.999406
    83  C    6.004243
    84  C    6.000620
    85  N    6.997351
    86  C    6.002984
    87  C    5.999542
    88  C    6.000225
    89  C    5.998914
    90  C    6.000255
    91  C    5.999850
    92  C    5.999293
    93  H    1.000242
    94  N    7.001375
    95  C    5.996031
    96  C    5.997132
    97  C    6.000050
    98  C    5.994141
    99  C    6.000631
   100  C    5.998778
   101  O    7.998451
   102  C    6.000223
   103  N    7.001177
   104  C    5.995050
   105  C    6.001396
   106  C    5.998698
   107  C    6.003143
   108  C    5.999935
   109  C    5.999255
   110  C    6.000197
   111  N    6.999768
   112  C    6.003724
   113  C    6.002492
   114  C    6.000223
   115  C    6.004258
   116  C    6.000041
   117  C    6.001530
   118  O    8.003527
   119  C    6.000839
   120  C    6.000434
   121  O    8.000110
   122  O    8.000229
   123  C    5.999961
   124  H    0.998459
   125  H    0.999568
   126  H    1.001855
   127  H    0.999479
   128  H    1.000034
   129  H    0.999397
   130  H    0.998443
   131  H    1.000294
   132  H    0.999725
   133  H    1.000858
   134  H    1.001115
   135  H    0.999271
   136  H    0.997975
   137  H    0.998368
   138  H    0.997910
   139  H    0.998908
   140  H    0.998805
   141  H    0.999220
   142  H    0.999811
   143  H    1.000709
   144  H    1.000242
   145  H    1.000488
   146  H    0.998979
   147  H    0.999363
   148  H    1.001013
   149  H    1.000544
   150  H    1.000633
   151  H    0.999712
   152  H    1.001776
   153  H    1.001795
   154  H    1.001508
   155  H    1.000600
   156  H    1.000508
   157  H    1.000431
   158  H    0.999886
 Sum of Mulliken charges = 624.00000

 Dipole moment (field-independent basis, Debye):
    X=             -2.2071    Y=             -9.7416    Z=              1.8060  Tot=             10.1505
 Quadrupole moment (field-independent basis, Debye-Ang):
   XX=            -78.7119   YY=             -7.4305   ZZ=              5.2584
   XY=           -300.0813   XZ=             61.3759   YZ=             -3.2807

 Normal termination of Gaussian 16 at Wed Sep 22 23:46:01 2021.
