 Gaussian 16, Revision A.03,
 Gaussian 16:  ES64L-G16RevA.03 25-Dec-2016

 ----------------------------------------------------------
 #p cam-b3lyp/Def2SVP td=(nstates=5) density=(transition=1)
 ----------------------------------------------------------

 --------------------------------
 TDDFT excited states in gaussian
 --------------------------------
 Symbolic Z-matrix:
 Charge =  0 Multiplicity = 1

                         Standard orientation:
 ---------------------------------------------------------------------
 Center     Atomic      Atomic             Coordinates (Angstroms)
 Number     Number       Type             X           Y           Z
 ---------------------------------------------------------------------
      1         12           0       24.239032   -0.780448    0.307875
      2          6           0       24.152586    2.286030   -1.330007
      3          6           0       23.981150    0.864883    3.302746
      4          6           0       24.651078   -3.784175    1.864175
      5          6           0       24.752770   -2.243124   -2.890559
      6          7           0       24.120431    1.322751    0.916840
      7          6           0       23.979510    2.372679    0.048179
      8          6           0       23.754173    3.618912    0.907899
      9          6           0       24.006022    3.183027    2.340327
     10          6           0       24.000064    1.667361    2.176939
     11          6           0       25.208189    3.702771    3.082045
     12          6           0       22.358934    4.373075    0.678138
     13          6           0       22.022412    5.509758    1.696152
     14          1           0       22.456468    6.960204    1.358708
     15          7           0       24.155819   -1.365335    2.297300
     16          6           0       24.076338   -0.550153    3.378367
     17          6           0       24.148668   -1.397841    4.539944
     18          6           0       24.349100   -2.743094    4.111771
     19          6           0       24.419825   -2.689123    2.720931
     20          6           0       24.034414   -0.812524    5.913672
     21          6           0       24.611188   -3.973269    5.028635
     22          8           0       25.107914   -4.999251    4.599457
     23          6           0       24.404674   -3.962442    6.467769
     24          7           0       24.616090   -2.611137   -0.390508
     25          6           0       24.706324   -3.742197    0.420227
     26          6           0       24.919708   -5.032608   -0.390032
     27          6           0       24.661346   -4.532848   -1.852119
     28          6           0       24.629861   -3.022306   -1.687394
     29          6           0       26.124131   -5.819456   -0.075167
     30          6           0       23.395692   -5.125824   -2.686760
     31          6           0       23.611536   -5.859384   -4.013844
     32          7           0       24.481696   -0.120794   -1.772511
     33          6           0       24.694716   -0.845001   -2.911801
     34          6           0       24.765744    0.001288   -4.055008
     35          6           0       24.474237    1.299119   -3.484815
     36          6           0       24.399798    1.160126   -2.070494
     37          6           0       24.968894   -0.481421   -5.440571
     38          6           0       24.200026    2.676156   -3.825685
     39          8           0       24.083726    3.280926   -4.873462
     40          6           0       23.983025    3.388757   -2.364551
     41          6           0       24.823694    4.604742   -2.221521
     42          8           0       26.033675    4.583205   -2.164842
     43          8           0       24.092646    5.730771   -2.147586
     44          6           0       24.813776    6.998985   -1.745390
     45          1           0       23.845390    1.379114    4.256759
     46          1           0       24.786924   -4.732417    2.388095
     47          1           0       24.890061   -2.878103   -3.768495
     48          1           0       24.559655    4.250197    0.532949
     49          1           0       23.178336    3.513452    2.967409
     50          1           0       25.818251    2.800046    3.073803
     51          1           0       24.957895    4.088805    4.070296
     52          1           0       25.773464    4.430838    2.499854
     53          1           0       21.649329    3.552159    0.783528
     54          1           0       22.325769    4.789897   -0.327781
     55          1           0       22.483942    5.330519    2.666406
     56          1           0       20.944148    5.504779    1.855539
     57          1           0       23.811173    0.250872    6.005465
     58          1           0       25.023594   -0.918230    6.357918
     59          1           0       23.362285   -1.373711    6.563135
     60          1           0       24.801250   -3.145760    7.070099
     61          1           0       24.678961   -4.880212    6.987763
     62          1           0       23.317097   -3.972181    6.536648
     63          1           0       24.033832   -5.564461   -0.041894
     64          1           0       25.636535   -4.762042   -2.281444
     65          1           0       25.969951   -6.816684    0.337866
     66          1           0       26.709630   -5.245611    0.643636
     67          1           0       26.758822   -6.025651   -0.936906
     68          1           0       22.732548   -4.289432   -2.906818
     69          1           0       22.734852   -5.822362   -2.169394
     70          1           0       23.367578   -5.279328   -4.904237
     71          1           0       23.195671   -6.865739   -4.053874
     72          1           0       24.686629   -5.988228   -4.139791
     73          1           0       25.774941   -1.214772   -5.435425
     74          1           0       25.148252    0.329102   -6.146450
     75          1           0       24.126369   -1.130093   -5.682468
     76          1           0       22.947235    3.726663   -2.361512
     77          1           0       24.134679    7.768987   -2.110789
     78          1           0       25.785020    7.018727   -2.239342
     79          1           0       24.844685    7.007017   -0.655758
     80         12           0      -25.028592   -0.393804   -0.275274
     81          6           0      -22.461363    2.040054   -0.283815
     82          6           0      -26.527602    1.398327    2.030029
     83          6           0      -26.740549   -3.141892    0.394983
     84          6           0      -22.814680   -2.376999   -2.223069
     85          7           0      -24.538363    1.639725    0.594157
     86          6           0      -23.564862    2.456611    0.417277
     87          6           0      -23.871081    3.824943    1.060231
     88          6           0      -24.949853    3.455017    2.200816
     89          6           0      -25.341060    2.025429    1.638311
     90          6           0      -24.419194    3.411146    3.688318
     91          6           0      -24.545956    4.825766   -0.015772
     92          6           0      -24.284701    6.364940    0.060514
     93          1           0      -23.992172    6.949903    1.491283
     94          7           0      -26.585049   -0.761297    0.888909
     95          6           0      -27.103930    0.185085    1.759698
     96          6           0      -28.286075   -0.422777    2.466301
     97          6           0      -28.358397   -1.777863    1.934907
     98          6           0      -27.232315   -2.024575    1.030188
     99          6           0      -29.062490    0.354605    3.512376
    100          6           0      -29.414111   -2.818360    2.237533
    101          8           0      -29.410372   -3.974933    1.793543
    102          6           0      -30.556967   -2.440109    3.089760
    103          7           0      -24.860467   -2.519727   -0.941859
    104          6           0      -25.690959   -3.421168   -0.449849
    105          6           0      -25.591478   -4.771302   -1.289906
    106          6           0      -24.239799   -4.474867   -2.139716
    107          6           0      -23.971113   -3.017153   -1.775646
    108          6           0      -25.571557   -6.065041   -0.410457
    109          6           0      -24.285698   -4.682744   -3.689144
    110          6           0      -23.480605   -5.826572   -4.250318
    111          7           0      -23.112906   -0.181347   -1.303161
    112          6           0      -22.390455   -1.100435   -2.037825
    113          6           0      -21.135299   -0.569456   -2.372215
    114          6           0      -21.108725    0.647992   -1.665884
    115          6           0      -22.291669    0.858526   -0.997733
    116          6           0      -20.090148   -1.171938   -3.168378
    117          6           0      -20.287554    1.782767   -1.492280
    118          8           0      -19.188889    2.185252   -1.962516
    119          6           0      -21.029634    2.619772   -0.355722
    120          6           0      -20.977269    4.070537   -0.666982
    121          8           0      -21.475100    4.655458   -1.626751
    122          8           0      -20.325109    4.712573    0.432592
    123          6           0      -20.145486    6.167514    0.347357
    124          1           0      -27.056127    2.091679    2.688231
    125          1           0      -27.354466   -4.024898    0.580913
    126          1           0      -22.175518   -2.963986   -2.886924
    127          1           0      -22.992489    4.107235    1.639725
    128          1           0      -25.696092    4.248160    2.232070
    129          1           0      -23.330364    3.421238    3.732873
    130          1           0      -24.706014    2.487141    4.190059
    131          1           0      -24.826498    4.298485    4.172787
    132          1           0      -25.624487    4.674597   -0.063369
    133          1           0      -24.249953    4.494890   -1.011461
    134          1           0      -25.105246    6.969124   -0.327816
    135          1           0      -23.316664    6.538280   -0.411189
    136          1           0      -30.140679    0.250383    3.385728
    137          1           0      -28.820318    1.417313    3.524819
    138          1           0      -28.701263    0.082230    4.503748
    139          1           0      -30.221034   -2.094416    4.067790
    140          1           0      -31.224475   -3.293123    3.212196
    141          1           0      -31.208531   -1.664198    2.687850
    142          1           0      -26.389278   -4.867736   -2.026239
    143          1           0      -23.365358   -4.958594   -1.701956
    144          1           0      -25.527836   -5.804328    0.647154
    145          1           0      -24.727207   -6.594594   -0.852222
    146          1           0      -26.443127   -6.651708   -0.697882
    147          1           0      -23.898868   -3.772728   -4.148299
    148          1           0      -25.322728   -4.781983   -4.010428
    149          1           0      -23.161805   -6.366395   -3.359643
    150          1           0      -22.593917   -5.405493   -4.725631
    151          1           0      -24.065040   -6.505194   -4.870380
    152          1           0      -20.552649   -1.489741   -4.102447
    153          1           0      -19.729716   -2.142857   -2.828393
    154          1           0      -19.314711   -0.433806   -3.374058
    155          1           0      -20.527190    2.422299    0.591736
    156          1           0      -19.562168    6.534507    1.192249
    157          1           0      -21.112379    6.644128    0.509843
    158          1           0      -19.594641    6.407035   -0.561591
 ---------------------------------------------------------------------

 SCF Done:  E(RCAM-B3LYP) =  -4069.78195403     A.U. after   19 cycles

 Excitation energies and oscillator strengths:

 Excited State   1:      Singlet-A      1.6981 eV  730.13 nm  f=0.3976  <S**2>=0.000
     310 -> 316       -0.17921
     312 -> 313        0.68579
     310 <- 316       -0.10835
 This state for optimization and/or second-order correction.
 Total Energy, E(TD-HF/TD-DFT) =  -4069.71954981
 Copying the excited state density for this state as the 1-particle RhoCI density.

 Excited State   2:      Singlet-A      1.7997 eV  688.91 nm  f=0.3665  <S**2>=0.000
     309 -> 315       -0.21210
     311 -> 314        0.67498
     309 <- 315       -0.10953

 Excited State   3:      Singlet-A      2.2224 eV  557.88 nm  f=0.0897  <S**2>=0.000
     310 -> 313        0.63202
     312 -> 316        0.30128

 Excited State   4:      Singlet-A      2.2245 eV  557.36 nm  f=0.0852  <S**2>=0.000
     309 -> 314        0.62908
     311 -> 315        0.30784

 Excited State   5:      Singlet-A      3.2021 eV  387.19 nm  f=0.0000  <S**2>=0.000
     312 -> 314        0.70710

 The electronic state is 1-A.
 Alpha  occ. eigenvalues --  -46.89420 -46.87860 -19.24401 -19.23971 -19.20248
 Alpha  occ. eigenvalues --  -19.19064 -19.19024 -19.18642 -19.18481 -19.18240
 Alpha  occ. eigenvalues --  -14.42696 -14.42180 -14.42025 -14.41751 -14.40000
 Alpha  occ. eigenvalues --  -14.39031 -14.38595 -14.38421 -10.39321 -10.37948
 Alpha  occ. eigenvalues --  -10.35569 -10.35152 -10.34629 -10.34517 -10.32089
 Alpha  occ. eigenvalues --  -10.31581 -10.31551 -10.31117 -10.31110 -10.31096
 Alpha  occ. eigenvalues --  -10.30993 -10.30779 -10.30736 -10.30647 -10.30425
 Alpha  occ. eigenvalues --  -10.30336 -10.30276 -10.29788 -10.29680 -10.29590
 Alpha  occ. eigenvalues --  -10.29358 -10.28977 -10.28690 -10.28673 -10.28599
 Alpha  occ. eigenvalues --  -10.28420 -10.28413 -10.28334 -10.28279 -10.28121
 Alpha  occ. eigenvalues --  -10.28094 -10.28055 -10.28038 -10.27866 -10.27623
 Alpha  occ. eigenvalues --  -10.27568 -10.27517 -10.27516 -10.27513 -10.27504
 Alpha  occ. eigenvalues --  -10.27496 -10.27243 -10.27198 -10.27122 -10.27040
 Alpha  occ. eigenvalues --  -10.27016 -10.27002 -10.26936 -10.26925 -10.26846
 Alpha  occ. eigenvalues --  -10.26840 -10.26410 -10.26404 -10.26256 -10.26234
 Alpha  occ. eigenvalues --  -10.26140 -10.26054 -10.25937 -10.25853 -10.25839
 Alpha  occ. eigenvalues --  -10.25732 -10.25573 -10.25475 -10.25432 -10.25223
 Alpha  occ. eigenvalues --  -10.24669  -3.17873  -3.16520  -1.92777  -1.92339
 Alpha  occ. eigenvalues --   -1.92159  -1.91435  -1.90977  -1.90822  -1.15828
 Alpha  occ. eigenvalues --   -1.13995  -1.10967  -1.09472  -1.09448  -1.07316
 Alpha  occ. eigenvalues --   -1.06755  -1.06714  -1.05810  -1.05239  -1.05223
 Alpha  occ. eigenvalues --   -1.04093  -1.03517  -1.03299  -1.02335  -1.01497
 Alpha  occ. eigenvalues --   -0.92985  -0.92416  -0.89526  -0.89197  -0.88693
 Alpha  occ. eigenvalues --   -0.88638  -0.88316  -0.87926  -0.87580  -0.87554
 Alpha  occ. eigenvalues --   -0.87404  -0.86957  -0.86937  -0.86686  -0.84624
 Alpha  occ. eigenvalues --   -0.84302  -0.84001  -0.83688  -0.82751  -0.82626
 Alpha  occ. eigenvalues --   -0.82454  -0.82086  -0.81538  -0.81394  -0.80725
 Alpha  occ. eigenvalues --   -0.80697  -0.78996  -0.78777  -0.77779  -0.77741
 Alpha  occ. eigenvalues --   -0.77265  -0.76997  -0.75917  -0.75876  -0.75265
 Alpha  occ. eigenvalues --   -0.75132  -0.73251  -0.72762  -0.72284  -0.71799
 Alpha  occ. eigenvalues --   -0.69371  -0.68959  -0.68928  -0.68623  -0.68210
 Alpha  occ. eigenvalues --   -0.67953  -0.67254  -0.66901  -0.65952  -0.65688
 Alpha  occ. eigenvalues --   -0.65623  -0.65531  -0.65407  -0.64661  -0.64628
 Alpha  occ. eigenvalues --   -0.64187  -0.61407  -0.61285  -0.60563  -0.60514
 Alpha  occ. eigenvalues --   -0.60174  -0.59737  -0.59316  -0.58937  -0.58812
 Alpha  occ. eigenvalues --   -0.58375  -0.57941  -0.57769  -0.57366  -0.57283
 Alpha  occ. eigenvalues --   -0.57024  -0.56345  -0.55794  -0.55737  -0.55508
 Alpha  occ. eigenvalues --   -0.55392  -0.54766  -0.54557  -0.54476  -0.53822
 Alpha  occ. eigenvalues --   -0.53788  -0.53559  -0.53248  -0.53141  -0.52993
 Alpha  occ. eigenvalues --   -0.52951  -0.52634  -0.52575  -0.52500  -0.52328
 Alpha  occ. eigenvalues --   -0.52268  -0.52059  -0.51582  -0.51297  -0.51138
 Alpha  occ. eigenvalues --   -0.50974  -0.50945  -0.50825  -0.50576  -0.50477
 Alpha  occ. eigenvalues --   -0.50375  -0.50286  -0.49914  -0.49894  -0.49588
 Alpha  occ. eigenvalues --   -0.49420  -0.49328  -0.49229  -0.49121  -0.48975
 Alpha  occ. eigenvalues --   -0.48815  -0.48694  -0.48606  -0.48409  -0.48213
 Alpha  occ. eigenvalues --   -0.48072  -0.47837  -0.47704  -0.47643  -0.47432
 Alpha  occ. eigenvalues --   -0.47341  -0.47086  -0.47059  -0.46820  -0.46820
 Alpha  occ. eigenvalues --   -0.46574  -0.46521  -0.46329  -0.46234  -0.46132
 Alpha  occ. eigenvalues --   -0.46048  -0.45614  -0.45368  -0.45134  -0.45095
 Alpha  occ. eigenvalues --   -0.44940  -0.44781  -0.44389  -0.44255  -0.44223
 Alpha  occ. eigenvalues --   -0.43994  -0.43957  -0.43940  -0.43665  -0.43586
 Alpha  occ. eigenvalues --   -0.43364  -0.43354  -0.43015  -0.42792  -0.42686
 Alpha  occ. eigenvalues --   -0.42634  -0.41964  -0.41941  -0.41808  -0.41716
 Alpha  occ. eigenvalues --   -0.41607  -0.41491  -0.41265  -0.41201  -0.41086
 Alpha  occ. eigenvalues --   -0.40946  -0.40782  -0.40675  -0.40362  -0.40317
 Alpha  occ. eigenvalues --   -0.40181  -0.40082  -0.39488  -0.39259  -0.39057
 Alpha  occ. eigenvalues --   -0.38771  -0.38515  -0.37858  -0.37754  -0.37427
 Alpha  occ. eigenvalues --   -0.37243  -0.36868  -0.36475  -0.36272  -0.36135
 Alpha  occ. eigenvalues --   -0.36034  -0.35666  -0.34505  -0.34050  -0.33966
 Alpha  occ. eigenvalues --   -0.33930  -0.33577  -0.32966  -0.31822  -0.31321
 Alpha  occ. eigenvalues --   -0.31291  -0.30950  -0.30531  -0.30274  -0.30190
 Alpha  occ. eigenvalues --   -0.29701  -0.29322  -0.29030  -0.24188  -0.24187
 Alpha  occ. eigenvalues --   -0.21699  -0.21110
 Alpha virt. eigenvalues --   -0.08779  -0.08640  -0.02676  -0.01857  -0.00263
 Alpha virt. eigenvalues --    0.00634   0.02231   0.02298   0.02748   0.03396
 Alpha virt. eigenvalues --    0.04552   0.04719   0.05261   0.05481   0.05580

 Mulliken charges:
               1
     1  Mg  12.003241
     2  C    6.023385
     3  C    5.978927
     4  C    5.976623
     5  C    6.016917
     6  N    7.005793
     7  C    5.962227
     8  C    6.007549
     9  C    5.992628
    10  C    6.029560
    11  C    5.998906
    12  C    6.005354
    13  C    5.998602
    14  H    1.000952
    15  N    6.991529
    16  C    6.042203
    17  C    6.028377
    18  C    6.008918
    19  C    6.040786
    20  C    5.993210
    21  C    6.012644
    22  O    8.021822
    23  C    5.991886
    24  N    6.995673
    25  C    6.045856
    26  C    5.989661
    27  C    6.015449
    28  C    5.961616
    29  C    5.997475
    30  C    6.003034
    31  C    6.000351
    32  N    7.006165
    33  C    5.961339
    34  C    5.968325
    35  C    5.996381
    36  C    5.963946
    37  C    6.002873
    38  C    5.984329
    39  O    7.968725
    40  C    5.996400
    41  C    5.996400
    42  O    7.995282
    43  O    7.998933
    44  C    6.001463
    45  H    1.008412
    46  H    1.009037
    47  H    0.988305
    48  H    1.000373
    49  H    0.999641
    50  H    0.995055
    51  H    1.000494
    52  H    1.013202
    53  H    0.993217
    54  H    1.005597
    55  H    0.992610
    56  H    0.997511
    57  H    1.022408
    58  H    1.023456
    59  H    1.021876
    60  H    1.005129
    61  H    1.014819
    62  H    1.007794
    63  H    0.999402
    64  H    0.997376
    65  H    1.002252
    66  H    0.996580
    67  H    1.013502
    68  H    1.003338
    69  H    0.987481
    70  H    1.004578
    71  H    0.994059
    72  H    0.997915
    73  H    0.979995
    74  H    0.984835
    75  H    0.977575
    76  H    0.992759
    77  H    0.996325
    78  H    0.998173
    79  H    0.993203
    80  Mg  11.999994
    81  C    5.999977
    82  C    5.999985
    83  C    6.000003
    84  C    6.000021
    85  N    6.999998
    86  C    6.000054
    87  C    5.999980
    88  C    6.000033
    89  C    5.999958
    90  C    6.000008
    91  C    5.999998
    92  C    6.000000
    93  H    0.999990
    94  N    7.000022
    95  C    5.999970
    96  C    5.999964
    97  C    6.000009
    98  C    5.999948
    99  C    6.000010
   100  C    5.999957
   101  O    7.999960
   102  C    6.000016
   103  N    6.999997
   104  C    5.999955
   105  C    6.000042
   106  C    5.999972
   107  C    6.000036
   108  C    5.999992
   109  C    5.999991
   110  C    6.000003
   111  N    6.999994
   112  C    6.000029
   113  C    6.000059
   114  C    5.999943
   115  C    6.000042
   116  C    6.000000
   117  C    6.000067
   118  O    8.000065
   119  C    5.999989
   120  C    6.000017
   121  O    8.000027
   122  O    7.999990
   123  C    5.999998
   124  H    0.999986
   125  H    0.999987
   126  H    1.000022
   127  H    0.999987
   128  H    0.999993
   129  H    0.999964
   130  H    0.999986
   131  H    0.999983
   132  H    1.000021
   133  H    1.000007
   134  H    1.000020
   135  H    1.000010
   136  H    0.999967
   137  H    0.999967
   138  H    0.999937
   139  H    0.999972
   140  H    0.999964
   141  H    0.999996
   142  H    1.000001
   143  H    0.999985
   144  H    0.999987
   145  H    0.999982
   146  H    1.000000
   147  H    1.000010
   148  H    1.000028
   149  H    0.999985
   150  H    1.000013
   151  H    1.000021
   152  H    1.000062
   153  H    1.000035
   154  H    1.000045
   155  H    0.999988
   156  H    0.999990
   157  H    1.000005
   158  H    1.000031
 Sum of Mulliken charges = 624.00000

 Dipole moment (field-independent basis, Debye):
    X=             -0.0548    Y=             -3.6987    Z=             10.4785  Tot=             11.1122
 Quadrupole moment (field-independent basis, Debye-Ang):
   XX=             -4.4872   YY=              1.9957   ZZ=              6.3188
   XY=            -90.7943   XZ=            256.7567   YZ=             -9.0631

 Normal termination of Gaussian 16 at Thu Sep 23 00:03:19 2021.
