 Gaussian 16, Revision A.03,
 Gaussian 16:  ES64L-G16RevA.03 25-Dec-2016

 -----------------------------------
 #p cam-b3lyp/Def2SVP td=(nstates=5)
 -----------------------------------

 --------------------------------
 TDDFT excited states in gaussian
 --------------------------------
 Symbolic Z-matrix:
 Charge =  0 Multiplicity = 1

                         Standard orientation:
 ---------------------------------------------------------------------
 Center     Atomic      Atomic             Coordinates (Angstroms)
 Number     Number       Type             X           Y           Z
 ---------------------------------------------------------------------
      1         12           0       -9.272037   -0.876942    0.489398
      2          6           0       -9.962236    2.416665   -0.178102
      3          6           0       -7.087173    0.140806    2.928247
      4          6           0       -8.477007   -4.196716    1.101918
      5          6           0      -11.144724   -1.831496   -2.267816
      6          7           0       -8.532811    1.086884    1.284317
      7          6           0       -9.061695    2.279351    0.879682
      8          6           0       -8.494961    3.383623    1.632789
      9          6           0       -7.411575    2.767352    2.503712
     10          6           0       -7.632298    1.215825    2.228371
     11          6           0       -5.923536    3.208356    2.281916
     12          6           0       -9.591814    4.158340    2.439794
     13          6           0       -9.379726    5.699794    2.631913
     14          1           0       -7.926807    6.213918    2.650312
     15          7           0       -8.033213   -1.866556    1.926392
     16          6           0       -7.225704   -1.234298    2.856229
     17          6           0       -6.512694   -2.259654    3.644736
     18          6           0       -6.920506   -3.560207    3.117434
     19          6           0       -7.860949   -3.257896    2.024412
     20          6           0       -5.518455   -1.960299    4.754778
     21          6           0       -6.569065   -4.925816    3.660029
     22          8           0       -7.072349   -5.932958    3.132002
     23          6           0       -5.624063   -5.174797    4.775393
     24          7           0       -9.672308   -2.753919   -0.485925
     25          6           0       -9.280681   -3.935687   -0.000946
     26          6           0       -9.917332   -5.088844   -0.794437
     27          6           0      -11.008680   -4.365944   -1.757299
     28          6           0      -10.638682   -2.877924   -1.423130
     29          6           0       -8.836863   -5.927409   -1.544346
     30          6           0      -12.496396   -4.653775   -1.415737
     31          6           0      -13.266529   -5.491103   -2.447805
     32          7           0      -10.304879    0.064955   -1.010715
     33          6           0      -11.020213   -0.447118   -2.095662
     34          6           0      -11.619723    0.657060   -2.877404
     35          6           0      -11.189283    1.781581   -2.134440
     36          6           0      -10.395613    1.372628   -1.029503
     37          6           0      -12.473517    0.576593   -4.045336
     38          6           0      -11.342391    3.247005   -2.023811
     39          8           0      -11.990973    4.033086   -2.661900
     40          6           0      -10.512758    3.706758   -0.772405
     41          6           0       -9.577030    4.760458   -1.196551
     42          8           0       -8.592068    4.478516   -1.897898
     43          8           0       -9.807756    5.986008   -0.650694
     44          6           0       -8.818092    7.039992   -0.850292
     45          1           0       -6.400093    0.497967    3.698200
     46          1           0       -8.185700   -5.233096    1.286301
     47          1           0      -11.825221   -2.185060   -3.045100
     48          1           0       -8.034327    4.070551    0.921990
     49          1           0       -7.667218    2.834216    3.561839
     50          1           0       -5.650532    3.963069    1.543652
     51          1           0       -5.342501    2.315973    2.050505
     52          1           0       -5.428116    3.539334    3.195000
     53          1           0       -9.762745    3.660918    3.394571
     54          1           0      -10.566684    3.938841    2.004826
     55          1           0       -9.859777    6.030103    3.553512
     56          1           0       -9.770498    6.288437    1.802441
     57          1           0       -5.467859   -0.903844    5.016039
     58          1           0       -4.504831   -2.229894    4.456822
     59          1           0       -5.871892   -2.380974    5.695999
     60          1           0       -5.662893   -6.245103    4.975714
     61          1           0       -5.860270   -4.613712    5.680492
     62          1           0       -4.636417   -4.801743    4.503770
     63          1           0      -10.510589   -5.667588   -0.086361
     64          1           0      -10.815218   -4.544022   -2.815051
     65          1           0       -8.934418   -7.001713   -1.387398
     66          1           0       -7.834742   -5.653712   -1.213151
     67          1           0       -8.948086   -5.626054   -2.586210
     68          1           0      -13.087602   -3.750324   -1.270970
     69          1           0      -12.601004   -5.173395   -0.463040
     70          1           0      -12.571536   -6.143654   -2.976383
     71          1           0      -13.710349   -4.806825   -3.170230
     72          1           0      -14.078920   -5.976959   -1.908946
     73          1           0      -13.044213    1.489338   -4.215085
     74          1           0      -13.177804   -0.254261   -4.008218
     75          1           0      -11.828871    0.579817   -4.924389
     76          1           0      -11.309107    4.068602   -0.121136
     77          1           0       -8.717740    7.371084   -1.884290
     78          1           0       -7.860402    6.765323   -0.408253
     79          1           0       -9.136739    7.940080   -0.324781
     80         12           0        9.325154   -0.648452   -0.174381
     81          6           0        8.048439    2.701602   -0.184609
     82          6           0       12.219417    0.587622    1.235190
     83          6           0       10.674555   -3.566899   -0.754891
     84          6           0        6.405014   -1.591463   -1.784954
     85          7           0       10.175293    1.522420    0.212746
     86          6           0        9.386947    2.641125    0.224014
     87          6           0       10.119824    3.783147    0.977722
     88          6           0       11.503342    3.127284    1.391284
     89          6           0       11.352357    1.636401    0.915431
     90          6           0       12.831295    3.759904    0.796704
     91          6           0        9.367216    4.349793    2.211134
     92          6           0        9.318644    5.827150    2.375789
     93          1           0       10.312260    6.816346    1.655088
     94          7           0       11.240132   -1.438403    0.178231
     95          6           0       12.276414   -0.837617    0.892497
     96          6           0       13.429295   -1.757969    0.922686
     97          6           0       12.925091   -3.024206    0.434384
     98          6           0       11.571428   -2.718541   -0.083922
     99          6           0       14.799061   -1.439647    1.440981
    100          6           0       13.580779   -4.424036    0.376162
    101          8           0       12.962610   -5.498393    0.221510
    102          6           0       15.019147   -4.514775    0.693866
    103          7           0        8.657121   -2.251230   -1.160281
    104          6           0        9.477814   -3.347047   -1.313252
    105          6           0        8.691873   -4.561903   -1.879692
    106          6           0        7.204941   -3.991527   -1.855245
    107          6           0        7.414579   -2.515018   -1.567318
    108          6           0        9.124258   -5.142215   -3.287724
    109          6           0        6.242769   -4.611396   -0.854331
    110          6           0        5.057847   -5.390924   -1.462085
    111          7           0        7.493330    0.272829   -0.688694
    112          6           0        6.413085   -0.238788   -1.368000
    113          6           0        5.425038    0.820574   -1.610460
    114          6           0        6.024358    1.959596   -1.102701
    115          6           0        7.273009    1.587159   -0.556754
    116          6           0        4.109969    0.740036   -2.312895
    117          6           0        5.781127    3.343930   -0.909929
    118          8           0        4.759329    4.061135   -1.107591
    119          6           0        7.027133    3.872785   -0.336735
    120          6           0        7.514086    5.044490   -1.145677
    121          8           0        7.970327    4.982639   -2.235931
    122          8           0        7.421877    6.162536   -0.425998
    123          6           0        7.530527    7.424145   -1.076415
    124          1           0       13.173111    0.895083    1.669603
    125          1           0       10.974184   -4.594630   -0.974450
    126          1           0        5.525230   -1.882856   -2.361060
    127          1           0       10.255259    4.581299    0.246912
    128          1           0       11.602393    3.124266    2.476354
    129          1           0       12.701709    4.701298    0.263502
    130          1           0       13.199166    3.062126    0.043044
    131          1           0       13.588137    3.858341    1.575499
    132          1           0        9.788098    4.008617    3.157666
    133          1           0        8.314787    4.068085    2.228621
    134          1           0        9.508293    6.086774    3.417733
    135          1           0        8.309423    6.146689    2.117523
    136          1           0       15.537490   -1.661958    0.670963
    137          1           0       14.965840   -2.103902    2.288954
    138          1           0       14.837323   -0.447098    1.891040
    139          1           0       15.558050   -3.945506   -0.063573
    140          1           0       15.279385   -5.563109    0.549692
    141          1           0       15.224138   -4.281443    1.738327
    142          1           0        8.773816   -5.338180   -1.118246
    143          1           0        6.793744   -4.148772   -2.852337
    144          1           0        9.970619   -4.580060   -3.680756
    145          1           0        8.293954   -5.226215   -3.989943
    146          1           0        9.413058   -6.181447   -3.129772
    147          1           0        5.882602   -3.962356   -0.056003
    148          1           0        6.808353   -5.363095   -0.304735
    149          1           0        4.077102   -5.226325   -1.016275
    150          1           0        5.199313   -6.435509   -1.183419
    151          1           0        4.912851   -5.263336   -2.533988
    152          1           0        3.742872   -0.282999   -2.399849
    153          1           0        4.228969    1.017452   -3.360164
    154          1           0        3.461782    1.476153   -1.837572
    155          1           0        6.773953    4.199619    0.671476
    156          1           0        6.593663    7.568400   -1.616384
    157          1           0        8.293843    7.397642   -1.854211
    158          1           0        7.620646    8.234426   -0.352446
 ---------------------------------------------------------------------

 SCF Done:  E(RCAM-B3LYP) =  -4069.84630852     A.U. after   18 cycles

 Excitation energies and oscillator strengths:

 Excited State   1:      Singlet-A      1.7193 eV  721.15 nm  f=0.5886  <S**2>=0.000
     309 -> 316        0.17099
     311 -> 313        0.66683
     312 -> 314        0.16466
     309 <- 316        0.10282
 This state for optimization and/or second-order correction.
 Total Energy, E(TD-HF/TD-DFT) =  -4069.78312703
 Copying the excited state density for this state as the 1-particle RhoCI density.

 Excited State   2:      Singlet-A      1.7302 eV  716.58 nm  f=0.2300  <S**2>=0.000
     310 -> 315        0.18306
     311 -> 313       -0.16541
     312 -> 314        0.66226
     310 <- 315        0.10559

 Excited State   3:      Singlet-A      2.2104 eV  560.92 nm  f=0.1198  <S**2>=0.000
     309 -> 313        0.64991
     311 -> 316       -0.26624

 Excited State   4:      Singlet-A      2.2547 eV  549.89 nm  f=0.0883  <S**2>=0.000
     310 -> 314        0.62533
     312 -> 315       -0.31614

 Excited State   5:      Singlet-A      2.6963 eV  459.83 nm  f=0.0000  <S**2>=0.000
     312 -> 313        0.70694

 The electronic state is 1-A.
 Alpha  occ. eigenvalues --  -46.88932 -46.88855 -19.25902 -19.25029 -19.19676
 Alpha  occ. eigenvalues --  -19.19232 -19.19048 -19.19004 -19.18566 -19.18359
 Alpha  occ. eigenvalues --  -14.42077 -14.41802 -14.41684 -14.41639 -14.39717
 Alpha  occ. eigenvalues --  -14.39579 -14.39463 -14.39212 -10.39493 -10.39071
 Alpha  occ. eigenvalues --  -10.34978 -10.34956 -10.34810 -10.34732 -10.32234
 Alpha  occ. eigenvalues --  -10.31725 -10.31534 -10.31045 -10.30979 -10.30890
 Alpha  occ. eigenvalues --  -10.30605 -10.30583 -10.30567 -10.30376 -10.30178
 Alpha  occ. eigenvalues --  -10.30080 -10.29985 -10.29892 -10.29715 -10.29568
 Alpha  occ. eigenvalues --  -10.29319 -10.29243 -10.29129 -10.28776 -10.28770
 Alpha  occ. eigenvalues --  -10.28661 -10.28429 -10.28390 -10.28364 -10.28295
 Alpha  occ. eigenvalues --  -10.28225 -10.28220 -10.28129 -10.27954 -10.27884
 Alpha  occ. eigenvalues --  -10.27729 -10.27586 -10.27524 -10.27504 -10.27405
 Alpha  occ. eigenvalues --  -10.27376 -10.27362 -10.27195 -10.27162 -10.27074
 Alpha  occ. eigenvalues --  -10.27018 -10.26960 -10.26809 -10.26749 -10.26468
 Alpha  occ. eigenvalues --  -10.26448 -10.26216 -10.26111 -10.26037 -10.25995
 Alpha  occ. eigenvalues --  -10.25991 -10.25976 -10.25942 -10.25896 -10.25598
 Alpha  occ. eigenvalues --  -10.25505 -10.25443 -10.25343 -10.25218 -10.25211
 Alpha  occ. eigenvalues --  -10.25201  -3.17510  -3.17277  -1.92393  -1.92199
 Alpha  occ. eigenvalues --   -1.91980  -1.91809  -1.91717  -1.91585  -1.18646
 Alpha  occ. eigenvalues --   -1.16368  -1.10905  -1.09734  -1.08914  -1.08326
 Alpha  occ. eigenvalues --   -1.08107  -1.07056  -1.05080  -1.04852  -1.04021
 Alpha  occ. eigenvalues --   -1.03789  -1.03346  -1.02554  -1.01806  -1.00928
 Alpha  occ. eigenvalues --   -0.93596  -0.92445  -0.89143  -0.89075  -0.88580
 Alpha  occ. eigenvalues --   -0.88383  -0.88256  -0.87757  -0.87682  -0.87164
 Alpha  occ. eigenvalues --   -0.86902  -0.86696  -0.86307  -0.86238  -0.84578
 Alpha  occ. eigenvalues --   -0.83899  -0.83548  -0.83535  -0.82641  -0.82281
 Alpha  occ. eigenvalues --   -0.82081  -0.81862  -0.81738  -0.81171  -0.80526
 Alpha  occ. eigenvalues --   -0.80516  -0.78410  -0.78320  -0.77730  -0.77506
 Alpha  occ. eigenvalues --   -0.77273  -0.77180  -0.76377  -0.76192  -0.75220
 Alpha  occ. eigenvalues --   -0.74859  -0.73193  -0.72563  -0.71513  -0.71470
 Alpha  occ. eigenvalues --   -0.69414  -0.69187  -0.68990  -0.68337  -0.67989
 Alpha  occ. eigenvalues --   -0.67525  -0.66892  -0.66274  -0.65937  -0.65789
 Alpha  occ. eigenvalues --   -0.65425  -0.64986  -0.64950  -0.64871  -0.64496
 Alpha  occ. eigenvalues --   -0.64291  -0.63055  -0.62673  -0.60354  -0.59883
 Alpha  occ. eigenvalues --   -0.59809  -0.59562  -0.59356  -0.59179  -0.59163
 Alpha  occ. eigenvalues --   -0.58703  -0.58231  -0.58187  -0.57780  -0.57262
 Alpha  occ. eigenvalues --   -0.56519  -0.56129  -0.56018  -0.55905  -0.55320
 Alpha  occ. eigenvalues --   -0.55204  -0.54936  -0.54660  -0.53918  -0.53769
 Alpha  occ. eigenvalues --   -0.53466  -0.53417  -0.53273  -0.53040  -0.52899
 Alpha  occ. eigenvalues --   -0.52817  -0.52741  -0.52429  -0.52394  -0.52187
 Alpha  occ. eigenvalues --   -0.51674  -0.51643  -0.51591  -0.51503  -0.51473
 Alpha  occ. eigenvalues --   -0.51237  -0.51138  -0.51119  -0.50187  -0.50095
 Alpha  occ. eigenvalues --   -0.50049  -0.49949  -0.49900  -0.49805  -0.49324
 Alpha  occ. eigenvalues --   -0.49278  -0.49111  -0.48961  -0.48775  -0.48599
 Alpha  occ. eigenvalues --   -0.48507  -0.48416  -0.48349  -0.48261  -0.48061
 Alpha  occ. eigenvalues --   -0.47927  -0.47724  -0.47439  -0.47428  -0.47165
 Alpha  occ. eigenvalues --   -0.47062  -0.46929  -0.46792  -0.46646  -0.46268
 Alpha  occ. eigenvalues --   -0.46241  -0.46127  -0.46069  -0.45835  -0.45825
 Alpha  occ. eigenvalues --   -0.45661  -0.45469  -0.45300  -0.45154  -0.44882
 Alpha  occ. eigenvalues --   -0.44804  -0.44560  -0.44491  -0.44465  -0.44293
 Alpha  occ. eigenvalues --   -0.43771  -0.43668  -0.43569  -0.43466  -0.43449
 Alpha  occ. eigenvalues --   -0.43133  -0.43055  -0.42969  -0.42706  -0.42635
 Alpha  occ. eigenvalues --   -0.42561  -0.42179  -0.42083  -0.41885  -0.41778
 Alpha  occ. eigenvalues --   -0.41635  -0.41466  -0.41459  -0.41193  -0.41119
 Alpha  occ. eigenvalues --   -0.40986  -0.40876  -0.40647  -0.40311  -0.40282
 Alpha  occ. eigenvalues --   -0.40101  -0.39944  -0.39697  -0.39518  -0.39159
 Alpha  occ. eigenvalues --   -0.38200  -0.38163  -0.37929  -0.37436  -0.37164
 Alpha  occ. eigenvalues --   -0.36970  -0.36648  -0.36583  -0.36556  -0.36304
 Alpha  occ. eigenvalues --   -0.35983  -0.35867  -0.34703  -0.34148  -0.34006
 Alpha  occ. eigenvalues --   -0.33904  -0.33080  -0.32927  -0.31620  -0.31461
 Alpha  occ. eigenvalues --   -0.31113  -0.30870  -0.30779  -0.30653  -0.30619
 Alpha  occ. eigenvalues --   -0.30029  -0.29502  -0.29478  -0.24135  -0.23848
 Alpha  occ. eigenvalues --   -0.21326  -0.20769
 Alpha virt. eigenvalues --   -0.08956  -0.08259  -0.01690  -0.01493  -0.00211
 Alpha virt. eigenvalues --    0.00575   0.01905   0.02332   0.02576   0.03122
 Alpha virt. eigenvalues --    0.04530   0.05232   0.05307   0.06045   0.06097

 Mulliken charges:
               1
     1  Mg   0.814821
     2  C   -0.017214
     3  C   -0.070411
     4  C   -0.047254
     5  C   -0.073662
     6  N   -0.243905
     7  C   -0.051225
     8  C   -0.008513
     9  C    0.010356
    10  C   -0.041533
    11  C    0.066019
    12  C    0.061666
    13  C   -0.064407
    14  H    0.002140
    15  N   -0.380987
    16  C    0.179935
    17  C   -0.151809
    18  C   -0.018814
    19  C    0.094783
    20  C    0.107336
    21  C   -0.005847
    22  O   -0.232387
    23  C    0.074431
    24  N   -0.261026
    25  C    0.046032
    26  C   -0.044046
    27  C   -0.048540
    28  C    0.017442
    29  C    0.079085
    30  C    0.027501
    31  C    0.003019
    32  N   -0.356675
    33  C    0.120938
    34  C   -0.150000
    35  C   -0.006678
    36  C    0.104810
    37  C    0.121488
    38  C    0.014329
    39  O   -0.145997
    40  C    0.025618
    41  C    0.218310
    42  O   -0.248587
    43  O   -0.321623
    44  C    0.184374
    45  H   -0.049053
    46  H    0.000886
    47  H   -0.028793
    48  H    0.023196
    49  H    0.007885
    50  H    0.028156
    51  H    0.010586
    52  H    0.005075
    53  H   -0.006589
    54  H    0.001501
    55  H    0.031237
    56  H    0.046814
    57  H    0.002183
    58  H    0.041360
    59  H    0.029801
    60  H    0.037553
    61  H    0.020658
    62  H    0.030844
    63  H    0.014268
    64  H    0.014613
    65  H    0.025539
    66  H    0.024780
    67  H    0.008049
    68  H    0.007576
    69  H    0.001645
    70  H    0.019605
    71  H    0.010904
    72  H    0.018577
    73  H    0.025132
    74  H    0.026278
    75  H    0.033692
    76  H    0.036771
    77  H    0.048425
    78  H    0.035561
    79  H    0.031993
    80  Mg   0.830872
    81  C   -0.003558
    82  C   -0.022744
    83  C   -0.061410
    84  C   -0.094109
    85  N   -0.252752
    86  C   -0.054217
    87  C    0.021069
    88  C   -0.061067
    89  C    0.018222
    90  C    0.057390
    91  C    0.049078
    92  C   -0.081502
    93  H    0.000812
    94  N   -0.364171
    95  C    0.090898
    96  C   -0.170530
    97  C   -0.041475
    98  C    0.129259
    99  C    0.140634
   100  C    0.009633
   101  O   -0.229702
   102  C    0.054891
   103  N   -0.351626
   104  C    0.076945
   105  C   -0.074980
   106  C   -0.035754
   107  C    0.084528
   108  C    0.075239
   109  C    0.058330
   110  C   -0.010584
   111  N   -0.321524
   112  C    0.100309
   113  C   -0.161432
   114  C   -0.007600
   115  C    0.104459
   116  C    0.130312
   117  C    0.044879
   118  O   -0.216286
   119  C    0.039377
   120  C    0.154854
   121  O   -0.173448
   122  O   -0.300201
   123  C    0.179645
   124  H   -0.038513
   125  H   -0.005517
   126  H   -0.028805
   127  H    0.021656
   128  H    0.016177
   129  H    0.019332
   130  H    0.019462
   131  H    0.018276
   132  H    0.008748
   133  H    0.007535
   134  H    0.022027
   135  H    0.037053
   136  H    0.036434
   137  H    0.019871
   138  H    0.011575
   139  H    0.032349
   140  H    0.020515
   141  H    0.044967
   142  H    0.021356
   143  H    0.001032
   144  H    0.029719
   145  H    0.014309
   146  H    0.016500
   147  H    0.016050
   148  H   -0.002458
   149  H    0.007338
   150  H    0.010654
   151  H    0.017606
   152  H    0.009095
   153  H    0.034660
   154  H    0.049380
   155  H    0.039868
   156  H    0.029152
   157  H    0.038890
   158  H    0.042742
 Sum of Mulliken charges =  -0.00000

 Dipole moment (field-independent basis, Debye):
    X=              2.1173    Y=              0.4087    Z=              6.0576  Tot=              6.4300
 Quadrupole moment (field-independent basis, Debye-Ang):
   XX=           -483.7317   YY=           -516.9722   ZZ=           -499.1637
   XY=             35.4792   XZ=              5.8577   YZ=             40.2923

 Normal termination of Gaussian 16 at Wed Sep 15 22:24:41 2021.
