 Gaussian 16, Revision A.03,
 Gaussian 16:  ES64L-G16RevA.03 25-Dec-2016

 -----------------------------------
 #p cam-b3lyp/Def2SVP td=(nstates=5)
 -----------------------------------

 --------------------------------
 TDDFT excited states in gaussian
 --------------------------------
 Symbolic Z-matrix:
 Charge =  0 Multiplicity = 1

                         Standard orientation:
 ---------------------------------------------------------------------
 Center     Atomic      Atomic             Coordinates (Angstroms)
 Number     Number       Type             X           Y           Z
 ---------------------------------------------------------------------
      1         12           0       11.491022    0.275864    0.524582
      2          6           0        9.414280   -2.415839    0.622974
      3          6           0       14.155445   -1.910569   -0.268417
      4          6           0       13.197787    2.916305   -0.602011
      5          6           0        8.630594    2.463815    0.795599
      6          7           0       11.705442   -1.871862    0.254647
      7          6           0       10.802612   -2.793823    0.314697
      8          6           0       11.397736   -4.246717    0.322393
      9          6           0       12.959808   -4.036794    0.328166
     10          6           0       13.006182   -2.483419    0.122893
     11          6           0       13.726861   -4.670115    1.489790
     12          6           0       10.807093   -5.165372   -0.904035
     13          6           0       10.251540   -4.468560   -2.135528
     14          1           0       10.103256   -5.224392   -3.455982
     15          7           0       13.411975    0.459583   -0.326592
     16          6           0       14.367907   -0.511165   -0.506123
     17          6           0       15.501281    0.049115   -1.103568
     18          6           0       15.258081    1.467820   -1.263503
     19          6           0       13.877698    1.680436   -0.754007
     20          6           0       16.763297   -0.770522   -1.300848
     21          6           0       16.272834    2.456658   -1.865412
     22          8           0       17.376470    2.002001   -2.241804
     23          6           0       16.066902    3.865538   -2.038895
     24          7           0       10.925525    2.433282   -0.013166
     25          6           0       11.901416    3.261970   -0.254332
     26          6           0       11.452219    4.750882   -0.242576
     27          6           0        9.996984    4.620382    0.257665
     28          6           0        9.765106    3.061683    0.398860
     29          6           0       12.256744    5.631938    0.643532
     30          6           0        8.941608    5.343906   -0.704705
     31          6           0        8.236623    6.636566   -0.120639
     32          7           0        9.451159    0.147684    0.793425
     33          6           0        8.408796    1.073828    0.924323
     34          6           0        7.135539    0.327227    1.168822
     35          6           0        7.510679   -1.014406    1.010101
     36          6           0        8.911552   -1.086548    0.750789
     37          6           0        5.805766    0.842893    1.433229
     38          6           0        6.950125   -2.286868    0.980454
     39          8           0        5.803162   -2.723740    1.155538
     40          6           0        8.153517   -3.259495    0.824459
     41          6           0        8.136241   -4.241587    2.019900
     42          8           0        8.144058   -5.460145    1.979889
     43          8           0        8.114615   -3.585817    3.231839
     44          6           0        8.057494   -4.405799    4.447822
     45          1           0       14.898242   -2.658573   -0.552813
     46          1           0       13.752755    3.834718   -0.803441
     47          1           0        7.807140    3.135710    1.046028
     48          1           0       11.188471   -4.653604    1.312072
     49          1           0       13.428476   -4.413818   -0.581377
     50          1           0       14.165585   -3.887715    2.108734
     51          1           0       14.549236   -5.299015    1.146823
     52          1           0       13.154546   -5.351849    2.118977
     53          1           0       10.078180   -5.778779   -0.373869
     54          1           0       11.533933   -5.818424   -1.387554
     55          1           0       10.938544   -3.633827   -2.272156
     56          1           0        9.301412   -4.041026   -1.814756
     57          1           0       17.703977   -0.432124   -0.865665
     58          1           0       16.887112   -0.965198   -2.366410
     59          1           0       16.608425   -1.762807   -0.877629
     60          1           0       15.895168    4.468646   -1.147518
     61          1           0       15.132796    4.049129   -2.568829
     62          1           0       16.814960    4.342718   -2.671221
     63          1           0       11.475014    5.310964   -1.177305
     64          1           0        9.861504    4.965807    1.282638
     65          1           0       12.956051    6.290138    0.128169
     66          1           0       12.963944    5.044331    1.230019
     67          1           0       11.600283    6.232026    1.273443
     68          1           0        8.114709    4.653011   -0.874543
     69          1           0        9.365467    5.724079   -1.633190
     70          1           0        8.247498    7.427991   -0.869007
     71          1           0        8.861147    7.021166    0.685784
     72          1           0        7.202993    6.335859    0.051484
     73          1           0        5.981399    1.778852    1.964061
     74          1           0        5.248950    0.159776    2.075641
     75          1           0        5.299816    0.886872    0.469225
     76          1           0        7.997874   -4.015333    0.055009
     77          1           0        7.621355   -3.804337    5.245623
     78          1           0        8.996031   -4.755773    4.877360
     79          1           0        7.523758   -5.347867    4.318987
     80         12           0      -10.699830    0.727409    0.295858
     81          6           0      -12.135489   -2.329895   -0.513348
     82          6           0       -7.817189   -0.225768   -1.531816
     83          6           0       -9.786293    3.932256    0.053866
     84          6           0      -13.861547    1.758601    1.465840
     85          7           0      -10.190799   -1.003438   -1.219776
     86          6           0      -10.860905   -2.199215   -1.122779
     87          6           0      -10.166745   -3.281176   -1.888990
     88          6           0       -8.683244   -2.697372   -1.992805
     89          6           0       -8.864901   -1.191146   -1.590229
     90          6           0       -7.569688   -3.437032   -1.093043
     91          6           0      -10.958806   -3.607591   -3.257761
     92          6           0      -10.764060   -4.945667   -3.765542
     93          1           0      -10.251471   -4.986451   -5.220772
     94          7           0       -8.976342    1.712420   -0.435745
     95          6           0       -7.891594    1.138318   -1.155988
     96          6           0       -6.926814    2.195185   -1.408819
     97          6           0       -7.455092    3.422856   -0.940706
     98          6           0       -8.770851    3.043799   -0.324419
     99          6           0       -5.694487    1.962207   -2.200779
    100          6           0       -6.748927    4.830231   -1.130348
    101          8           0       -5.662812    4.833930   -1.707696
    102          6           0       -7.204589    6.072365   -0.372360
    103          7           0      -11.749471    2.534691    0.616186
    104          6           0      -11.067999    3.706635    0.552906
    105          6           0      -12.027401    5.020421    0.844356
    106          6           0      -13.288010    4.289895    1.514275
    107          6           0      -12.996680    2.781352    1.235713
    108          6           0      -11.430131    6.104569    1.819300
    109          6           0      -14.625044    4.723389    0.910247
    110          6           0      -15.729155    5.350515    1.794830
    111          7           0      -12.509240   -0.176155    0.712321
    112          6           0      -13.663411    0.354894    1.210588
    113          6           0      -14.609901   -0.703150    1.433168
    114          6           0      -14.024498   -1.793384    0.685790
    115          6           0      -12.760146   -1.369126    0.242675
    116          6           0      -15.988601   -0.561922    2.010657
    117          6           0      -14.291590   -3.125158    0.183926
    118          8           0      -15.168812   -3.886670    0.457736
    119          6           0      -13.018245   -3.613195   -0.610861
    120          6           0      -12.272677   -4.803551    0.031801
    121          8           0      -11.935131   -4.858265    1.194830
    122          8           0      -12.140660   -5.843306   -0.911617
    123          6           0      -11.626029   -7.089580   -0.430033
    124          1           0       -6.931795   -0.604374   -2.045261
    125          1           0       -9.649041    4.982396   -0.211618
    126          1           0      -14.816754    2.118299    1.852692
    127          1           0       -9.976571   -4.165345   -1.279685
    128          1           0       -8.374029   -2.749915   -3.037328
    129          1           0       -6.829425   -3.804703   -1.803512
    130          1           0       -7.979685   -4.248998   -0.493245
    131          1           0       -7.127517   -2.665336   -0.462244
    132          1           0      -10.534563   -2.896809   -3.966723
    133          1           0      -11.968766   -3.295310   -2.990757
    134          1           0      -11.734542   -5.436031   -3.699423
    135          1           0      -10.010061   -5.464256   -3.173447
    136          1           0       -5.494484    0.898693   -2.330097
    137          1           0       -4.826146    2.330757   -1.654080
    138          1           0       -5.775239    2.398353   -3.196725
    139          1           0       -8.194803    6.425467   -0.661996
    140          1           0       -6.456374    6.848075   -0.538573
    141          1           0       -7.181567    5.828264    0.689768
    142          1           0      -12.277271    5.370555   -0.156804
    143          1           0      -13.315434    4.327501    2.603499
    144          1           0      -11.238431    7.026171    1.270524
    145          1           0      -10.489988    5.740070    2.235004
    146          1           0      -12.175548    6.265671    2.598823
    147          1           0      -15.074279    3.927721    0.316373
    148          1           0      -14.543842    5.430390    0.084779
    149          1           0      -16.628866    4.760458    1.971446
    150          1           0      -16.066259    6.226431    1.240019
    151          1           0      -15.341423    5.624097    2.776850
    152          1           0      -16.305383   -1.557380    2.322790
    153          1           0      -16.784540   -0.426279    1.279089
    154          1           0      -16.093893    0.212538    2.769953
    155          1           0      -13.439035   -3.942321   -1.561386
    156          1           0      -11.177701   -7.477441   -1.345304
    157          1           0      -12.420882   -7.800008   -0.203551
    158          1           0      -10.979242   -6.936469    0.432940
 ---------------------------------------------------------------------

 SCF Done:  E(RCAM-B3LYP) =  -4069.75015749     A.U. after   19 cycles

 Excitation energies and oscillator strengths:

 Excited State   1:      Singlet-A      1.6832 eV  736.61 nm  f=0.5509  <S**2>=0.000
     310 -> 316        0.17039
     311 -> 313       -0.13475
     312 -> 314        0.67493
     310 <- 316        0.10615
 This state for optimization and/or second-order correction.
 Total Energy, E(TD-HF/TD-DFT) =  -4069.68830166
 Copying the excited state density for this state as the 1-particle RhoCI density.

 Excited State   2:      Singlet-A      1.7067 eV  726.46 nm  f=0.2864  <S**2>=0.000
     309 -> 315       -0.15792
     311 -> 313        0.67547
     312 -> 314        0.13439
     309 <- 315       -0.10078

 Excited State   3:      Singlet-A      2.2458 eV  552.08 nm  f=0.0861  <S**2>=0.000
     310 -> 314        0.63371
     312 -> 316       -0.29010

 Excited State   4:      Singlet-A      2.2509 eV  550.83 nm  f=0.1381  <S**2>=0.000
     309 -> 313        0.63886
     311 -> 315        0.27094

 Excited State   5:      Singlet-A      2.7207 eV  455.71 nm  f=0.0000  <S**2>=0.000
     312 -> 313        0.70699

 The electronic state is 1-A.
 Alpha  occ. eigenvalues --  -46.90332 -46.89766 -19.25074 -19.24925 -19.20690
 Alpha  occ. eigenvalues --  -19.20142 -19.19691 -19.18992 -19.18221 -19.17440
 Alpha  occ. eigenvalues --  -14.43217 -14.42273 -14.41980 -14.41941 -14.40557
 Alpha  occ. eigenvalues --  -14.40165 -14.39840 -14.39047 -10.40030 -10.39749
 Alpha  occ. eigenvalues --  -10.36375 -10.34740 -10.34277 -10.33981 -10.33022
 Alpha  occ. eigenvalues --  -10.31789 -10.31765 -10.31594 -10.31537 -10.31391
 Alpha  occ. eigenvalues --  -10.31283 -10.31159 -10.30931 -10.30768 -10.30759
 Alpha  occ. eigenvalues --  -10.30664 -10.30519 -10.30448 -10.30397 -10.29653
 Alpha  occ. eigenvalues --  -10.29621 -10.29320 -10.29289 -10.29266 -10.29045
 Alpha  occ. eigenvalues --  -10.28831 -10.28633 -10.28479 -10.28478 -10.28465
 Alpha  occ. eigenvalues --  -10.28448 -10.28411 -10.28317 -10.28183 -10.28098
 Alpha  occ. eigenvalues --  -10.28093 -10.28081 -10.27784 -10.27734 -10.27618
 Alpha  occ. eigenvalues --  -10.27577 -10.27559 -10.27174 -10.27110 -10.27087
 Alpha  occ. eigenvalues --  -10.27058 -10.27051 -10.26916 -10.26861 -10.26861
 Alpha  occ. eigenvalues --  -10.26725 -10.26603 -10.26427 -10.26419 -10.26409
 Alpha  occ. eigenvalues --  -10.26367 -10.26233 -10.26150 -10.26020 -10.25853
 Alpha  occ. eigenvalues --  -10.25670 -10.25667 -10.25630 -10.25421 -10.24930
 Alpha  occ. eigenvalues --  -10.24598  -3.18739  -3.18184  -1.93617  -1.93228
 Alpha  occ. eigenvalues --   -1.93034  -1.93006  -1.92693  -1.92451  -1.16169
 Alpha  occ. eigenvalues --   -1.16024  -1.10758  -1.10287  -1.09079  -1.08681
 Alpha  occ. eigenvalues --   -1.07634  -1.07382  -1.05052  -1.04878  -1.04528
 Alpha  occ. eigenvalues --   -1.03660  -1.02881  -1.02346  -1.02268  -1.01565
 Alpha  occ. eigenvalues --   -0.93020  -0.92206  -0.89689  -0.89441  -0.89195
 Alpha  occ. eigenvalues --   -0.89006  -0.88340  -0.88325  -0.88148  -0.87822
 Alpha  occ. eigenvalues --   -0.86839  -0.86392  -0.85784  -0.85316  -0.84666
 Alpha  occ. eigenvalues --   -0.84202  -0.84046  -0.83349  -0.82973  -0.82661
 Alpha  occ. eigenvalues --   -0.82528  -0.82216  -0.81483  -0.81116  -0.80292
 Alpha  occ. eigenvalues --   -0.80217  -0.78496  -0.77811  -0.77416  -0.77303
 Alpha  occ. eigenvalues --   -0.76991  -0.76713  -0.76374  -0.76086  -0.75299
 Alpha  occ. eigenvalues --   -0.74890  -0.73418  -0.72629  -0.71973  -0.71308
 Alpha  occ. eigenvalues --   -0.69585  -0.69228  -0.68928  -0.68432  -0.68399
 Alpha  occ. eigenvalues --   -0.67408  -0.66858  -0.66471  -0.66046  -0.65901
 Alpha  occ. eigenvalues --   -0.65677  -0.64891  -0.64780  -0.64565  -0.64457
 Alpha  occ. eigenvalues --   -0.64058  -0.63363  -0.62772  -0.60919  -0.59976
 Alpha  occ. eigenvalues --   -0.59623  -0.59442  -0.58963  -0.58956  -0.58541
 Alpha  occ. eigenvalues --   -0.58525  -0.58045  -0.57973  -0.57437  -0.57275
 Alpha  occ. eigenvalues --   -0.56348  -0.56305  -0.55636  -0.55626  -0.55290
 Alpha  occ. eigenvalues --   -0.54932  -0.54838  -0.54781  -0.54567  -0.53983
 Alpha  occ. eigenvalues --   -0.53886  -0.53512  -0.53268  -0.53198  -0.52899
 Alpha  occ. eigenvalues --   -0.52694  -0.52614  -0.52550  -0.52417  -0.52252
 Alpha  occ. eigenvalues --   -0.52070  -0.51700  -0.51607  -0.51508  -0.51270
 Alpha  occ. eigenvalues --   -0.51023  -0.50952  -0.50762  -0.50698  -0.50284
 Alpha  occ. eigenvalues --   -0.50185  -0.50064  -0.49921  -0.49679  -0.49586
 Alpha  occ. eigenvalues --   -0.49579  -0.49237  -0.49186  -0.49127  -0.49015
 Alpha  occ. eigenvalues --   -0.48842  -0.48730  -0.48572  -0.48392  -0.48313
 Alpha  occ. eigenvalues --   -0.47977  -0.47874  -0.47675  -0.47419  -0.47260
 Alpha  occ. eigenvalues --   -0.47203  -0.46999  -0.46916  -0.46853  -0.46767
 Alpha  occ. eigenvalues --   -0.46383  -0.46202  -0.46123  -0.45900  -0.45883
 Alpha  occ. eigenvalues --   -0.45741  -0.45653  -0.45267  -0.45184  -0.45029
 Alpha  occ. eigenvalues --   -0.44921  -0.44883  -0.44735  -0.44614  -0.44475
 Alpha  occ. eigenvalues --   -0.44467  -0.44050  -0.43936  -0.43841  -0.43607
 Alpha  occ. eigenvalues --   -0.43502  -0.43354  -0.43084  -0.42711  -0.42687
 Alpha  occ. eigenvalues --   -0.42684  -0.42661  -0.42451  -0.42270  -0.42162
 Alpha  occ. eigenvalues --   -0.42095  -0.42023  -0.41500  -0.41406  -0.41041
 Alpha  occ. eigenvalues --   -0.40966  -0.40924  -0.40862  -0.40730  -0.40408
 Alpha  occ. eigenvalues --   -0.39999  -0.39840  -0.39785  -0.39073  -0.38735
 Alpha  occ. eigenvalues --   -0.38626  -0.38138  -0.38053  -0.37859  -0.37680
 Alpha  occ. eigenvalues --   -0.37030  -0.36881  -0.36638  -0.36543  -0.36415
 Alpha  occ. eigenvalues --   -0.36185  -0.35564  -0.34833  -0.34738  -0.34312
 Alpha  occ. eigenvalues --   -0.34228  -0.34054  -0.33247  -0.31624  -0.31579
 Alpha  occ. eigenvalues --   -0.31219  -0.31097  -0.30932  -0.30189  -0.30187
 Alpha  occ. eigenvalues --   -0.29932  -0.29140  -0.29033  -0.24951  -0.24284
 Alpha  occ. eigenvalues --   -0.21678  -0.21135
 Alpha virt. eigenvalues --   -0.09537  -0.08751  -0.01907  -0.01615  -0.00042
 Alpha virt. eigenvalues --    0.00417   0.00615   0.01368   0.02190   0.02200
 Alpha virt. eigenvalues --    0.04620   0.04715   0.04991   0.05247   0.05416

 Mulliken charges:
               1
     1  Mg   0.825823
     2  C    0.014893
     3  C   -0.064128
     4  C   -0.034119
     5  C   -0.085131
     6  N   -0.280206
     7  C   -0.033789
     8  C   -0.003260
     9  C   -0.057049
    10  C    0.024085
    11  C    0.073121
    12  C    0.009611
    13  C   -0.045378
    14  H    0.044527
    15  N   -0.376609
    16  C    0.139168
    17  C   -0.133935
    18  C   -0.051310
    19  C    0.179000
    20  C    0.140064
    21  C    0.018689
    22  O   -0.238784
    23  C    0.063168
    24  N   -0.229431
    25  C   -0.016355
    26  C   -0.028422
    27  C    0.002424
    28  C    0.020946
    29  C    0.047848
    30  C    0.001273
    31  C   -0.010197
    32  N   -0.376986
    33  C    0.118760
    34  C   -0.164042
    35  C    0.035686
    36  C    0.123949
    37  C    0.127174
    38  C    0.044598
    39  O   -0.184561
    40  C   -0.043098
    41  C    0.174870
    42  O   -0.212680
    43  O   -0.339348
    44  C    0.178572
    45  H   -0.011543
    46  H   -0.063575
    47  H   -0.026307
    48  H    0.025680
    49  H    0.012375
    50  H    0.017791
    51  H    0.012557
    52  H    0.020213
    53  H    0.032754
    54  H    0.016796
    55  H    0.030248
    56  H    0.016159
    57  H    0.036968
    58  H    0.022625
    59  H   -0.021609
    60  H    0.042195
    61  H    0.019935
    62  H    0.027710
    63  H    0.019284
    64  H    0.008110
    65  H    0.006265
    66  H    0.010218
    67  H    0.018351
    68  H    0.012796
    69  H    0.017270
    70  H    0.010816
    71  H    0.016069
    72  H    0.026774
    73  H    0.022381
    74  H    0.042445
    75  H    0.050823
    76  H    0.029647
    77  H    0.033937
    78  H    0.019753
    79  H    0.044655
    80  Mg   0.828066
    81  C   -0.072422
    82  C   -0.057520
    83  C   -0.081879
    84  C   -0.081525
    85  N   -0.265457
    86  C   -0.081151
    87  C   -0.050723
    88  C   -0.081955
    89  C    0.007604
    90  C    0.060806
    91  C    0.092527
    92  C   -0.035368
    93  H    0.003087
    94  N   -0.385489
    95  C    0.157961
    96  C   -0.142298
    97  C   -0.067656
    98  C    0.178957
    99  C    0.143962
   100  C    0.031780
   101  O   -0.206806
   102  C    0.035152
   103  N   -0.335733
   104  C    0.049511
   105  C   -0.075289
   106  C    0.031342
   107  C    0.005904
   108  C    0.071096
   109  C    0.014033
   110  C   -0.000404
   111  N   -0.323385
   112  C    0.132918
   113  C   -0.155288
   114  C   -0.032936
   115  C    0.194980
   116  C    0.109655
   117  C    0.027370
   118  O   -0.144008
   119  C   -0.010088
   120  C    0.212623
   121  O   -0.191176
   122  O   -0.358194
   123  C    0.169295
   124  H   -0.013336
   125  H   -0.042102
   126  H   -0.033103
   127  H    0.008272
   128  H    0.010407
   129  H    0.022595
   130  H    0.031008
   131  H    0.021998
   132  H    0.012188
   133  H    0.014025
   134  H    0.040266
   135  H    0.028443
   136  H   -0.011611
   137  H    0.032558
   138  H    0.042061
   139  H    0.049846
   140  H    0.030739
   141  H    0.045539
   142  H    0.029864
   143  H    0.018066
   144  H    0.017493
   145  H    0.025542
   146  H    0.023863
   147  H    0.007676
   148  H   -0.005582
   149  H    0.018764
   150  H    0.012138
   151  H    0.011807
   152  H    0.026184
   153  H    0.020734
   154  H    0.022477
   155  H    0.044422
   156  H    0.028505
   157  H    0.035753
   158  H    0.050621
 Sum of Mulliken charges =  -0.00000

 Dipole moment (field-independent basis, Debye):
    X=              0.7826    Y=              6.8808    Z=              3.2224  Tot=              7.6382
 Quadrupole moment (field-independent basis, Debye-Ang):
   XX=           -592.5465   YY=           -476.8891   ZZ=           -510.2640
   XY=            -53.1560   XZ=             48.1044   YZ=             19.0614

 Normal termination of Gaussian 16 at Tue Sep 14 23:49:26 2021.
