 Gaussian 16, Revision A.03,
 Gaussian 16:  ES64L-G16RevA.03 25-Dec-2016

 ----------------------------------------------------------
 #p cam-b3lyp/Def2SVP td=(nstates=5) density=(transition=1)
 ----------------------------------------------------------

 --------------------------------
 TDDFT excited states in gaussian
 --------------------------------
 Symbolic Z-matrix:
 Charge =  0 Multiplicity = 1

                         Standard orientation:
 ---------------------------------------------------------------------
 Center     Atomic      Atomic             Coordinates (Angstroms)
 Number     Number       Type             X           Y           Z
 ---------------------------------------------------------------------
      1         12           0      -32.701467   -0.228592   -0.529826
      2          6           0      -29.447197    1.070863   -0.262735
      3          6           0      -31.428862   -3.354176    0.128465
      4          6           0      -35.821460   -1.217992   -0.047870
      5          6           0      -33.914576    3.084762   -0.939577
      6          7           0      -30.732389   -0.983551    0.127795
      7          6           0      -29.506220   -0.270847    0.168649
      8          6           0      -28.330594   -1.157293    0.214913
      9          6           0      -28.998280   -2.599629    0.240699
     10          6           0      -30.487199   -2.314466    0.122878
     11          6           0      -28.380942   -3.559069   -0.805431
     12          6           0      -27.497505   -1.028715    1.453604
     13          6           0      -28.249430   -0.781004    2.769814
     14          1           0      -27.750167   -1.402851    4.131882
     15          7           0      -33.561658   -2.060179   -0.057835
     16          6           0      -32.867688   -3.209964    0.042478
     17          6           0      -33.804831   -4.296866    0.178013
     18          6           0      -35.095474   -3.725359    0.056906
     19          6           0      -34.889095   -2.272533   -0.056030
     20          6           0      -33.454646   -5.738454    0.431903
     21          6           0      -36.415311   -4.496095    0.058567
     22          8           0      -36.435169   -5.705245    0.181149
     23          6           0      -37.803153   -3.927395    0.033936
     24          7           0      -34.569341    0.807437   -0.242186
     25          6           0      -35.762102    0.148985   -0.103912
     26          6           0      -36.975835    1.108195   -0.334695
     27          6           0      -36.293057    2.509098   -0.304378
     28          6           0      -34.846523    2.124939   -0.526110
     29          6           0      -37.744753    0.901404   -1.661991
     30          6           0      -36.297148    3.263348    1.108243
     31          6           0      -36.682059    4.698423    1.101404
     32          7           0      -31.931362    1.634360   -0.694115
     33          6           0      -32.518604    2.789221   -1.035669
     34          6           0      -31.482077    3.771642   -1.530987
     35          6           0      -30.261986    3.069106   -1.273560
     36          6           0      -30.584968    1.839988   -0.631980
     37          6           0      -31.641096    5.170463   -2.109155
     38          6           0      -28.838044    3.242213   -1.262078
     39          8           0      -28.150905    4.199511   -1.581397
     40          6           0      -28.253245    1.917651   -0.624717
     41          6           0      -27.625993    2.305110    0.698366
     42          8           0      -28.176998    2.677592    1.681035
     43          8           0      -26.274663    2.043791    0.618702
     44          6           0      -25.586634    2.098312    1.912521
     45          1           0      -31.000552   -4.358421    0.139396
     46          1           0      -36.860861   -1.549826   -0.068192
     47          1           0      -34.358840    4.047128   -1.202088
     48          1           0      -27.716283   -0.935527   -0.657745
     49          1           0      -28.999333   -3.109336    1.204127
     50          1           0      -28.206863   -4.438674   -0.185424
     51          1           0      -27.470520   -3.084983   -1.172316
     52          1           0      -29.079275   -3.835509   -1.595628
     53          1           0      -26.638035   -0.367187    1.341807
     54          1           0      -26.922156   -1.918377    1.710624
     55          1           0      -29.271857   -1.103437    2.569987
     56          1           0      -28.274129    0.307997    2.813146
     57          1           0      -34.076936   -6.159208    1.222423
     58          1           0      -32.387469   -5.829628    0.633827
     59          1           0      -33.687439   -6.234997   -0.510396
     60          1           0      -38.090851   -3.354887    0.915145
     61          1           0      -38.400212   -4.835934    0.113958
     62          1           0      -38.083799   -3.521187   -0.938420
     63          1           0      -37.679026    0.954054    0.483658
     64          1           0      -36.638829    3.176995   -1.093760
     65          1           0      -37.576051    1.769994   -2.298283
     66          1           0      -38.765056    0.559078   -1.489863
     67          1           0      -37.297967    0.060718   -2.191567
     68          1           0      -35.338694    3.151186    1.614559
     69          1           0      -37.026196    2.705132    1.695847
     70          1           0      -37.516788    4.919143    1.766372
     71          1           0      -36.914013    5.082493    0.107764
     72          1           0      -35.877964    5.334200    1.470984
     73          1           0      -31.074276    5.837121   -1.459224
     74          1           0      -32.706781    5.348605   -2.258162
     75          1           0      -31.094308    5.157538   -3.051912
     76          1           0      -27.538183    1.422910   -1.281619
     77          1           0      -26.229349    1.824473    2.749086
     78          1           0      -25.282643    3.142077    1.992164
     79          1           0      -24.659971    1.541328    1.776760
     80         12           0       32.398557    0.562808   -0.568053
     81          6           0       30.514106   -2.228921    0.607016
     82          6           0       30.593838    2.400665    1.524138
     83          6           0       34.711710    3.013646   -0.821461
     84          6           0       34.665391   -1.850590   -1.886071
     85          7           0       30.728360    0.168182    0.753445
     86          6           0       30.035866   -1.029142    1.036079
     87          6           0       28.861437   -0.834934    2.046203
     88          6           0       28.903373    0.703997    2.265145
     89          6           0       30.094326    1.157265    1.394432
     90          6           0       27.517960    1.260210    1.896397
     91          6           0       28.925903   -1.639028    3.415918
     92          6           0       27.858355   -2.704484    3.636522
     93          1           0       26.993037   -2.590121    4.908141
     94          7           0       32.599040    2.443330    0.131688
     95          6           0       31.707410    3.035368    1.025975
     96          6           0       32.033117    4.389782    1.223782
     97          6           0       33.140904    4.681519    0.449506
     98          6           0       33.557784    3.412003   -0.110769
     99          6           0       31.297429    5.461752    2.110644
    100          6           0       33.726239    6.069878    0.339347
    101          8           0       33.226222    7.049266    0.807255
    102          6           0       35.030935    6.197406   -0.590809
    103          7           0       34.431641    0.583422   -1.186329
    104          6           0       35.147737    1.748508   -1.229259
    105          6           0       36.626461    1.365679   -1.646537
    106          6           0       36.610010   -0.102716   -2.103008
    107          6           0       35.145058   -0.511747   -1.689239
    108          6           0       37.292702    2.337613   -2.578446
    109          6           0       37.609110   -0.902784   -1.276484
    110          6           0       38.129865   -2.183641   -1.872471
    111          7           0       32.462171   -1.598666   -0.861619
    112          6           0       33.422938   -2.401386   -1.428875
    113          6           0       32.992907   -3.752368   -1.434132
    114          6           0       31.784271   -3.794543   -0.699533
    115          6           0       31.591299   -2.447934   -0.280267
    116          6           0       33.726798   -4.928524   -1.940901
    117          6           0       30.684558   -4.585198   -0.130406
    118          8           0       30.450988   -5.793555   -0.267663
    119          6           0       29.786651   -3.612445    0.726429
    120          6           0       28.513151   -3.451271    0.076902
    121          8           0       28.394790   -2.742698   -0.950662
    122          8           0       27.622146   -4.207660    0.747591
    123          6           0       26.178641   -4.077315    0.408000
    124          1           0       29.994989    3.043135    2.173570
    125          1           0       35.405775    3.848131   -0.942271
    126          1           0       35.261031   -2.620362   -2.380504
    127          1           0       27.918709   -1.102329    1.568951
    128          1           0       29.140797    0.991798    3.288853
    129          1           0       27.606344    2.346235    1.894207
    130          1           0       26.702118    0.990377    2.566854
    131          1           0       27.194231    0.943816    0.904199
    132          1           0       28.688199   -0.887312    4.168624
    133          1           0       29.929721   -2.034727    3.570802
    134          1           0       28.360619   -3.672379    3.622891
    135          1           0       27.144910   -2.671151    2.812367
    136          1           0       32.066244    5.881331    2.759795
    137          1           0       30.512078    5.016691    2.721384
    138          1           0       30.736084    6.223130    1.569138
    139          1           0       35.243556    7.264356   -0.650950
    140          1           0       34.707363    5.741020   -1.526586
    141          1           0       35.758243    5.603391   -0.037474
    142          1           0       37.173895    1.438417   -0.706127
    143          1           0       36.814150   -0.293207   -3.156595
    144          1           0       38.009119    1.788767   -3.189079
    145          1           0       37.781221    3.074146   -1.940194
    146          1           0       36.604154    2.936507   -3.173397
    147          1           0       37.242745   -1.144185   -0.278263
    148          1           0       38.484542   -0.312572   -1.005695
    149          1           0       37.874901   -2.296263   -2.926073
    150          1           0       37.690552   -3.011256   -1.315181
    151          1           0       39.191432   -2.305599   -1.657514
    152          1           0       34.399712   -4.663070   -2.756883
    153          1           0       32.960137   -5.621031   -2.289261
    154          1           0       34.319886   -5.283578   -1.097806
    155          1           0       29.714686   -3.869169    1.783329
    156          1           0       25.850532   -5.102854    0.583621
    157          1           0       25.991138   -3.716088   -0.602738
    158          1           0       25.633301   -3.536272    1.182025
 ---------------------------------------------------------------------

 SCF Done:  E(RCAM-B3LYP) =  -4069.80051834     A.U. after   18 cycles

 Excitation energies and oscillator strengths:

 Excited State   1:      Singlet-A      1.6651 eV  744.61 nm  f=0.3731  <S**2>=0.000
     309 -> 315        0.17251
     312 -> 313        0.68783
     309 <- 315        0.10780
 This state for optimization and/or second-order correction.
 Total Energy, E(TD-HF/TD-DFT) =  -4069.73932738
 Copying the excited state density for this state as the 1-particle RhoCI density.

 Excited State   2:      Singlet-A      1.7225 eV  719.79 nm  f=0.3877  <S**2>=0.000
     310 -> 316       -0.17110
     311 -> 314        0.68747
     310 <- 316       -0.10386

 Excited State   3:      Singlet-A      2.2584 eV  549.00 nm  f=0.1183  <S**2>=0.000
     310 -> 314        0.63724
     311 -> 316        0.28973

 Excited State   4:      Singlet-A      2.2662 eV  547.11 nm  f=0.1002  <S**2>=0.000
     309 -> 313        0.62922
     312 -> 315       -0.31015

 Excited State   5:      Singlet-A      3.2024 eV  387.16 nm  f=0.0000  <S**2>=0.000
     312 -> 314        0.70711

 The electronic state is 1-A.
 Alpha  occ. eigenvalues --  -46.88587 -46.88514 -19.26511 -19.24612 -19.20435
 Alpha  occ. eigenvalues --  -19.19667 -19.19643 -19.19130 -19.18737 -19.18255
 Alpha  occ. eigenvalues --  -14.42537 -14.42381 -14.42185 -14.41892 -14.39601
 Alpha  occ. eigenvalues --  -14.39540 -14.39509 -14.38472 -10.39511 -10.39252
 Alpha  occ. eigenvalues --  -10.35481 -10.35394 -10.34999 -10.34610 -10.32845
 Alpha  occ. eigenvalues --  -10.31640 -10.31498 -10.31444 -10.31216 -10.30993
 Alpha  occ. eigenvalues --  -10.30952 -10.30823 -10.30663 -10.30603 -10.30588
 Alpha  occ. eigenvalues --  -10.30480 -10.30474 -10.29955 -10.29620 -10.29324
 Alpha  occ. eigenvalues --  -10.29013 -10.28721 -10.28690 -10.28522 -10.28513
 Alpha  occ. eigenvalues --  -10.28342 -10.28341 -10.28296 -10.28216 -10.28140
 Alpha  occ. eigenvalues --  -10.28131 -10.28053 -10.28026 -10.27959 -10.27828
 Alpha  occ. eigenvalues --  -10.27781 -10.27750 -10.27623 -10.27441 -10.27316
 Alpha  occ. eigenvalues --  -10.27188 -10.27112 -10.27092 -10.27047 -10.26924
 Alpha  occ. eigenvalues --  -10.26841 -10.26757 -10.26627 -10.26568 -10.26514
 Alpha  occ. eigenvalues --  -10.26494 -10.26444 -10.26396 -10.26362 -10.26260
 Alpha  occ. eigenvalues --  -10.26009 -10.26002 -10.25847 -10.25757 -10.25518
 Alpha  occ. eigenvalues --  -10.25495 -10.25440 -10.25376 -10.25169 -10.25135
 Alpha  occ. eigenvalues --  -10.24839  -3.17232  -3.17112  -1.92093  -1.91989
 Alpha  occ. eigenvalues --   -1.91692  -1.91550  -1.91547  -1.91438  -1.17273
 Alpha  occ. eigenvalues --   -1.16647  -1.11984  -1.10415  -1.09957  -1.08968
 Alpha  occ. eigenvalues --   -1.08669  -1.07400  -1.04589  -1.04121  -1.04000
 Alpha  occ. eigenvalues --   -1.03344  -1.03183  -1.02839  -1.02634  -1.01749
 Alpha  occ. eigenvalues --   -0.93190  -0.92216  -0.89875  -0.89669  -0.89437
 Alpha  occ. eigenvalues --   -0.89350  -0.88713  -0.88393  -0.87532  -0.87336
 Alpha  occ. eigenvalues --   -0.86647  -0.86509  -0.86341  -0.85812  -0.84820
 Alpha  occ. eigenvalues --   -0.84751  -0.84241  -0.84176  -0.83300  -0.82720
 Alpha  occ. eigenvalues --   -0.81914  -0.81698  -0.81138  -0.80882  -0.80521
 Alpha  occ. eigenvalues --   -0.80316  -0.77954  -0.77732  -0.77514  -0.77381
 Alpha  occ. eigenvalues --   -0.76855  -0.76687  -0.76260  -0.76054  -0.75142
 Alpha  occ. eigenvalues --   -0.75133  -0.72756  -0.72710  -0.71726  -0.71698
 Alpha  occ. eigenvalues --   -0.69637  -0.69261  -0.68817  -0.68691  -0.68620
 Alpha  occ. eigenvalues --   -0.67759  -0.67246  -0.67093  -0.65873  -0.65701
 Alpha  occ. eigenvalues --   -0.65606  -0.65087  -0.65001  -0.64563  -0.64546
 Alpha  occ. eigenvalues --   -0.64386  -0.62242  -0.62108  -0.60149  -0.60013
 Alpha  occ. eigenvalues --   -0.59636  -0.59434  -0.59422  -0.59074  -0.58948
 Alpha  occ. eigenvalues --   -0.58522  -0.58216  -0.58144  -0.57388  -0.57149
 Alpha  occ. eigenvalues --   -0.56568  -0.56414  -0.56112  -0.56048  -0.55426
 Alpha  occ. eigenvalues --   -0.55108  -0.54978  -0.54694  -0.54612  -0.54282
 Alpha  occ. eigenvalues --   -0.54080  -0.53818  -0.53171  -0.53049  -0.52878
 Alpha  occ. eigenvalues --   -0.52860  -0.52480  -0.52407  -0.52380  -0.52291
 Alpha  occ. eigenvalues --   -0.52132  -0.51685  -0.51625  -0.51481  -0.51430
 Alpha  occ. eigenvalues --   -0.51239  -0.51167  -0.50937  -0.50581  -0.50352
 Alpha  occ. eigenvalues --   -0.50160  -0.50140  -0.49968  -0.49868  -0.49612
 Alpha  occ. eigenvalues --   -0.49412  -0.49259  -0.49178  -0.48945  -0.48925
 Alpha  occ. eigenvalues --   -0.48775  -0.48605  -0.48430  -0.48372  -0.48260
 Alpha  occ. eigenvalues --   -0.48064  -0.47562  -0.47521  -0.47486  -0.47204
 Alpha  occ. eigenvalues --   -0.47113  -0.46960  -0.46911  -0.46788  -0.46421
 Alpha  occ. eigenvalues --   -0.46385  -0.46298  -0.46090  -0.46011  -0.45888
 Alpha  occ. eigenvalues --   -0.45616  -0.45510  -0.45308  -0.45235  -0.45155
 Alpha  occ. eigenvalues --   -0.44926  -0.44736  -0.44682  -0.44379  -0.44320
 Alpha  occ. eigenvalues --   -0.44127  -0.44056  -0.43911  -0.43716  -0.43607
 Alpha  occ. eigenvalues --   -0.43468  -0.43290  -0.43238  -0.43085  -0.42812
 Alpha  occ. eigenvalues --   -0.42800  -0.42562  -0.42529  -0.42388  -0.42309
 Alpha  occ. eigenvalues --   -0.42205  -0.42134  -0.41937  -0.41908  -0.41662
 Alpha  occ. eigenvalues --   -0.41641  -0.41125  -0.40779  -0.40588  -0.40407
 Alpha  occ. eigenvalues --   -0.40216  -0.40114  -0.39830  -0.39161  -0.39160
 Alpha  occ. eigenvalues --   -0.38463  -0.38389  -0.38227  -0.37886  -0.37609
 Alpha  occ. eigenvalues --   -0.37340  -0.37219  -0.37044  -0.36705  -0.36450
 Alpha  occ. eigenvalues --   -0.36003  -0.35772  -0.35112  -0.34341  -0.34236
 Alpha  occ. eigenvalues --   -0.34168  -0.33031  -0.32935  -0.31793  -0.31385
 Alpha  occ. eigenvalues --   -0.31108  -0.30896  -0.30759  -0.30556  -0.30543
 Alpha  occ. eigenvalues --   -0.29910  -0.29661  -0.28932  -0.24316  -0.24274
 Alpha  occ. eigenvalues --   -0.21254  -0.21054
 Alpha virt. eigenvalues --   -0.08787  -0.08756  -0.01795  -0.01701   0.00210
 Alpha virt. eigenvalues --    0.00566   0.01371   0.02181   0.02517   0.02734
 Alpha virt. eigenvalues --    0.04553   0.04747   0.05045   0.05423   0.05635

 Mulliken charges:
               1
     1  Mg  12.002047
     2  C    6.035118
     3  C    5.983997
     4  C    5.971407
     5  C    6.013510
     6  N    7.006036
     7  C    5.954639
     8  C    6.015856
     9  C    5.990543
    10  C    6.031896
    11  C    5.997779
    12  C    6.004121
    13  C    6.007004
    14  H    0.990216
    15  N    6.987122
    16  C    6.049364
    17  C    6.022366
    18  C    6.005673
    19  C    6.051773
    20  C    5.995175
    21  C    6.010685
    22  O    8.019392
    23  C    5.995475
    24  N    6.996595
    25  C    6.036703
    26  C    5.992933
    27  C    6.005619
    28  C    5.975069
    29  C    6.000087
    30  C    6.008506
    31  C    6.000167
    32  N    7.005078
    33  C    5.957621
    34  C    5.960115
    35  C    6.004828
    36  C    5.954868
    37  C    6.002738
    38  C    5.986082
    39  O    7.973848
    40  C    5.997436
    41  C    5.997200
    42  O    7.996479
    43  O    7.997921
    44  C    6.001773
    45  H    1.012695
    46  H    1.007689
    47  H    0.988115
    48  H    0.997421
    49  H    0.997886
    50  H    1.000233
    51  H    1.013547
    52  H    0.997849
    53  H    1.003059
    54  H    0.990079
    55  H    0.989475
    56  H    1.007014
    57  H    1.018206
    58  H    1.019747
    59  H    1.019710
    60  H    1.011151
    61  H    1.011692
    62  H    1.011820
    63  H    1.000170
    64  H    1.000132
    65  H    1.013640
    66  H    1.000472
    67  H    0.995200
    68  H    1.000865
    69  H    0.984633
    70  H    0.994273
    71  H    0.999473
    72  H    1.003308
    73  H    0.979495
    74  H    0.980320
    75  H    0.979022
    76  H    0.989856
    77  H    0.995899
    78  H    0.998489
    79  H    0.994502
    80  Mg  12.000006
    81  C    6.000035
    82  C    6.000077
    83  C    5.999945
    84  C    5.999918
    85  N    7.000021
    86  C    5.999950
    87  C    6.000021
    88  C    5.999965
    89  C    6.000013
    90  C    5.999993
    91  C    6.000003
    92  C    6.000001
    93  H    0.999992
    94  N    6.999999
    95  C    6.000016
    96  C    6.000050
    97  C    5.999992
    98  C    6.000098
    99  C    5.999987
   100  C    6.000024
   101  O    8.000041
   102  C    6.000004
   103  N    6.999986
   104  C    6.000046
   105  C    5.999990
   106  C    6.000013
   107  C    6.000003
   108  C    6.000005
   109  C    6.000025
   110  C    5.999999
   111  N    7.000000
   112  C    5.999977
   113  C    5.999956
   114  C    6.000015
   115  C    5.999954
   116  C    6.000008
   117  C    5.999926
   118  O    7.999941
   119  C    5.999986
   120  C    5.999999
   121  O    7.999997
   122  O    7.999992
   123  C    6.000005
   124  H    1.000029
   125  H    1.000006
   126  H    0.999988
   127  H    1.000008
   128  H    1.000006
   129  H    1.000002
   130  H    1.000036
   131  H    1.000030
   132  H    0.999985
   133  H    0.999992
   134  H    0.999999
   135  H    1.000011
   136  H    1.000034
   137  H    1.000046
   138  H    1.000065
   139  H    1.000033
   140  H    1.000021
   141  H    1.000009
   142  H    0.999995
   143  H    0.999987
   144  H    1.000009
   145  H    0.999988
   146  H    1.000002
   147  H    0.999994
   148  H    0.999964
   149  H    1.000001
   150  H    1.000007
   151  H    0.999975
   152  H    0.999955
   153  H    0.999961
   154  H    0.999936
   155  H    0.999971
   156  H    0.999985
   157  H    1.000002
   158  H    0.999995
 Sum of Mulliken charges = 624.00000

 Dipole moment (field-independent basis, Debye):
    X=             -4.6252    Y=             -9.7452    Z=              1.3461  Tot=             10.8708
 Quadrupole moment (field-independent basis, Debye-Ang):
   XX=            300.0399   YY=              5.2269   ZZ=             -3.5688
   XY=            321.4197   XZ=            -42.1785   YZ=              6.0689

 Normal termination of Gaussian 16 at Tue Sep 21 20:17:43 2021.
