 Gaussian 16, Revision A.03,
 Gaussian 16:  ES64L-G16RevA.03 25-Dec-2016

 ----------------------------------------------------------
 #p cam-b3lyp/Def2SVP td=(nstates=5) density=(transition=1)
 ----------------------------------------------------------

 --------------------------------
 TDDFT excited states in gaussian
 --------------------------------
 Symbolic Z-matrix:
 Charge =  0 Multiplicity = 1

                         Standard orientation:
 ---------------------------------------------------------------------
 Center     Atomic      Atomic             Coordinates (Angstroms)
 Number     Number       Type             X           Y           Z
 ---------------------------------------------------------------------
      1         12           0      -16.344332   -0.636701   -0.258014
      2          6           0      -16.119619    1.883693    2.015358
      3          6           0      -13.585470   -2.186895    1.091974
      4          6           0      -16.584316   -2.977269   -2.692129
      5          6           0      -18.862452    1.221575   -1.900463
      6          7           0      -14.866767   -0.074560    1.243646
      7          6           0      -15.189250    0.811692    2.223243
      8          6           0      -14.343210    0.680867    3.444152
      9          6           0      -13.360969   -0.508283    2.962335
     10          6           0      -13.959018   -0.975207    1.675921
     11          6           0      -11.852765   -0.023344    2.772106
     12          6           0      -15.270584    0.237438    4.669791
     13          6           0      -14.763810    0.545729    6.080375
     14          1           0      -13.310205    0.962724    6.416005
     15          7           0      -15.330987   -2.408018   -0.716232
     16          6           0      -14.188626   -2.857842   -0.034206
     17          6           0      -13.764312   -4.077940   -0.680747
     18          6           0      -14.639392   -4.333881   -1.755963
     19          6           0      -15.592289   -3.233555   -1.706075
     20          6           0      -12.572762   -4.899234   -0.135311
     21          6           0      -14.537661   -5.519903   -2.851237
     22          8           0      -15.432710   -5.747059   -3.675101
     23          6           0      -13.370259   -6.487110   -2.958094
     24          7           0      -17.641625   -0.858819   -2.037812
     25          6           0      -17.478780   -1.911582   -2.874326
     26          6           0      -18.260322   -1.718835   -4.172854
     27          6           0      -19.272433   -0.499116   -3.767393
     28          6           0      -18.660414   -0.039435   -2.434823
     29          6           0      -17.388605   -1.536581   -5.498565
     30          6           0      -20.793828   -0.910847   -3.427683
     31          6           0      -21.941836   -0.157525   -4.074005
     32          7           0      -17.385769    1.159598   -0.030938
     33          6           0      -18.338795    1.787403   -0.741865
     34          6           0      -18.764279    3.033015   -0.029805
     35          6           0      -17.914969    3.040547    1.102044
     36          6           0      -17.031199    1.943427    0.956328
     37          6           0      -19.829336    4.023030   -0.344571
     38          6           0      -17.651008    3.816842    2.255100
     39          8           0      -18.187446    4.868667    2.659911
     40          6           0      -16.466770    3.105266    2.904525
     41          6           0      -15.349835    4.020061    2.966052
     42          8           0      -14.806440    4.644378    2.109272
     43          8           0      -14.887989    3.978882    4.278245
     44          6           0      -13.676112    4.762657    4.732586
     45          1           0      -12.871621   -2.843101    1.593451
     46          1           0      -16.592175   -3.683136   -3.525696
     47          1           0      -19.484120    1.933300   -2.446564
     48          1           0      -13.749177    1.513830    3.819660
     49          1           0      -13.352723   -1.329979    3.678444
     50          1           0      -11.082967   -0.744740    3.045168
     51          1           0      -11.727849    0.947455    3.251494
     52          1           0      -11.720940    0.148358    1.703320
     53          1           0      -15.488199   -0.830393    4.640445
     54          1           0      -16.213591    0.762097    4.514174
     55          1           0      -15.008261   -0.334702    6.676018
     56          1           0      -15.392565    1.324435    6.510419
     57          1           0      -12.139879   -4.505456    0.784187
     58          1           0      -11.832816   -4.939158   -0.933991
     59          1           0      -12.932207   -5.916774    0.019751
     60          1           0      -13.446470   -7.103062   -2.062813
     61          1           0      -12.411149   -6.008092   -2.760232
     62          1           0      -13.327850   -6.924379   -3.955431
     63          1           0      -18.879518   -2.604763   -4.318643
     64          1           0      -19.299017    0.261280   -4.548147
     65          1           0      -17.611598   -0.590475   -5.992342
     66          1           0      -17.563360   -2.369594   -6.178530
     67          1           0      -16.327499   -1.477180   -5.255266
     68          1           0      -20.973361   -0.948018   -2.353312
     69          1           0      -20.891019   -1.957807   -3.713378
     70          1           0      -22.554332    0.227763   -3.259579
     71          1           0      -22.522822   -0.773200   -4.760102
     72          1           0      -21.557278    0.721737   -4.592730
     73          1           0      -20.448539    3.773027   -1.205917
     74          1           0      -19.399491    5.002627   -0.555276
     75          1           0      -20.480092    4.112891    0.524992
     76          1           0      -16.695647    2.761155    3.913560
     77          1           0      -13.224279    5.285512    3.889354
     78          1           0      -12.917044    4.075679    5.109105
     79          1           0      -14.047402    5.456142    5.487073
     80         12           0       16.332716   -0.435169    0.416684
     81          6           0       15.552832    2.473484   -1.338616
     82          6           0       12.979463   -1.230121    0.507918
     83          6           0       17.300542   -3.161218    1.965964
     84          6           0       19.786466   -0.029365   -0.673946
     85          7           0       14.432923    0.629562   -0.327468
     86          6           0       14.351107    1.789843   -1.044879
     87          6           0       12.933006    2.152981   -1.309187
     88          6           0       12.108403    0.927374   -0.746460
     89          6           0       13.224091    0.002266   -0.120971
     90          6           0       10.913403    1.312372    0.161613
     91          6           0       12.640377    2.402263   -2.808741
     92          6           0       11.946539    3.748554   -3.008606
     93          1           0       10.613913    3.757893   -3.816706
     94          7           0       15.270484   -1.975883    1.169214
     95          6           0       13.885010   -2.130653    1.163557
     96          6           0       13.627774   -3.347768    1.922434
     97          6           0       14.893052   -3.927396    2.401210
     98          6           0       15.931503   -2.969587    1.905735
     99          6           0       12.317862   -3.955386    2.004735
    100          6           0       14.959204   -5.247047    3.051126
    101          8           0       13.990555   -5.930606    3.308801
    102          6           0       16.231205   -5.946939    3.381321
    103          7           0       18.199128   -1.415287    0.557516
    104          6           0       18.364755   -2.388156    1.510486
    105          6           0       19.805203   -2.854145    1.534652
    106          6           0       20.422781   -2.189658    0.361504
    107          6           0       19.429316   -1.202478   -0.004668
    108          6           0       20.549060   -2.667200    2.920129
    109          6           0       20.585015   -3.141679   -0.872896
    110          6           0       21.698035   -2.862565   -1.773495
    111          7           0       17.501593    0.943560   -0.744089
    112          6           0       18.868379    1.023101   -1.041529
    113          6           0       19.152903    2.315165   -1.582351
    114          6           0       17.908029    2.906779   -1.761259
    115          6           0       16.902048    2.003579   -1.263880
    116          6           0       20.519094    2.794581   -1.908664
    117          6           0       17.248572    4.039377   -2.277916
    118          8           0       17.700245    5.033276   -2.801545
    119          6           0       15.744133    3.843694   -1.985723
    120          6           0       15.257020    4.982974   -1.191857
    121          8           0       15.309214    5.077990    0.045983
    122          8           0       14.877673    6.002288   -2.034809
    123          6           0       14.264236    7.206875   -1.499614
    124          1           0       11.900073   -1.385765    0.553149
    125          1           0       17.760223   -4.051204    2.402977
    126          1           0       20.837434    0.063994   -0.955461
    127          1           0       12.714378    2.925173   -0.571072
    128          1           0       11.615725    0.341333   -1.521689
    129          1           0       10.751829    2.358660   -0.100569
    130          1           0       11.026841    1.117131    1.228021
    131          1           0       10.027539    0.751659   -0.135627
    132          1           0       11.926406    1.703432   -3.244220
    133          1           0       13.602394    2.348867   -3.318096
    134          1           0       12.677144    4.224448   -3.662534
    135          1           0       11.896156    4.233243   -2.034715
    136          1           0       11.613980   -3.309267    1.479723
    137          1           0       11.889921   -4.035662    3.004446
    138          1           0       12.334710   -4.918775    1.493915
    139          1           0       16.759920   -5.123543    3.861543
    140          1           0       16.718264   -6.240972    2.451206
    141          1           0       16.060798   -6.773605    4.071362
    142          1           0       19.714433   -3.931207    1.398845
    143          1           0       21.322996   -1.597397    0.525956
    144          1           0       19.838847   -2.395221    3.701201
    145          1           0       21.435301   -2.032665    2.884595
    146          1           0       20.897009   -3.606256    3.349592
    147          1           0       19.652853   -3.156044   -1.437802
    148          1           0       20.730264   -4.171476   -0.546897
    149          1           0       22.585964   -3.371622   -1.397033
    150          1           0       21.866931   -1.793183   -1.904219
    151          1           0       21.558404   -3.407272   -2.707808
    152          1           0       21.241408    2.463845   -1.162477
    153          1           0       20.588017    3.873394   -2.049269
    154          1           0       20.776613    2.234883   -2.807893
    155          1           0       15.123217    3.940009   -2.876489
    156          1           0       14.882318    7.918378   -0.951943
    157          1           0       13.398089    6.935994   -0.896204
    158          1           0       13.967691    7.765077   -2.386856
 ---------------------------------------------------------------------

 SCF Done:  E(RCAM-B3LYP) =  -4069.78158684     A.U. after   19 cycles

 Excitation energies and oscillator strengths:

 Excited State   1:      Singlet-A      1.6750 eV  740.19 nm  f=0.3644  <S**2>=0.000
     309 -> 315       -0.18824
     311 -> 313        0.68331
     309 <- 315       -0.11089
 This state for optimization and/or second-order correction.
 Total Energy, E(TD-HF/TD-DFT) =  -4069.72003051
 Copying the excited state density for this state as the 1-particle RhoCI density.

 Excited State   2:      Singlet-A      1.7389 eV  713.00 nm  f=0.4002  <S**2>=0.000
     310 -> 316        0.19173
     312 -> 314        0.68285
     310 <- 316        0.10975

 Excited State   3:      Singlet-A      2.1858 eV  567.21 nm  f=0.1031  <S**2>=0.000
     309 -> 313        0.63557
     311 -> 315        0.29756

 Excited State   4:      Singlet-A      2.2287 eV  556.30 nm  f=0.1025  <S**2>=0.000
     310 -> 314        0.63902
     312 -> 316       -0.29488

 Excited State   5:      Singlet-A      2.9601 eV  418.85 nm  f=0.0000  <S**2>=0.000
     312 -> 313        0.70709

 The electronic state is 1-A.
 Alpha  occ. eigenvalues --  -46.89407 -46.88983 -19.24904 -19.23691 -19.19599
 Alpha  occ. eigenvalues --  -19.19400 -19.19200 -19.18787 -19.18394 -19.17424
 Alpha  occ. eigenvalues --  -14.42485 -14.42366 -14.41969 -14.41677 -14.40308
 Alpha  occ. eigenvalues --  -14.39558 -14.39397 -14.39208 -10.39127 -10.38660
 Alpha  occ. eigenvalues --  -10.36236 -10.34481 -10.34247 -10.33747 -10.31910
 Alpha  occ. eigenvalues --  -10.31753 -10.31711 -10.31660 -10.31613 -10.31608
 Alpha  occ. eigenvalues --  -10.31102 -10.31089 -10.30682 -10.30651 -10.30513
 Alpha  occ. eigenvalues --  -10.30221 -10.30000 -10.29906 -10.29875 -10.29752
 Alpha  occ. eigenvalues --  -10.29132 -10.29023 -10.29018 -10.28861 -10.28780
 Alpha  occ. eigenvalues --  -10.28594 -10.28587 -10.28414 -10.28357 -10.28304
 Alpha  occ. eigenvalues --  -10.28257 -10.28256 -10.28194 -10.28194 -10.28165
 Alpha  occ. eigenvalues --  -10.28008 -10.27970 -10.27966 -10.27848 -10.27830
 Alpha  occ. eigenvalues --  -10.27522 -10.27466 -10.27404 -10.27399 -10.27370
 Alpha  occ. eigenvalues --  -10.27332 -10.27249 -10.27214 -10.27180 -10.26831
 Alpha  occ. eigenvalues --  -10.26668 -10.26512 -10.26477 -10.26443 -10.26259
 Alpha  occ. eigenvalues --  -10.26217 -10.26176 -10.26121 -10.26074 -10.25899
 Alpha  occ. eigenvalues --  -10.25586 -10.25368 -10.25229 -10.24911 -10.24761
 Alpha  occ. eigenvalues --  -10.24755  -3.17814  -3.17472  -1.92733  -1.92375
 Alpha  occ. eigenvalues --   -1.92251  -1.92125  -1.91936  -1.91762  -1.15640
 Alpha  occ. eigenvalues --   -1.15485  -1.10094  -1.09886  -1.09520  -1.08333
 Alpha  occ. eigenvalues --   -1.07210  -1.06745  -1.05570  -1.05024  -1.04467
 Alpha  occ. eigenvalues --   -1.03841  -1.03583  -1.03028  -1.02636  -1.01612
 Alpha  occ. eigenvalues --   -0.93500  -0.92691  -0.90802  -0.89633  -0.89089
 Alpha  occ. eigenvalues --   -0.88615  -0.88268  -0.87748  -0.87524  -0.87281
 Alpha  occ. eigenvalues --   -0.87071  -0.86912  -0.86338  -0.86228  -0.85302
 Alpha  occ. eigenvalues --   -0.84581  -0.84332  -0.83495  -0.83480  -0.82612
 Alpha  occ. eigenvalues --   -0.82371  -0.81614  -0.81449  -0.81195  -0.80863
 Alpha  occ. eigenvalues --   -0.80306  -0.78707  -0.78418  -0.78015  -0.77478
 Alpha  occ. eigenvalues --   -0.77161  -0.77130  -0.76343  -0.76209  -0.75423
 Alpha  occ. eigenvalues --   -0.75194  -0.73449  -0.72597  -0.72073  -0.71993
 Alpha  occ. eigenvalues --   -0.69376  -0.69264  -0.69146  -0.68645  -0.68231
 Alpha  occ. eigenvalues --   -0.68032  -0.67555  -0.66504  -0.65990  -0.65970
 Alpha  occ. eigenvalues --   -0.65344  -0.65314  -0.65211  -0.64721  -0.64522
 Alpha  occ. eigenvalues --   -0.64258  -0.62069  -0.61824  -0.60777  -0.60456
 Alpha  occ. eigenvalues --   -0.59933  -0.59536  -0.59504  -0.59189  -0.59000
 Alpha  occ. eigenvalues --   -0.58802  -0.58480  -0.57955  -0.57762  -0.57449
 Alpha  occ. eigenvalues --   -0.56445  -0.56033  -0.55935  -0.55519  -0.55508
 Alpha  occ. eigenvalues --   -0.55300  -0.55184  -0.54470  -0.54280  -0.54243
 Alpha  occ. eigenvalues --   -0.53776  -0.53231  -0.53050  -0.52982  -0.52868
 Alpha  occ. eigenvalues --   -0.52766  -0.52586  -0.52332  -0.52207  -0.52144
 Alpha  occ. eigenvalues --   -0.52135  -0.51781  -0.51718  -0.51702  -0.51637
 Alpha  occ. eigenvalues --   -0.51413  -0.51322  -0.51268  -0.50814  -0.50548
 Alpha  occ. eigenvalues --   -0.50455  -0.50045  -0.49812  -0.49710  -0.49699
 Alpha  occ. eigenvalues --   -0.49425  -0.49402  -0.49157  -0.49132  -0.48924
 Alpha  occ. eigenvalues --   -0.48889  -0.48600  -0.48544  -0.48313  -0.48152
 Alpha  occ. eigenvalues --   -0.47958  -0.47657  -0.47621  -0.47274  -0.47174
 Alpha  occ. eigenvalues --   -0.47038  -0.46935  -0.46830  -0.46640  -0.46599
 Alpha  occ. eigenvalues --   -0.46464  -0.46353  -0.46254  -0.46251  -0.46176
 Alpha  occ. eigenvalues --   -0.45776  -0.45590  -0.45343  -0.45195  -0.44970
 Alpha  occ. eigenvalues --   -0.44695  -0.44622  -0.44516  -0.44356  -0.44269
 Alpha  occ. eigenvalues --   -0.44085  -0.43986  -0.43904  -0.43720  -0.43698
 Alpha  occ. eigenvalues --   -0.43465  -0.43269  -0.43147  -0.43102  -0.43005
 Alpha  occ. eigenvalues --   -0.42678  -0.42603  -0.42330  -0.42124  -0.41753
 Alpha  occ. eigenvalues --   -0.41702  -0.41637  -0.41618  -0.41375  -0.41302
 Alpha  occ. eigenvalues --   -0.41209  -0.41141  -0.41059  -0.40818  -0.40712
 Alpha  occ. eigenvalues --   -0.40300  -0.40214  -0.39728  -0.39413  -0.39248
 Alpha  occ. eigenvalues --   -0.38523  -0.38426  -0.37792  -0.37775  -0.37541
 Alpha  occ. eigenvalues --   -0.37371  -0.37010  -0.36765  -0.36586  -0.36422
 Alpha  occ. eigenvalues --   -0.36354  -0.36082  -0.34498  -0.34386  -0.34238
 Alpha  occ. eigenvalues --   -0.33749  -0.33161  -0.33066  -0.31421  -0.31256
 Alpha  occ. eigenvalues --   -0.31106  -0.31027  -0.30715  -0.30181  -0.30055
 Alpha  occ. eigenvalues --   -0.29919  -0.29700  -0.29481  -0.24348  -0.23839
 Alpha  occ. eigenvalues --   -0.21613  -0.21138
 Alpha virt. eigenvalues --   -0.09202  -0.08521  -0.02551  -0.01707  -0.00009
 Alpha virt. eigenvalues --    0.00210   0.02302   0.02310   0.02637   0.02788
 Alpha virt. eigenvalues --    0.04049   0.04663   0.04956   0.05327   0.05422

 Mulliken charges:
               1
     1  Mg  11.999991
     2  C    5.999425
     3  C    6.000340
     4  C    6.000473
     5  C    5.999813
     6  N    6.999988
     7  C    6.000743
     8  C    5.999688
     9  C    6.000283
    10  C    5.999339
    11  C    6.000074
    12  C    5.999924
    13  C    6.000024
    14  H    0.999968
    15  N    7.000185
    16  C    5.999085
    17  C    5.999816
    18  C    5.999576
    19  C    5.999475
    20  C    6.000080
    21  C    5.999800
    22  O    7.999597
    23  C    6.000052
    24  N    7.000079
    25  C    5.999392
    26  C    6.000207
    27  C    5.999788
    28  C    6.000499
    29  C    6.000020
    30  C    5.999829
    31  C    6.000005
    32  N    6.999844
    33  C    6.000732
    34  C    6.000571
    35  C    6.000062
    36  C    6.000649
    37  C    5.999816
    38  C    6.000334
    39  O    8.000571
    40  C    6.000014
    41  C    6.000064
    42  O    8.000104
    43  O    8.000009
    44  C    5.999967
    45  H    0.999653
    46  H    0.999924
    47  H    1.000272
    48  H    1.000076
    49  H    0.999853
    50  H    0.999765
    51  H    0.999735
    52  H    1.000006
    53  H    1.000182
    54  H    0.999943
    55  H    1.000029
    56  H    1.000024
    57  H    0.999549
    58  H    0.999583
    59  H    0.999637
    60  H    0.999804
    61  H    0.999787
    62  H    0.999770
    63  H    1.000030
    64  H    1.000153
    65  H    0.999898
    66  H    1.000027
    67  H    1.000042
    68  H    0.999986
    69  H    1.000244
    70  H    0.999992
    71  H    1.000155
    72  H    1.000039
    73  H    1.000399
    74  H    1.000454
    75  H    1.000369
    76  H    1.000139
    77  H    1.000091
    78  H    1.000002
    79  H    1.000097
    80  Mg  12.001309
    81  C    6.017996
    82  C    5.979245
    83  C    5.975477
    84  C    6.023883
    85  N    7.004632
    86  C    5.965922
    87  C    6.014211
    88  C    5.990993
    89  C    6.029837
    90  C    5.996885
    91  C    6.001074
    92  C    6.001156
    93  H    0.991887
    94  N    6.985794
    95  C    6.050816
    96  C    6.020510
    97  C    6.012763
    98  C    6.044699
    99  C    5.987883
   100  C    6.006761
   101  O    8.018386
   102  C    5.998806
   103  N    7.007577
   104  C    6.034702
   105  C    5.992096
   106  C    6.007742
   107  C    5.960978
   108  C    5.998811
   109  C    6.008235
   110  C    6.000839
   111  N    7.005897
   112  C    5.951307
   113  C    5.976015
   114  C    5.994890
   115  C    5.963707
   116  C    6.001993
   117  C    5.982618
   118  O    7.967178
   119  C    6.002677
   120  C    5.995048
   121  O    7.991945
   122  O    8.000449
   123  C    6.003752
   124  H    1.009818
   125  H    1.011091
   126  H    0.991070
   127  H    0.995935
   128  H    1.000940
   129  H    1.012387
   130  H    0.997254
   131  H    0.999913
   132  H    0.991877
   133  H    1.007399
   134  H    1.004235
   135  H    0.999341
   136  H    1.020795
   137  H    1.023226
   138  H    1.021250
   139  H    1.005885
   140  H    1.010704
   141  H    1.012488
   142  H    0.999648
   143  H    1.002210
   144  H    0.997451
   145  H    1.013019
   146  H    1.002108
   147  H    0.994327
   148  H    0.985146
   149  H    0.994531
   150  H    1.006213
   151  H    0.996195
   152  H    0.980375
   153  H    0.985619
   154  H    0.980949
   155  H    0.990554
   156  H    0.997051
   157  H    0.993636
   158  H    0.995982
 Sum of Mulliken charges = 624.00000

 Dipole moment (field-independent basis, Debye):
    X=             -5.3236    Y=             -7.6957    Z=              5.2115  Tot=             10.7110
 Quadrupole moment (field-independent basis, Debye-Ang):
   XX=           -166.4933   YY=              3.8739   ZZ=              2.4432
   XY=           -126.2933   XZ=             84.7831   YZ=             -4.6499

 Normal termination of Gaussian 16 at Wed Sep 22 13:55:33 2021.
