 Gaussian 16, Revision A.03,
 Gaussian 16:  ES64L-G16RevA.03 25-Dec-2016

 ----------------------------------------------------------
 #p cam-b3lyp/Def2SVP td=(nstates=5) density=(transition=1)
 ----------------------------------------------------------

 --------------------------------
 TDDFT excited states in gaussian
 --------------------------------
 Symbolic Z-matrix:
 Charge =  0 Multiplicity = 1

                         Standard orientation:
 ---------------------------------------------------------------------
 Center     Atomic      Atomic             Coordinates (Angstroms)
 Number     Number       Type             X           Y           Z
 ---------------------------------------------------------------------
      1         12           0        4.972752    0.701225    0.287247
      2          6           0        2.981347   -2.178102    1.127474
      3          6           0        7.538508   -1.461976   -0.338293
      4          6           0        6.902876    3.401414   -0.197591
      5          6           0        2.442034    2.662755    1.426994
      6          7           0        5.194551   -1.666218    0.347864
      7          6           0        4.209949   -2.550548    0.680960
      8          6           0        4.722870   -3.908189    0.382530
      9          6           0        6.226825   -3.713272    0.044157
     10          6           0        6.425020   -2.172755    0.043845
     11          6           0        7.154271   -4.390560    1.102732
     12          6           0        3.973334   -4.677583   -0.676235
     13          6           0        4.279394   -6.152962   -0.877548
     14          1           0        3.129902   -7.069927   -0.919659
     15          7           0        6.888136    0.929165   -0.300698
     16          6           0        7.850830   -0.110941   -0.419794
     17          6           0        9.078759    0.513769   -0.946616
     18          6           0        8.897083    1.887466   -0.809324
     19          6           0        7.516395    2.127164   -0.351718
     20          6           0       10.283353   -0.321433   -1.327260
     21          6           0        9.861575    3.046483   -1.141523
     22          8           0        9.690653    4.223994   -0.774133
     23          6           0       11.035511    2.718739   -1.970863
     24          7           0        4.753249    2.780474    0.630547
     25          6           0        5.635886    3.719774    0.358929
     26          6           0        5.145270    5.150051    0.714835
     27          6           0        3.662533    4.881861    0.981788
     28          6           0        3.600321    3.371653    0.970623
     29          6           0        5.896215    5.722269    1.964243
     30          6           0        2.671833    5.503737    0.023580
     31          6           0        1.414874    6.137733    0.645445
     32          7           0        3.084019    0.324383    1.012745
     33          6           0        2.159281    1.257168    1.428722
     34          6           0        0.877221    0.607190    1.836290
     35          6           0        1.247652   -0.717909    1.725963
     36          6           0        2.569783   -0.860637    1.287909
     37          6           0       -0.445792    1.245271    2.114655
     38          6           0        0.724367   -2.062603    1.916863
     39          8           0       -0.410121   -2.382836    2.253156
     40          6           0        1.819671   -3.085230    1.536871
     41          6           0        1.915584   -4.010075    2.637320
     42          8           0        2.467222   -3.808701    3.746042
     43          8           0        1.463195   -5.238314    2.261503
     44          6           0        1.724727   -6.368973    3.125165
     45          1           0        8.341731   -2.143777   -0.624513
     46          1           0        7.568347    4.267023   -0.193767
     47          1           0        1.801082    3.353191    1.978857
     48          1           0        4.627532   -4.415349    1.341740
     49          1           0        6.492319   -4.131814   -0.926790
     50          1           0        7.965361   -5.071944    0.843989
     51          1           0        6.467448   -4.961038    1.727776
     52          1           0        7.579885   -3.714158    1.844457
     53          1           0        4.176170   -4.279594   -1.670643
     54          1           0        2.907109   -4.453152   -0.664883
     55          1           0        4.915844   -6.526534   -0.076779
     56          1           0        4.617623   -6.234396   -1.910213
     57          1           0       11.230087    0.055869   -0.941250
     58          1           0       10.406720   -0.458456   -2.401364
     59          1           0       10.286142   -1.333821   -0.922574
     60          1           0       10.692595    2.181108   -2.854980
     61          1           0       11.602515    2.058305   -1.315712
     62          1           0       11.439367    3.669034   -2.318118
     63          1           0        5.305624    5.754516   -0.178574
     64          1           0        3.295104    5.160288    1.969088
     65          1           0        5.230846    5.822146    2.821293
     66          1           0        6.272231    6.727530    1.773999
     67          1           0        6.678091    4.995811    2.186191
     68          1           0        2.348988    4.796934   -0.740155
     69          1           0        3.289946    6.126688   -0.622113
     70          1           0        1.095259    6.927280   -0.033979
     71          1           0        1.554932    6.434195    1.685419
     72          1           0        0.735824    5.285392    0.653351
     73          1           0       -1.151773    1.193509    1.285583
     74          1           0       -0.208581    2.236144    2.500907
     75          1           0       -0.861478    0.819628    3.028810
     76          1           0        1.370001   -3.675490    0.738490
     77          1           0        2.375004   -6.152756    3.973221
     78          1           0        2.075719   -7.222233    2.545418
     79          1           0        0.811289   -6.759404    3.574587
     80         12           0       -4.982557    0.534115   -0.365224
     81          6           0       -2.853534   -2.147290   -1.001512
     82          6           0       -7.532862   -1.678799    0.293416
     83          6           0       -6.983005    3.236577   -0.053371
     84          6           0       -2.374693    2.719691   -1.457017
     85          7           0       -5.158209   -1.631287   -0.473287
     86          6           0       -4.174892   -2.538408   -0.721574
     87          6           0       -4.672255   -3.974738   -0.513557
     88          6           0       -6.223572   -3.737545   -0.242465
     89          6           0       -6.295933   -2.211815   -0.120835
     90          6           0       -7.090486   -4.252088   -1.385300
     91          6           0       -4.089416   -4.729383    0.734023
     92          6           0       -4.008649   -6.231950    0.658586
     93          1           0       -4.758710   -6.945399   -0.375401
     94          7           0       -6.922006    0.738377    0.140870
     95          6           0       -7.822614   -0.321401    0.368363
     96          6           0       -9.034696    0.279774    0.859776
     97          6           0       -8.910810    1.691865    0.829187
     98          6           0       -7.556384    1.955375    0.283860
     99          6           0      -10.302918   -0.505435    1.117562
    100          6           0       -9.831521    2.757229    1.255538
    101          8           0       -9.666576    3.927715    0.985134
    102          6           0      -11.189806    2.399654    1.961025
    103          7           0       -4.700937    2.751631   -0.538544
    104          6           0       -5.677010    3.595271   -0.382792
    105          6           0       -5.217612    5.057076   -0.666729
    106          6           0       -3.751464    4.928779   -1.038104
    107          6           0       -3.549549    3.371268   -1.080716
    108          6           0       -6.188689    5.751133   -1.733739
    109          6           0       -2.813012    5.681927   -0.071686
    110          6           0       -2.357622    7.129209   -0.492265
    111          7           0       -3.011870    0.416794   -0.817381
    112          6           0       -2.064813    1.379307   -1.247079
    113          6           0       -0.804859    0.786258   -1.488165
    114          6           0       -1.126254   -0.637364   -1.474627
    115          6           0       -2.472992   -0.749649   -1.025039
    116          6           0        0.417719    1.486911   -2.052095
    117          6           0       -0.525104   -1.890200   -1.748882
    118          8           0        0.609304   -2.201833   -2.088990
    119          6           0       -1.696063   -3.003615   -1.336426
    120          6           0       -1.831902   -3.891197   -2.538638
    121          8           0       -2.141804   -3.497026   -3.667814
    122          8           0       -1.431719   -5.235326   -2.277812
    123          6           0       -1.528551   -6.178945   -3.435166
    124          1           0       -8.294852   -2.437797    0.486265
    125          1           0       -7.732173    4.028312   -0.113671
    126          1           0       -1.528368    3.344581   -1.748551
    127          1           0       -4.497450   -4.494764   -1.455688
    128          1           0       -6.579504   -4.241489    0.656025
    129          1           0       -6.525674   -4.912498   -2.042730
    130          1           0       -7.587657   -3.450304   -1.931931
    131          1           0       -7.859499   -4.957803   -1.071072
    132          1           0       -4.682314   -4.435322    1.599404
    133          1           0       -3.118453   -4.278660    0.940562
    134          1           0       -4.440176   -6.617281    1.582123
    135          1           0       -2.964319   -6.526686    0.555284
    136          1           0      -11.107169   -0.262002    0.423368
    137          1           0      -10.599484   -0.334357    2.153242
    138          1           0      -10.228319   -1.587196    1.007696
    139          1           0      -11.879528    2.137698    1.158258
    140          1           0      -11.633272    3.295407    2.396055
    141          1           0      -11.072666    1.538386    2.617618
    142          1           0       -5.362536    5.547415    0.296087
    143          1           0       -3.570044    5.211867   -2.073807
    144          1           0       -5.620698    6.112792   -2.590769
    145          1           0       -6.663260    6.660378   -1.364218
    146          1           0       -6.869901    4.955178   -2.037393
    147          1           0       -1.922277    5.060239    0.025462
    148          1           0       -3.312568    5.696474    0.897104
    149          1           0       -1.482400    7.025038   -1.134512
    150          1           0       -2.181232    7.873960    0.284072
    151          1           0       -3.178639    7.407304   -1.152232
    152          1           0        0.885591    1.916629   -1.166739
    153          1           0        0.137994    2.286161   -2.737409
    154          1           0        1.040320    0.904826   -2.732755
    155          1           0       -1.374792   -3.532977   -0.438542
    156          1           0       -0.861918   -5.888744   -4.246454
    157          1           0       -2.506102   -6.346002   -3.888262
    158          1           0       -1.126100   -7.072211   -2.957458
 ---------------------------------------------------------------------

 SCF Done:  E(RCAM-B3LYP) =  -4069.85911234     A.U. after   19 cycles

 Excitation energies and oscillator strengths:

 Excited State   1:      Singlet-A      1.6894 eV  733.91 nm  f=0.8730  <S**2>=0.000
     309 -> 315        0.10838
     311 -> 313        0.54280
     312 -> 314       -0.42227
 This state for optimization and/or second-order correction.
 Total Energy, E(TD-HF/TD-DFT) =  -4069.79702954
 Copying the excited state density for this state as the 1-particle RhoCI density.

 Excited State   2:      Singlet-A      1.7683 eV  701.14 nm  f=0.0154  <S**2>=0.000
     309 -> 315        0.11247
     310 -> 316       -0.15163
     311 -> 313        0.41847
     312 -> 314        0.53349

 Excited State   3:      Singlet-A      2.1622 eV  573.40 nm  f=0.0004  <S**2>=0.000
     312 -> 313        0.70020

 Excited State   4:      Singlet-A      2.2090 eV  561.26 nm  f=0.1027  <S**2>=0.000
     309 -> 313        0.63469
     310 -> 313        0.12675
     311 -> 315       -0.23005

 Excited State   5:      Singlet-A      2.3089 eV  536.98 nm  f=0.0813  <S**2>=0.000
     310 -> 314        0.60599
     312 -> 315        0.14082
     312 -> 316        0.29993

 The electronic state is 1-A.
 Alpha  occ. eigenvalues --  -46.87970 -46.87799 -19.24863 -19.24024 -19.19301
 Alpha  occ. eigenvalues --  -19.19150 -19.18660 -19.18494 -19.18474 -19.18363
 Alpha  occ. eigenvalues --  -14.42455 -14.41490 -14.41466 -14.40546 -14.39995
 Alpha  occ. eigenvalues --  -14.39288 -14.39241 -14.39048 -10.38889 -10.38766
 Alpha  occ. eigenvalues --  -10.35350 -10.34880 -10.34332 -10.34191 -10.31575
 Alpha  occ. eigenvalues --  -10.31395 -10.31131 -10.31025 -10.31008 -10.30699
 Alpha  occ. eigenvalues --  -10.30568 -10.30540 -10.30232 -10.30200 -10.30143
 Alpha  occ. eigenvalues --  -10.29985 -10.29954 -10.29931 -10.29587 -10.29473
 Alpha  occ. eigenvalues --  -10.28754 -10.28695 -10.28597 -10.27917 -10.27847
 Alpha  occ. eigenvalues --  -10.27838 -10.27810 -10.27716 -10.27711 -10.27709
 Alpha  occ. eigenvalues --  -10.27621 -10.27600 -10.27548 -10.27517 -10.27496
 Alpha  occ. eigenvalues --  -10.27488 -10.27459 -10.27423 -10.27359 -10.27356
 Alpha  occ. eigenvalues --  -10.27149 -10.27025 -10.26886 -10.26844 -10.26692
 Alpha  occ. eigenvalues --  -10.26571 -10.26495 -10.26431 -10.26398 -10.26227
 Alpha  occ. eigenvalues --  -10.26155 -10.26074 -10.25965 -10.25940 -10.25883
 Alpha  occ. eigenvalues --  -10.25831 -10.25765 -10.25737 -10.25653 -10.25590
 Alpha  occ. eigenvalues --  -10.25484 -10.25318 -10.25192 -10.25159 -10.24370
 Alpha  occ. eigenvalues --  -10.24087  -3.16572  -3.16494  -1.91479  -1.91405
 Alpha  occ. eigenvalues --   -1.91020  -1.90942  -1.90885  -1.90815  -1.15799
 Alpha  occ. eigenvalues --   -1.13310  -1.11006  -1.09283  -1.08716  -1.08697
 Alpha  occ. eigenvalues --   -1.05690  -1.05626  -1.05358  -1.04945  -1.04038
 Alpha  occ. eigenvalues --   -1.03815  -1.03251  -1.02510  -1.02275  -1.01684
 Alpha  occ. eigenvalues --   -0.92612  -0.91855  -0.89865  -0.89139  -0.88653
 Alpha  occ. eigenvalues --   -0.88570  -0.88216  -0.87991  -0.87603  -0.87369
 Alpha  occ. eigenvalues --   -0.87106  -0.86688  -0.86182  -0.86015  -0.84195
 Alpha  occ. eigenvalues --   -0.83992  -0.83740  -0.82905  -0.82525  -0.82138
 Alpha  occ. eigenvalues --   -0.81971  -0.81342  -0.80760  -0.80387  -0.80234
 Alpha  occ. eigenvalues --   -0.79866  -0.78648  -0.78228  -0.77407  -0.77137
 Alpha  occ. eigenvalues --   -0.76882  -0.76628  -0.76202  -0.75661  -0.74946
 Alpha  occ. eigenvalues --   -0.74764  -0.72958  -0.72479  -0.71507  -0.71453
 Alpha  occ. eigenvalues --   -0.69434  -0.69377  -0.68896  -0.68742  -0.67720
 Alpha  occ. eigenvalues --   -0.67427  -0.67007  -0.66137  -0.66018  -0.65394
 Alpha  occ. eigenvalues --   -0.65181  -0.64829  -0.64779  -0.64574  -0.64432
 Alpha  occ. eigenvalues --   -0.64076  -0.62196  -0.61246  -0.60224  -0.60035
 Alpha  occ. eigenvalues --   -0.59429  -0.59398  -0.59132  -0.58978  -0.58351
 Alpha  occ. eigenvalues --   -0.58320  -0.57936  -0.57654  -0.57222  -0.56988
 Alpha  occ. eigenvalues --   -0.56125  -0.56018  -0.55331  -0.55025  -0.54774
 Alpha  occ. eigenvalues --   -0.54460  -0.54083  -0.53742  -0.53665  -0.53356
 Alpha  occ. eigenvalues --   -0.53232  -0.53118  -0.53100  -0.52843  -0.52779
 Alpha  occ. eigenvalues --   -0.52393  -0.52361  -0.52180  -0.52137  -0.51899
 Alpha  occ. eigenvalues --   -0.51742  -0.51680  -0.51584  -0.51446  -0.50698
 Alpha  occ. eigenvalues --   -0.50528  -0.50448  -0.50240  -0.50103  -0.50011
 Alpha  occ. eigenvalues --   -0.49949  -0.49809  -0.49497  -0.49437  -0.49364
 Alpha  occ. eigenvalues --   -0.49137  -0.49068  -0.48759  -0.48697  -0.48484
 Alpha  occ. eigenvalues --   -0.48301  -0.48208  -0.48090  -0.48015  -0.47932
 Alpha  occ. eigenvalues --   -0.47662  -0.47497  -0.47430  -0.47347  -0.47121
 Alpha  occ. eigenvalues --   -0.46984  -0.46845  -0.46763  -0.46617  -0.46580
 Alpha  occ. eigenvalues --   -0.46366  -0.46183  -0.45668  -0.45656  -0.45542
 Alpha  occ. eigenvalues --   -0.45128  -0.44879  -0.44854  -0.44658  -0.44596
 Alpha  occ. eigenvalues --   -0.44526  -0.44363  -0.44121  -0.44078  -0.43954
 Alpha  occ. eigenvalues --   -0.43682  -0.43533  -0.43456  -0.43325  -0.43176
 Alpha  occ. eigenvalues --   -0.42980  -0.42919  -0.42778  -0.42718  -0.42467
 Alpha  occ. eigenvalues --   -0.42334  -0.42156  -0.42093  -0.41801  -0.41565
 Alpha  occ. eigenvalues --   -0.41538  -0.41408  -0.41331  -0.41284  -0.41196
 Alpha  occ. eigenvalues --   -0.41075  -0.40787  -0.40714  -0.40565  -0.40450
 Alpha  occ. eigenvalues --   -0.39971  -0.39744  -0.39428  -0.39375  -0.39337
 Alpha  occ. eigenvalues --   -0.38602  -0.38427  -0.37587  -0.37419  -0.36991
 Alpha  occ. eigenvalues --   -0.36669  -0.36520  -0.35825  -0.35675  -0.35653
 Alpha  occ. eigenvalues --   -0.35463  -0.35044  -0.34208  -0.33703  -0.33407
 Alpha  occ. eigenvalues --   -0.33335  -0.33035  -0.32527  -0.31508  -0.31110
 Alpha  occ. eigenvalues --   -0.30945  -0.30674  -0.30364  -0.30264  -0.30147
 Alpha  occ. eigenvalues --   -0.29822  -0.29742  -0.29259  -0.24004  -0.23553
 Alpha  occ. eigenvalues --   -0.21412  -0.20426
 Alpha virt. eigenvalues --   -0.08907  -0.07687  -0.01517  -0.01292   0.00281
 Alpha virt. eigenvalues --    0.01144   0.02400   0.02993   0.03797   0.04099
 Alpha virt. eigenvalues --    0.04864   0.04931   0.05402   0.05983   0.06272

 Mulliken charges:
               1
     1  Mg  12.000124
     2  C    6.015469
     3  C    5.994427
     4  C    5.982848
     5  C    6.002003
     6  N    7.007927
     7  C    5.980114
     8  C    6.005199
     9  C    5.995271
    10  C    6.015506
    11  C    5.994201
    12  C    6.003237
    13  C    5.997230
    14  H    1.004520
    15  N    6.991034
    16  C    6.030131
    17  C    6.011261
    18  C    6.011071
    19  C    6.025020
    20  C    5.995018
    21  C    6.009270
    22  O    8.019787
    23  C    5.997656
    24  N    6.994463
    25  C    6.023333
    26  C    5.995402
    27  C    6.004901
    28  C    5.978687
    29  C    5.999045
    30  C    6.006664
    31  C    6.000281
    32  N    7.004467
    33  C    5.971981
    34  C    5.972038
    35  C    5.997466
    36  C    5.975270
    37  C    6.000408
    38  C    5.983798
    39  O    7.984814
    40  C    5.997524
    41  C    5.999744
    42  O    7.998989
    43  O    7.998867
    44  C    6.000390
    45  H    1.010099
    46  H    1.003762
    47  H    0.995339
    48  H    1.003835
    49  H    1.003201
    50  H    1.003657
    51  H    1.010233
    52  H    1.000736
    53  H    0.994459
    54  H    1.001275
    55  H    0.999429
    56  H    0.998475
    57  H    1.012778
    58  H    1.013640
    59  H    1.011196
    60  H    1.004527
    61  H    1.003758
    62  H    1.010819
    63  H    0.999728
    64  H    1.001369
    65  H    1.008229
    66  H    1.002869
    67  H    0.996413
    68  H    0.993470
    69  H    0.993186
    70  H    0.998738
    71  H    1.000751
    72  H    1.000157
    73  H    0.974519
    74  H    0.996493
    75  H    0.997786
    76  H    0.993948
    77  H    0.998769
    78  H    0.997306
    79  H    1.001302
    80  Mg  12.001747
    81  C    5.978212
    82  C    6.004858
    83  C    6.020035
    84  C    5.999094
    85  N    6.988442
    86  C    6.028193
    87  C    5.990385
    88  C    6.010480
    89  C    5.977744
    90  C    6.004826
    91  C    5.997292
    92  C    6.000726
    93  H    1.001075
    94  N    7.010824
    95  C    5.966952
    96  C    5.984346
    97  C    5.984027
    98  C    5.972601
    99  C    6.005161
   100  C    5.992830
   101  O    7.974991
   102  C    6.002116
   103  N    7.007865
   104  C    5.974408
   105  C    6.002496
   106  C    5.996436
   107  C    6.016337
   108  C    6.002328
   109  C    5.997598
   110  C    6.000671
   111  N    6.998515
   112  C    6.028827
   113  C    6.033460
   114  C    6.008201
   115  C    6.025998
   116  C    5.998455
   117  C    6.014201
   118  O    8.024393
   119  C    6.006424
   120  C    6.002511
   121  O    8.000902
   122  O    8.001956
   123  C    5.999294
   124  H    0.986862
   125  H    0.997059
   126  H    1.009556
   127  H    0.996376
   128  H    0.995973
   129  H    0.986273
   130  H    1.000824
   131  H    0.995255
   132  H    1.008078
   133  H    0.997009
   134  H    1.001640
   135  H    0.996088
   136  H    0.983245
   137  H    0.984636
   138  H    0.985331
   139  H    0.992375
   140  H    0.987128
   141  H    0.996181
   142  H    1.001383
   143  H    0.997583
   144  H    0.991729
   145  H    0.998545
   146  H    1.004056
   147  H    0.997693
   148  H    1.007974
   149  H    0.997436
   150  H    1.002205
   151  H    1.003596
   152  H    1.020125
   153  H    1.008887
   154  H    1.005344
   155  H    1.007446
   156  H    0.998575
   157  H    1.004282
   158  H    1.001912
 Sum of Mulliken charges = 624.00000

 Dipole moment (field-independent basis, Debye):
    X=             16.0584    Y=              0.3152    Z=             -3.8178  Tot=             16.5090
 Quadrupole moment (field-independent basis, Debye-Ang):
   XX=            -16.7080   YY=              1.7143   ZZ=              0.3135
   XY=             12.5533   XZ=              1.4620   YZ=             -1.6745

 Normal termination of Gaussian 16 at Thu Sep 23 02:21:20 2021.
