 Gaussian 16, Revision A.03,
 Gaussian 16:  ES64L-G16RevA.03 25-Dec-2016

 -----------------------------------
 #p cam-b3lyp/Def2SVP td=(nstates=5)
 -----------------------------------

 --------------------------------
 TDDFT excited states in gaussian
 --------------------------------
 Symbolic Z-matrix:
 Charge =  0 Multiplicity = 1

                         Standard orientation:
 ---------------------------------------------------------------------
 Center     Atomic      Atomic             Coordinates (Angstroms)
 Number     Number       Type             X           Y           Z
 ---------------------------------------------------------------------
      1         12           0      -27.211057   -0.623046   -0.147678
      2          6           0      -25.439090    2.097419   -1.256274
      3          6           0      -28.969924    1.452521    1.939386
      4          6           0      -28.934738   -3.376468    1.067121
      5          6           0      -25.113426   -2.723349   -1.939054
      6          7           0      -27.190282    1.563532    0.355723
      7          6           0      -26.414986    2.458090   -0.325532
      8          6           0      -26.678273    3.816736    0.113253
      9          6           0      -27.642649    3.686317    1.281581
     10          6           0      -27.963819    2.128214    1.251022
     11          6           0      -27.181725    4.174264    2.698406
     12          6           0      -27.217121    4.709419   -1.056060
     13          6           0      -26.822790    6.226654   -1.034403
     14          1           0      -26.560858    6.866675    0.343059
     15          7           0      -28.827283   -0.872965    1.232294
     16          6           0      -29.410853    0.141113    1.972234
     17          6           0      -30.470647   -0.437794    2.822638
     18          6           0      -30.478401   -1.877264    2.570330
     19          6           0      -29.412404   -2.102893    1.578734
     20          6           0      -31.330683    0.355556    3.792820
     21          6           0      -31.456079   -2.900297    3.099820
     22          8           0      -31.362747   -4.079509    2.716166
     23          6           0      -32.523203   -2.616705    4.089709
     24          7           0      -27.011034   -2.758830   -0.329137
     25          6           0      -27.865871   -3.628918    0.216165
     26          6           0      -27.587232   -5.055193   -0.286650
     27          6           0      -26.499193   -4.861010   -1.477948
     28          6           0      -26.246263   -3.323620   -1.290255
     29          6           0      -27.125677   -5.987612    0.875474
     30          6           0      -27.015845   -5.163409   -2.911279
     31          6           0      -26.409285   -6.400392   -3.590502
     32          7           0      -25.540364   -0.417944   -1.318572
     33          6           0      -24.763114   -1.368060   -1.985049
     34          6           0      -23.673780   -0.701498   -2.732571
     35          6           0      -23.928961    0.657247   -2.431710
     36          6           0      -25.054079    0.772773   -1.572173
     37          6           0      -22.671551   -1.298701   -3.591866
     38          6           0      -23.509704    2.034452   -2.764397
     39          8           0      -22.672485    2.454784   -3.518139
     40          6           0      -24.453417    3.009975   -1.974816
     41          6           0      -23.617156    3.928987   -1.186238
     42          8           0      -23.004810    3.518014   -0.187408
     43          8           0      -23.694501    5.236369   -1.557639
     44          6           0      -23.063455    6.244153   -0.711289
     45          1           0      -29.512363    2.140599    2.591135
     46          1           0      -29.463746   -4.233855    1.488998
     47          1           0      -24.562448   -3.410086   -2.584863
     48          1           0      -25.738869    4.239759    0.470830
     49          1           0      -28.618327    4.109528    1.039916
     50          1           0      -26.204126    4.629306    2.860869
     51          1           0      -27.253498    3.328455    3.381749
     52          1           0      -27.878921    4.869924    3.166042
     53          1           0      -28.296127    4.582769   -1.145234
     54          1           0      -26.954448    4.240327   -2.004060
     55          1           0      -27.590213    6.818416   -1.534181
     56          1           0      -25.862907    6.422372   -1.511420
     57          1           0      -31.186924    1.432760    3.716143
     58          1           0      -31.087040    0.107545    4.826271
     59          1           0      -32.380844    0.274877    3.512762
     60          1           0      -33.100345   -3.535569    4.188633
     61          1           0      -33.176015   -1.791311    3.802700
     62          1           0      -32.072457   -2.264426    5.017675
     63          1           0      -28.493279   -5.393786   -0.789345
     64          1           0      -25.568183   -5.393562   -1.284076
     65          1           0      -27.667686   -6.932535    0.915810
     66          1           0      -27.270474   -5.503686    1.841753
     67          1           0      -26.054823   -6.104839    0.707559
     68          1           0      -26.860155   -4.340372   -3.607752
     69          1           0      -28.096754   -5.304088   -2.931929
     70          1           0      -26.110505   -7.121652   -2.829746
     71          1           0      -25.517584   -6.082762   -4.130029
     72          1           0      -27.138253   -6.739382   -4.325414
     73          1           0      -22.218796   -0.580575   -4.275181
     74          1           0      -23.052411   -2.129099   -4.186089
     75          1           0      -21.812159   -1.548862   -2.969629
     76          1           0      -24.978210    3.496880   -2.797476
     77          1           0      -21.975658    6.180360   -0.672885
     78          1           0      -23.513141    6.257648    0.281491
     79          1           0      -23.245598    7.233920   -1.129669
     80         12           0       27.350938   -0.619057    0.151130
     81          6           0       25.513238    2.237144    1.071970
     82          6           0       28.354430    1.109768   -2.694000
     83          6           0       28.798670   -3.440692   -0.833767
     84          6           0       25.556372   -2.501216    2.626507
     85          7           0       26.962421    1.399267   -0.711578
     86          6           0       26.267826    2.433354   -0.068402
     87          6           0       26.658767    3.759349   -0.694245
     88          6           0       27.328462    3.384310   -2.046858
     89          6           0       27.571423    1.864243   -1.803538
     90          6           0       26.540148    3.762183   -3.340115
     91          6           0       27.531995    4.683872    0.223100
     92          6           0       27.306410    6.241372   -0.017795
     93          1           0       26.333078    6.660216   -1.122875
     94          7           0       28.493580   -1.039253   -1.415909
     95          6           0       28.860184   -0.183759   -2.440546
     96          6           0       29.801340   -0.816728   -3.318784
     97          6           0       29.856998   -2.179708   -2.884300
     98          6           0       29.071035   -2.243123   -1.665018
     99          6           0       30.421815   -0.120016   -4.568106
    100          6           0       30.566224   -3.334167   -3.513246
    101          8           0       30.397121   -4.508187   -3.105745
    102          6           0       31.510675   -3.351272   -4.751091
    103          7           0       27.012342   -2.730480    0.608577
    104          6           0       27.828588   -3.688319    0.129857
    105          6           0       27.671173   -4.994082    0.948922
    106          6           0       26.627105   -4.713196    2.035564
    107          6           0       26.410950   -3.159445    1.763109
    108          6           0       27.461583   -6.185893    0.065395
    109          6           0       27.022184   -5.036853    3.492442
    110          6           0       28.272721   -4.291572    4.020547
    111          7           0       25.777834   -0.284922    1.560111
    112          6           0       25.312153   -1.082339    2.549581
    113          6           0       24.519620   -0.231120    3.435593
    114          6           0       24.559345    1.106219    2.950935
    115          6           0       25.311204    1.023531    1.753738
    116          6           0       23.875199   -0.668266    4.748424
    117          6           0       24.123649    2.448106    3.172172
    118          8           0       23.535420    3.013062    4.090420
    119          6           0       24.705104    3.279059    1.852000
    120          6           0       23.557238    4.003276    1.174096
    121          8           0       22.775755    3.463452    0.415754
    122          8           0       23.592918    5.350092    1.455667
    123          6           0       22.393915    6.150666    1.229777
    124          1           0       28.705862    1.783948   -3.477620
    125          1           0       29.376311   -4.311335   -1.150309
    126          1           0       25.154054   -3.111542    3.437373
    127          1           0       25.758937    4.338123   -0.902129
    128          1           0       28.294541    3.887653   -2.071488
    129          1           0       26.453389    2.801969   -3.847498
    130          1           0       27.146893    4.394238   -3.989666
    131          1           0       25.541972    4.192456   -3.259145
    132          1           0       28.594939    4.555482    0.021100
    133          1           0       27.358528    4.404894    1.261625
    134          1           0       28.249387    6.652312   -0.378718
    135          1           0       27.001322    6.673753    0.934821
    136          1           0       30.480821   -0.864721   -5.362791
    137          1           0       31.436952    0.233152   -4.389966
    138          1           0       29.966679    0.767787   -5.006889
    139          1           0       32.339513   -2.656649   -4.611716
    140          1           0       30.980956   -3.154865   -5.683213
    141          1           0       32.147862   -4.232387   -4.816883
    142          1           0       28.666494   -5.215626    1.331947
    143          1           0       25.709134   -5.165395    1.658482
    144          1           0       28.362840   -6.787312   -0.054940
    145          1           0       27.065996   -5.867765   -0.899315
    146          1           0       26.688503   -6.871036    0.415061
    147          1           0       27.255294   -6.101128    3.453754
    148          1           0       26.174648   -4.869621    4.157797
    149          1           0       27.921257   -3.718790    4.878501
    150          1           0       28.618442   -3.647251    3.212150
    151          1           0       29.123226   -4.938083    4.237360
    152          1           0       24.014091    0.060373    5.546602
    153          1           0       24.362283   -1.553347    5.156663
    154          1           0       22.836006   -0.927609    4.544286
    155          1           0       25.358476    4.037907    2.283286
    156          1           0       21.955919    5.794491    0.296990
    157          1           0       22.571546    7.220555    1.120205
    158          1           0       21.781434    6.012915    2.120874
 ---------------------------------------------------------------------

 SCF Done:  E(RCAM-B3LYP) =  -4069.85614007     A.U. after   18 cycles

 Excitation energies and oscillator strengths:

 Excited State   1:      Singlet-A      1.6591 eV  747.30 nm  f=0.4037  <S**2>=0.000
     309 -> 316       -0.16731
     311 -> 313        0.68827
     309 <- 316       -0.10535
 This state for optimization and/or second-order correction.
 Total Energy, E(TD-HF/TD-DFT) =  -4069.79516956
 Copying the excited state density for this state as the 1-particle RhoCI density.

 Excited State   2:      Singlet-A      1.7299 eV  716.72 nm  f=0.3887  <S**2>=0.000
     310 -> 315       -0.18859
     312 -> 314        0.68241
     310 <- 315       -0.10885

 Excited State   3:      Singlet-A      2.1919 eV  565.65 nm  f=0.1542  <S**2>=0.000
     309 -> 313        0.65721
     311 -> 316        0.24506

 Excited State   4:      Singlet-A      2.2550 eV  549.81 nm  f=0.0852  <S**2>=0.000
     310 -> 314        0.62545
     312 -> 315        0.31653

 Excited State   5:      Singlet-A      2.9741 eV  416.88 nm  f=0.0000  <S**2>=0.000
     312 -> 313        0.70711

 The electronic state is 1-A.
 Alpha  occ. eigenvalues --  -46.88887 -46.88872 -19.25957 -19.24233 -19.19336
 Alpha  occ. eigenvalues --  -19.19284 -19.19234 -19.19029 -19.18353 -19.18342
 Alpha  occ. eigenvalues --  -14.42528 -14.41815 -14.41707 -14.41410 -14.40251
 Alpha  occ. eigenvalues --  -14.39477 -14.39357 -14.39231 -10.39543 -10.39094
 Alpha  occ. eigenvalues --  -10.35566 -10.35456 -10.34949 -10.34837 -10.32301
 Alpha  occ. eigenvalues --  -10.31519 -10.31389 -10.30915 -10.30900 -10.30778
 Alpha  occ. eigenvalues --  -10.30709 -10.30634 -10.30596 -10.30447 -10.30401
 Alpha  occ. eigenvalues --  -10.30330 -10.30092 -10.30002 -10.29906 -10.29831
 Alpha  occ. eigenvalues --  -10.29494 -10.29291 -10.29270 -10.29139 -10.29016
 Alpha  occ. eigenvalues --  -10.28680 -10.28381 -10.28267 -10.28221 -10.28179
 Alpha  occ. eigenvalues --  -10.28132 -10.27987 -10.27954 -10.27924 -10.27887
 Alpha  occ. eigenvalues --  -10.27831 -10.27753 -10.27512 -10.27502 -10.27498
 Alpha  occ. eigenvalues --  -10.27454 -10.27444 -10.27434 -10.27376 -10.27365
 Alpha  occ. eigenvalues --  -10.27204 -10.26973 -10.26863 -10.26704 -10.26569
 Alpha  occ. eigenvalues --  -10.26470 -10.26312 -10.26236 -10.26091 -10.26053
 Alpha  occ. eigenvalues --  -10.26052 -10.26050 -10.26002 -10.25996 -10.25595
 Alpha  occ. eigenvalues --  -10.25577 -10.25495 -10.25341 -10.25271 -10.25237
 Alpha  occ. eigenvalues --  -10.24886  -3.17457  -3.17295  -1.92327  -1.92216
 Alpha  occ. eigenvalues --   -1.91913  -1.91771  -1.91734  -1.91602  -1.16422
 Alpha  occ. eigenvalues --   -1.15424  -1.10932  -1.09425  -1.08907  -1.08392
 Alpha  occ. eigenvalues --   -1.07431  -1.07109  -1.05106  -1.04307  -1.04037
 Alpha  occ. eigenvalues --   -1.03447  -1.03361  -1.03194  -1.02093  -1.00942
 Alpha  occ. eigenvalues --   -0.92472  -0.92166  -0.89189  -0.89112  -0.88529
 Alpha  occ. eigenvalues --   -0.88266  -0.88127  -0.87693  -0.87347  -0.87179
 Alpha  occ. eigenvalues --   -0.86780  -0.86718  -0.86244  -0.85294  -0.83930
 Alpha  occ. eigenvalues --   -0.83797  -0.83551  -0.83316  -0.82311  -0.82165
 Alpha  occ. eigenvalues --   -0.81859  -0.81200  -0.81044  -0.80606  -0.80535
 Alpha  occ. eigenvalues --   -0.80019  -0.78687  -0.78421  -0.77541  -0.77294
 Alpha  occ. eigenvalues --   -0.76929  -0.76751  -0.76221  -0.75815  -0.74965
 Alpha  occ. eigenvalues --   -0.74876  -0.72581  -0.72521  -0.71493  -0.71063
 Alpha  occ. eigenvalues --   -0.69905  -0.69225  -0.69116  -0.68341  -0.68313
 Alpha  occ. eigenvalues --   -0.68014  -0.67505  -0.66905  -0.65822  -0.65430
 Alpha  occ. eigenvalues --   -0.65197  -0.65012  -0.64893  -0.64313  -0.64131
 Alpha  occ. eigenvalues --   -0.64112  -0.62709  -0.61613  -0.60886  -0.59835
 Alpha  occ. eigenvalues --   -0.59573  -0.59468  -0.59204  -0.58773  -0.58735
 Alpha  occ. eigenvalues --   -0.58208  -0.58051  -0.57398  -0.57273  -0.56932
 Alpha  occ. eigenvalues --   -0.56036  -0.55950  -0.55878  -0.55742  -0.55327
 Alpha  occ. eigenvalues --   -0.54901  -0.54723  -0.54704  -0.53959  -0.53922
 Alpha  occ. eigenvalues --   -0.53454  -0.53431  -0.53029  -0.52907  -0.52768
 Alpha  occ. eigenvalues --   -0.52756  -0.52524  -0.52399  -0.52329  -0.52201
 Alpha  occ. eigenvalues --   -0.51968  -0.51646  -0.51488  -0.51299  -0.51263
 Alpha  occ. eigenvalues --   -0.51152  -0.51005  -0.50700  -0.50191  -0.49997
 Alpha  occ. eigenvalues --   -0.49946  -0.49827  -0.49496  -0.49352  -0.49259
 Alpha  occ. eigenvalues --   -0.49184  -0.49007  -0.48976  -0.48746  -0.48584
 Alpha  occ. eigenvalues --   -0.48522  -0.48458  -0.48168  -0.48096  -0.47934
 Alpha  occ. eigenvalues --   -0.47853  -0.47731  -0.47454  -0.47395  -0.47182
 Alpha  occ. eigenvalues --   -0.47089  -0.46681  -0.46662  -0.46355  -0.46273
 Alpha  occ. eigenvalues --   -0.46271  -0.45852  -0.45810  -0.45689  -0.45496
 Alpha  occ. eigenvalues --   -0.45442  -0.45183  -0.45182  -0.44902  -0.44698
 Alpha  occ. eigenvalues --   -0.44529  -0.44512  -0.44310  -0.44218  -0.44056
 Alpha  occ. eigenvalues --   -0.43978  -0.43787  -0.43583  -0.43473  -0.43382
 Alpha  occ. eigenvalues --   -0.43148  -0.43114  -0.43023  -0.42993  -0.42619
 Alpha  occ. eigenvalues --   -0.42603  -0.42394  -0.42126  -0.41904  -0.41826
 Alpha  occ. eigenvalues --   -0.41825  -0.41581  -0.41511  -0.41471  -0.41138
 Alpha  occ. eigenvalues --   -0.40894  -0.40713  -0.40670  -0.40584  -0.40319
 Alpha  occ. eigenvalues --   -0.40078  -0.39975  -0.39612  -0.39521  -0.39222
 Alpha  occ. eigenvalues --   -0.38659  -0.38170  -0.37782  -0.37614  -0.37459
 Alpha  occ. eigenvalues --   -0.37203  -0.36801  -0.36696  -0.36607  -0.36290
 Alpha  occ. eigenvalues --   -0.36007  -0.35945  -0.34022  -0.33990  -0.33953
 Alpha  occ. eigenvalues --   -0.33721  -0.33098  -0.33038  -0.31447  -0.31117
 Alpha  occ. eigenvalues --   -0.30878  -0.30772  -0.30717  -0.30678  -0.30275
 Alpha  occ. eigenvalues --   -0.30047  -0.29489  -0.29470  -0.24102  -0.23865
 Alpha  occ. eigenvalues --   -0.21362  -0.20786
 Alpha virt. eigenvalues --   -0.09223  -0.08274  -0.01705  -0.01390  -0.00029
 Alpha virt. eigenvalues --    0.00561   0.01381   0.02188   0.02562   0.03108
 Alpha virt. eigenvalues --    0.04484   0.05229   0.05252   0.05408   0.06021

 Mulliken charges:
               1
     1  Mg   0.814807
     2  C   -0.017243
     3  C   -0.070465
     4  C   -0.047031
     5  C   -0.073577
     6  N   -0.243868
     7  C   -0.051370
     8  C   -0.008507
     9  C    0.010441
    10  C   -0.041616
    11  C    0.066174
    12  C    0.061605
    13  C   -0.064233
    14  H    0.001616
    15  N   -0.381019
    16  C    0.179985
    17  C   -0.151782
    18  C   -0.018618
    19  C    0.094777
    20  C    0.107323
    21  C   -0.005721
    22  O   -0.232221
    23  C    0.074382
    24  N   -0.261016
    25  C    0.046039
    26  C   -0.044092
    27  C   -0.048511
    28  C    0.017409
    29  C    0.079028
    30  C    0.027472
    31  C    0.003014
    32  N   -0.356654
    33  C    0.120864
    34  C   -0.149999
    35  C   -0.006745
    36  C    0.104778
    37  C    0.121497
    38  C    0.014243
    39  O   -0.146061
    40  C    0.025542
    41  C    0.218352
    42  O   -0.248910
    43  O   -0.321515
    44  C    0.184509
    45  H   -0.049205
    46  H    0.001130
    47  H   -0.028715
    48  H    0.022841
    49  H    0.008021
    50  H    0.027379
    51  H    0.010398
    52  H    0.004931
    53  H   -0.006439
    54  H    0.001659
    55  H    0.031392
    56  H    0.046808
    57  H    0.002017
    58  H    0.041589
    59  H    0.029944
    60  H    0.037752
    61  H    0.020612
    62  H    0.031148
    63  H    0.014336
    64  H    0.014678
    65  H    0.025702
    66  H    0.024985
    67  H    0.008101
    68  H    0.007533
    69  H    0.001689
    70  H    0.019694
    71  H    0.010877
    72  H    0.018614
    73  H    0.025110
    74  H    0.026366
    75  H    0.033648
    76  H    0.036807
    77  H    0.048284
    78  H    0.035146
    79  H    0.032086
    80  Mg   0.835545
    81  C    0.031233
    82  C   -0.057062
    83  C   -0.053483
    84  C   -0.058909
    85  N   -0.269260
    86  C   -0.044949
    87  C    0.002000
    88  C   -0.047173
    89  C   -0.014830
    90  C    0.074618
    91  C    0.034729
    92  C   -0.076607
    93  H    0.020640
    94  N   -0.405730
    95  C    0.178216
    96  C   -0.125147
    97  C   -0.000854
    98  C    0.109729
    99  C    0.101759
   100  C   -0.004295
   101  O   -0.244047
   102  C    0.051037
   103  N   -0.270214
   104  C    0.053240
   105  C   -0.078196
   106  C    0.027903
   107  C   -0.007813
   108  C    0.069550
   109  C    0.031240
   110  C    0.009340
   111  N   -0.344256
   112  C    0.135691
   113  C   -0.189177
   114  C    0.048247
   115  C    0.088848
   116  C    0.113942
   117  C    0.043020
   118  O   -0.170944
   119  C   -0.068832
   120  C    0.209052
   121  O   -0.207525
   122  O   -0.347386
   123  C    0.172011
   124  H   -0.027411
   125  H   -0.004063
   126  H   -0.028292
   127  H    0.008156
   128  H    0.006965
   129  H    0.010123
   130  H    0.012671
   131  H    0.036582
   132  H    0.005601
   133  H    0.014509
   134  H    0.032429
   135  H    0.046719
   136  H    0.016016
   137  H    0.027828
   138  H    0.023622
   139  H    0.009450
   140  H    0.052516
   141  H    0.022983
   142  H    0.010390
   143  H    0.010010
   144  H    0.021264
   145  H    0.019822
   146  H   -0.000299
   147  H    0.007280
   148  H    0.015373
   149  H    0.024405
   150  H    0.019923
   151  H    0.019844
   152  H    0.034812
   153  H   -0.002158
   154  H    0.035990
   155  H    0.036124
   156  H    0.043661
   157  H    0.035892
   158  H    0.046361
 Sum of Mulliken charges =  -0.00000

 Dipole moment (field-independent basis, Debye):
    X=              1.3463    Y=              3.4454    Z=             -0.8251  Tot=              3.7901
 Quadrupole moment (field-independent basis, Debye-Ang):
   XX=           -114.0542   YY=           -477.9644   ZZ=           -502.0594
   XY=            -15.7476   XZ=            -60.3119   YZ=             -7.4424

 Normal termination of Gaussian 16 at Thu Sep  2 05:05:31 2021.
