 Gaussian 16, Revision A.03,
 Gaussian 16:  ES64L-G16RevA.03 25-Dec-2016

 ----------------------------------------------------------
 #p cam-b3lyp/Def2SVP td=(nstates=5) density=(transition=1)
 ----------------------------------------------------------

 --------------------------------
 TDDFT excited states in gaussian
 --------------------------------
 Symbolic Z-matrix:
 Charge =  0 Multiplicity = 1

                         Standard orientation:
 ---------------------------------------------------------------------
 Center     Atomic      Atomic             Coordinates (Angstroms)
 Number     Number       Type             X           Y           Z
 ---------------------------------------------------------------------
      1         12           0       25.141811   -0.771748    0.297664
      2          6           0       25.110463    2.299986   -1.337166
      3          6           0       25.640807    0.782915    3.244773
      4          6           0       25.606142   -3.806189    1.712602
      5          6           0       25.121978   -2.294074   -2.796188
      6          7           0       25.369561    1.360062    0.858798
      7          6           0       25.110105    2.437488    0.050474
      8          6           0       25.147295    3.692880    0.836170
      9          6           0       25.368789    3.285439    2.297436
     10          6           0       25.456277    1.701843    2.194917
     11          6           0       26.509715    3.922942    3.075117
     12          6           0       23.805582    4.590501    0.590845
     13          6           0       23.984196    5.993956   -0.034191
     14          1           0       23.167003    7.166457    0.449894
     15          7           0       25.442807   -1.429192    2.222088
     16          6           0       25.644576   -0.623083    3.332366
     17          6           0       25.891816   -1.433158    4.469244
     18          6           0       25.892677   -2.791360    4.050570
     19          6           0       25.619814   -2.720745    2.611408
     20          6           0       25.981384   -0.733780    5.881792
     21          6           0       26.203348   -3.989929    4.945436
     22          8           0       26.281292   -5.168217    4.565996
     23          6           0       26.352603   -3.795477    6.390233
     24          7           0       25.589143   -2.786790   -0.408918
     25          6           0       25.623030   -3.867683    0.342726
     26          6           0       25.900416   -5.126480   -0.509689
     27          6           0       25.240528   -4.617898   -1.851597
     28          6           0       25.289163   -3.102706   -1.682247
     29          6           0       27.374205   -5.613896   -0.767836
     30          6           0       23.756166   -5.132264   -2.173350
     31          6           0       22.686997   -4.819392   -1.208437
     32          7           0       25.164766   -0.191697   -1.770795
     33          6           0       25.139584   -0.950366   -2.957464
     34          6           0       25.131666   -0.069613   -4.081736
     35          6           0       25.185836    1.195003   -3.530335
     36          6           0       25.095870    1.065895   -2.105610
     37          6           0       25.333952   -0.441108   -5.468733
     38          6           0       25.057977    2.542221   -3.833772
     39          8           0       24.985312    3.138539   -4.913199
     40          6           0       25.099546    3.357532   -2.461728
     41          6           0       26.408098    4.076360   -2.467712
     42          8           0       27.550939    3.674764   -2.533853
     43          8           0       26.089784    5.370921   -2.414308
     44          6           0       27.241757    6.330313   -2.376636
     45          1           0       25.570678    1.395488    4.146016
     46          1           0       25.604480   -4.765878    2.232259
     47          1           0       25.049369   -2.791331   -3.765465
     48          1           0       26.011806    4.233425    0.452773
     49          1           0       24.457967    3.486492    2.860991
     50          1           0       27.235989    3.133403    2.885730
     51          1           0       26.301987    4.149083    4.121122
     52          1           0       26.949097    4.855964    2.723302
     53          1           0       23.269597    4.680450    1.535225
     54          1           0       23.118349    4.159616   -0.137704
     55          1           0       23.672566    5.898658   -1.074741
     56          1           0       25.032256    6.283783   -0.096669
     57          1           0       26.905273   -1.051706    6.364588
     58          1           0       25.141925   -1.259114    6.337404
     59          1           0       26.036584    0.354215    5.919458
     60          1           0       27.141402   -3.077131    6.609221
     61          1           0       26.824733   -4.706016    6.758408
     62          1           0       25.425606   -3.611497    6.933915
     63          1           0       25.215222   -5.911217   -0.188758
     64          1           0       25.899012   -5.014983   -2.623773
     65          1           0       28.107960   -4.828883   -0.946770
     66          1           0       27.251321   -6.272013   -1.628752
     67          1           0       27.745178   -6.187019    0.082288
     68          1           0       23.687753   -6.215706   -2.274221
     69          1           0       23.326893   -4.592315   -3.017268
     70          1           0       22.417411   -3.795802   -1.464804
     71          1           0       22.912758   -4.823356   -0.141645
     72          1           0       21.756347   -5.383256   -1.262931
     73          1           0       26.418293   -0.520052   -5.555315
     74          1           0       24.970350    0.275693   -6.204436
     75          1           0       24.793978   -1.342859   -5.759548
     76          1           0       24.229981    3.997545   -2.311874
     77          1           0       27.263990    6.681931   -1.344903
     78          1           0       27.081129    7.125466   -3.104318
     79          1           0       28.237350    5.926391   -2.562472
     80         12           0      -25.938793   -0.350201   -0.362262
     81          6           0      -23.860513    2.419545   -0.079900
     82          6           0      -27.988119    1.091655    1.981765
     83          6           0      -27.876435   -3.205957   -0.433700
     84          6           0      -23.553514   -2.001624   -2.294573
     85          7           0      -25.952665    1.582899    0.727760
     86          6           0      -25.085664    2.603948    0.618224
     87          6           0      -25.502216    3.892774    1.364576
     88          6           0      -26.726810    3.360030    2.225052
     89          6           0      -26.911565    1.872651    1.655093
     90          6           0      -26.360646    3.452987    3.749274
     91          6           0      -25.893869    4.984070    0.241219
     92          6           0      -25.172442    6.361261    0.327748
     93          1           0      -24.572843    6.682014    1.744554
     94          7           0      -27.640701   -1.042458    0.658002
     95          6           0      -28.389040   -0.233791    1.538198
     96          6           0      -29.636572   -0.904200    1.836764
     97          6           0      -29.606801   -2.152275    1.201828
     98          6           0      -28.360179   -2.163857    0.350140
     99          6           0      -30.570750   -0.391533    2.942052
    100          6           0      -30.651438   -3.296158    1.292151
    101          8           0      -30.573146   -4.386993    0.696705
    102          6           0      -31.926105   -3.051115    2.117869
    103          7           0      -25.658890   -2.336043   -1.194769
    104          6           0      -26.691439   -3.318867   -1.108026
    105          6           0      -26.202864   -4.662677   -1.687932
    106          6           0      -24.933094   -4.172415   -2.528351
    107          6           0      -24.719607   -2.726044   -2.009850
    108          6           0      -25.968396   -5.648474   -0.555252
    109          6           0      -25.233599   -4.167111   -4.086464
    110          6           0      -26.452942   -3.459896   -4.770306
    111          7           0      -24.073592    0.036141   -0.995388
    112          6           0      -23.187372   -0.722004   -1.766725
    113          6           0      -21.996294    0.033094   -1.984211
    114          6           0      -22.218045    1.264708   -1.394959
    115          6           0      -23.454735    1.205668   -0.706154
    116          6           0      -20.724268   -0.429360   -2.664985
    117          6           0      -21.646776    2.534058   -1.175796
    118          8           0      -20.548978    2.888943   -1.466282
    119          6           0      -22.649429    3.290373   -0.209296
    120          6           0      -21.922225    3.454069    1.096677
    121          8           0      -22.161237    2.803638    2.092621
    122          8           0      -20.983418    4.390891    0.917726
    123          6           0      -19.940141    4.337974    1.912412
    124          1           0      -28.688464    1.575846    2.665175
    125          1           0      -28.365583   -4.165126   -0.255222
    126          1           0      -22.790910   -2.509659   -2.889414
    127          1           0      -24.725312    4.341465    1.983310
    128          1           0      -27.668961    3.880919    2.052846
    129          1           0      -26.639862    2.584212    4.345875
    130          1           0      -26.948439    4.334279    4.004465
    131          1           0      -25.310124    3.737920    3.801713
    132          1           0      -26.981298    5.054994    0.229821
    133          1           0      -25.645830    4.538977   -0.722664
    134          1           0      -25.987827    7.035900    0.069031
    135          1           0      -24.367962    6.505954   -0.392739
    136          1           0      -30.700190   -1.207769    3.653208
    137          1           0      -31.558051   -0.200379    2.519435
    138          1           0      -30.149347    0.503864    3.397931
    139          1           0      -31.630410   -3.078803    3.167446
    140          1           0      -32.545849   -3.934697    1.966139
    141          1           0      -32.479111   -2.213043    1.694406
    142          1           0      -26.974369   -4.948883   -2.403345
    143          1           0      -24.117156   -4.885146   -2.414083
    144          1           0      -26.605961   -5.466251    0.310007
    145          1           0      -24.931232   -5.610873   -0.222903
    146          1           0      -26.223936   -6.661422   -0.865598
    147          1           0      -25.212147   -5.201794   -4.428766
    148          1           0      -24.389401   -3.604367   -4.484980
    149          1           0      -27.288758   -4.159566   -4.783606
    150          1           0      -26.123288   -3.237450   -5.785844
    151          1           0      -26.723062   -2.479557   -4.376487
    152          1           0      -20.894722   -0.727838   -3.699529
    153          1           0      -20.422168   -1.299935   -2.083159
    154          1           0      -19.963165    0.337389   -2.816270
    155          1           0      -22.973220    4.291372   -0.494929
    156          1           0      -18.965452    4.662233    1.548562
    157          1           0      -19.806104    3.468729    2.556110
    158          1           0      -20.095391    5.030134    2.740290
 ---------------------------------------------------------------------

 SCF Done:  E(RCAM-B3LYP) =  -4069.79064604     A.U. after   19 cycles

 Excitation energies and oscillator strengths:

 Excited State   1:      Singlet-A      1.7042 eV  727.53 nm  f=0.3045  <S**2>=0.000
     310 -> 316        0.16552
     311 -> 313       -0.23107
     312 -> 314        0.64635
     310 <- 316        0.10032
 This state for optimization and/or second-order correction.
 Total Energy, E(TD-HF/TD-DFT) =  -4069.72801818
 Copying the excited state density for this state as the 1-particle RhoCI density.

 Excited State   2:      Singlet-A      1.7047 eV  727.30 nm  f=0.4592  <S**2>=0.000
     309 -> 315        0.16504
     311 -> 313        0.64594
     312 -> 314        0.23120

 Excited State   3:      Singlet-A      2.1769 eV  569.53 nm  f=0.1383  <S**2>=0.000
     309 -> 313        0.65148
     311 -> 315       -0.26309

 Excited State   4:      Singlet-A      2.2267 eV  556.81 nm  f=0.1274  <S**2>=0.000
     310 -> 314        0.64629
     312 -> 316       -0.27557

 Excited State   5:      Singlet-A      3.0770 eV  402.94 nm  f=0.0000  <S**2>=0.000
     312 -> 313        0.70711

 The electronic state is 1-A.
 Alpha  occ. eigenvalues --  -46.89360 -46.88076 -19.26152 -19.25064 -19.20065
 Alpha  occ. eigenvalues --  -19.19359 -19.19092 -19.18688 -19.18610 -19.18229
 Alpha  occ. eigenvalues --  -14.42241 -14.42019 -14.41848 -14.41431 -14.39722
 Alpha  occ. eigenvalues --  -14.39553 -14.39056 -14.39006 -10.39323 -10.38632
 Alpha  occ. eigenvalues --  -10.35118 -10.35094 -10.34826 -10.34175 -10.31719
 Alpha  occ. eigenvalues --  -10.31597 -10.31444 -10.31353 -10.31226 -10.30663
 Alpha  occ. eigenvalues --  -10.30645 -10.30346 -10.30303 -10.30153 -10.30124
 Alpha  occ. eigenvalues --  -10.29897 -10.29825 -10.29810 -10.29658 -10.29634
 Alpha  occ. eigenvalues --  -10.29125 -10.29006 -10.28881 -10.28690 -10.28570
 Alpha  occ. eigenvalues --  -10.28559 -10.28517 -10.28396 -10.28301 -10.28174
 Alpha  occ. eigenvalues --  -10.28139 -10.28136 -10.27904 -10.27884 -10.27851
 Alpha  occ. eigenvalues --  -10.27817 -10.27662 -10.27658 -10.27592 -10.27543
 Alpha  occ. eigenvalues --  -10.27525 -10.27499 -10.27492 -10.27176 -10.27063
 Alpha  occ. eigenvalues --  -10.27007 -10.26729 -10.26711 -10.26683 -10.26526
 Alpha  occ. eigenvalues --  -10.26519 -10.26482 -10.26397 -10.26283 -10.26252
 Alpha  occ. eigenvalues --  -10.26055 -10.25825 -10.25813 -10.25784 -10.25605
 Alpha  occ. eigenvalues --  -10.25602 -10.25256 -10.25200 -10.24750 -10.24679
 Alpha  occ. eigenvalues --  -10.24676  -3.17769  -3.16678  -1.92672  -1.92203
 Alpha  occ. eigenvalues --   -1.92086  -1.91578  -1.91112  -1.91000  -1.18158
 Alpha  occ. eigenvalues --   -1.17026  -1.12013  -1.09145  -1.09081  -1.08581
 Alpha  occ. eigenvalues --   -1.08330  -1.07378  -1.05442  -1.04278  -1.04151
 Alpha  occ. eigenvalues --   -1.03404  -1.03316  -1.02706  -1.02649  -1.01160
 Alpha  occ. eigenvalues --   -0.92796  -0.92233  -0.89240  -0.88768  -0.88531
 Alpha  occ. eigenvalues --   -0.88391  -0.88128  -0.87985  -0.87751  -0.87619
 Alpha  occ. eigenvalues --   -0.87075  -0.86884  -0.86495  -0.86013  -0.84658
 Alpha  occ. eigenvalues --   -0.84308  -0.83930  -0.83396  -0.83093  -0.82282
 Alpha  occ. eigenvalues --   -0.82028  -0.81583  -0.81196  -0.80905  -0.80761
 Alpha  occ. eigenvalues --   -0.79933  -0.78773  -0.77711  -0.77685  -0.77402
 Alpha  occ. eigenvalues --   -0.77106  -0.76731  -0.75969  -0.75856  -0.75387
 Alpha  occ. eigenvalues --   -0.74955  -0.73501  -0.72956  -0.71698  -0.71179
 Alpha  occ. eigenvalues --   -0.69408  -0.69112  -0.68887  -0.68642  -0.67969
 Alpha  occ. eigenvalues --   -0.67795  -0.67232  -0.66366  -0.65851  -0.65779
 Alpha  occ. eigenvalues --   -0.65411  -0.64837  -0.64546  -0.64475  -0.63990
 Alpha  occ. eigenvalues --   -0.63935  -0.62382  -0.62080  -0.60457  -0.59996
 Alpha  occ. eigenvalues --   -0.59945  -0.59399  -0.59330  -0.58956  -0.58638
 Alpha  occ. eigenvalues --   -0.58416  -0.58281  -0.57996  -0.57945  -0.57251
 Alpha  occ. eigenvalues --   -0.56458  -0.56262  -0.55798  -0.55678  -0.55502
 Alpha  occ. eigenvalues --   -0.55076  -0.54901  -0.54851  -0.54724  -0.54382
 Alpha  occ. eigenvalues --   -0.53965  -0.53409  -0.53365  -0.53274  -0.53121
 Alpha  occ. eigenvalues --   -0.53012  -0.52713  -0.52585  -0.52209  -0.52205
 Alpha  occ. eigenvalues --   -0.51989  -0.51925  -0.51853  -0.51732  -0.51187
 Alpha  occ. eigenvalues --   -0.51110  -0.50952  -0.50613  -0.50390  -0.49903
 Alpha  occ. eigenvalues --   -0.49821  -0.49810  -0.49748  -0.49507  -0.49475
 Alpha  occ. eigenvalues --   -0.49220  -0.49162  -0.49012  -0.48840  -0.48591
 Alpha  occ. eigenvalues --   -0.48524  -0.48374  -0.48327  -0.48094  -0.47943
 Alpha  occ. eigenvalues --   -0.47734  -0.47475  -0.47391  -0.47134  -0.47128
 Alpha  occ. eigenvalues --   -0.46858  -0.46690  -0.46651  -0.46264  -0.46260
 Alpha  occ. eigenvalues --   -0.46167  -0.46014  -0.45834  -0.45722  -0.45571
 Alpha  occ. eigenvalues --   -0.45271  -0.45180  -0.44931  -0.44656  -0.44629
 Alpha  occ. eigenvalues --   -0.44546  -0.44495  -0.44321  -0.44133  -0.44078
 Alpha  occ. eigenvalues --   -0.43751  -0.43744  -0.43599  -0.43408  -0.43384
 Alpha  occ. eigenvalues --   -0.43212  -0.43050  -0.43010  -0.42964  -0.42650
 Alpha  occ. eigenvalues --   -0.42526  -0.42377  -0.42240  -0.42131  -0.41921
 Alpha  occ. eigenvalues --   -0.41849  -0.41745  -0.41626  -0.41313  -0.41090
 Alpha  occ. eigenvalues --   -0.40989  -0.40802  -0.40733  -0.40672  -0.40273
 Alpha  occ. eigenvalues --   -0.40184  -0.39557  -0.39544  -0.39144  -0.38959
 Alpha  occ. eigenvalues --   -0.38084  -0.38046  -0.37714  -0.37676  -0.37456
 Alpha  occ. eigenvalues --   -0.37090  -0.37059  -0.37036  -0.36460  -0.36390
 Alpha  occ. eigenvalues --   -0.36142  -0.36112  -0.34800  -0.34497  -0.34324
 Alpha  occ. eigenvalues --   -0.34090  -0.33500  -0.32661  -0.31642  -0.31499
 Alpha  occ. eigenvalues --   -0.31058  -0.30957  -0.30551  -0.30476  -0.30440
 Alpha  occ. eigenvalues --   -0.30265  -0.30006  -0.29581  -0.24037  -0.23763
 Alpha  occ. eigenvalues --   -0.21461  -0.20972
 Alpha virt. eigenvalues --   -0.08999  -0.08545  -0.01638  -0.01336   0.00261
 Alpha virt. eigenvalues --    0.00564   0.01995   0.02443   0.02485   0.02565
 Alpha virt. eigenvalues --    0.04536   0.05322   0.06081   0.06131   0.06212

 Mulliken charges:
               1
     1  Mg  12.001210
     2  C    6.011458
     3  C    5.997555
     4  C    5.988387
     5  C    5.997075
     6  N    7.006701
     7  C    5.987297
     8  C    6.004153
     9  C    5.998013
    10  C    6.008678
    11  C    5.999264
    12  C    6.000862
    13  C    6.000072
    14  H    0.998668
    15  N    6.996703
    16  C    6.014037
    17  C    6.006200
    18  C    6.005247
    19  C    6.013760
    20  C    5.999816
    21  C    6.004111
    22  O    8.009936
    23  C    5.997037
    24  N    6.992425
    25  C    6.014148
    26  C    5.996451
    27  C    6.003266
    28  C    5.992680
    29  C    6.000310
    30  C    6.003490
    31  C    5.999664
    32  N    7.002235
    33  C    5.988116
    34  C    5.990209
    35  C    5.997252
    36  C    5.988740
    37  C    6.001519
    38  C    5.996837
    39  O    7.988027
    40  C    5.999290
    41  C    5.998617
    42  O    7.999236
    43  O    7.999604
    44  C    6.000782
    45  H    1.004944
    46  H    1.000115
    47  H    0.994667
    48  H    1.000164
    49  H    1.001111
    50  H    0.999667
    51  H    1.000557
    52  H    1.004783
    53  H    0.997344
    54  H    1.001661
    55  H    1.001956
    56  H    0.999922
    57  H    1.006305
    58  H    1.005412
    59  H    1.005494
    60  H    1.001754
    61  H    1.004921
    62  H    1.003043
    63  H    0.999432
    64  H    0.998098
    65  H    1.001482
    66  H    1.002546
    67  H    0.997855
    68  H    0.996166
    69  H    1.001145
    70  H    1.002448
    71  H    0.994139
    72  H    0.998329
    73  H    0.992910
    74  H    0.994217
    75  H    0.994213
    76  H    0.997617
    77  H    0.997680
    78  H    0.999435
    79  H    0.999328
    80  Mg  12.002590
    81  C    5.978563
    82  C    6.016801
    83  C    6.024638
    84  C    5.997563
    85  N    6.993766
    86  C    6.030279
    87  C    5.990507
    88  C    6.008494
    89  C    5.971443
    90  C    6.003528
    91  C    5.995822
    92  C    5.997716
    93  H    1.004152
    94  N    7.007781
    95  C    5.951097
    96  C    5.985578
    97  C    5.983409
    98  C    5.957710
    99  C    6.003211
   100  C    5.987846
   101  O    7.971109
   102  C    6.005910
   103  N    7.009720
   104  C    5.966047
   105  C    6.008412
   106  C    5.989383
   107  C    6.023318
   108  C    6.004264
   109  C    5.993104
   110  C    6.003953
   111  N    6.992527
   112  C    6.034897
   113  C    6.029114
   114  C    6.000277
   115  C    6.034723
   116  C    5.999414
   117  C    6.015825
   118  O    8.026906
   119  C    6.001871
   120  C    6.001686
   121  O    8.008996
   122  O    7.999051
   123  C    5.994846
   124  H    0.989405
   125  H    0.996226
   126  H    1.011783
   127  H    1.000614
   128  H    0.999883
   129  H    1.003804
   130  H    0.995266
   131  H    0.987141
   132  H    1.011906
   133  H    0.996120
   134  H    1.004287
   135  H    0.996649
   136  H    0.983930
   137  H    0.982140
   138  H    0.982588
   139  H    0.991925
   140  H    0.985339
   141  H    0.992797
   142  H    1.001030
   143  H    1.003621
   144  H    1.008105
   145  H    0.988296
   146  H    0.995170
   147  H    1.009229
   148  H    0.994131
   149  H    1.008239
   150  H    0.998842
   151  H    1.001649
   152  H    1.019010
   153  H    1.016230
   154  H    1.013687
   155  H    1.010321
   156  H    1.002626
   157  H    1.002913
   158  H    1.007256
 Sum of Mulliken charges = 624.00000

 Dipole moment (field-independent basis, Debye):
    X=              9.4875    Y=              1.9517    Z=             -0.6511  Tot=              9.7080
 Quadrupole moment (field-independent basis, Debye-Ang):
   XX=           -451.7038   YY=             -0.5278   ZZ=              2.7533
   XY=            -85.3471   XZ=            200.8503   YZ=              0.5268

 Normal termination of Gaussian 16 at Wed Sep 22 00:13:40 2021.
