 Gaussian 16, Revision A.03,
 Gaussian 16:  ES64L-G16RevA.03 25-Dec-2016

 ----------------------------------------------------------
 #p cam-b3lyp/Def2SVP td=(nstates=5) density=(transition=1)
 ----------------------------------------------------------

 --------------------------------
 TDDFT excited states in gaussian
 --------------------------------
 Symbolic Z-matrix:
 Charge =  0 Multiplicity = 1

                         Standard orientation:
 ---------------------------------------------------------------------
 Center     Atomic      Atomic             Coordinates (Angstroms)
 Number     Number       Type             X           Y           Z
 ---------------------------------------------------------------------
      1         12           0      -32.099817    0.046738    0.489461
      2          6           0      -29.744744   -1.358340   -1.819729
      3          6           0      -33.546736    1.691465   -2.173776
      4          6           0      -33.804892    1.773274    2.677381
      5          6           0      -30.331209   -1.545784    3.008655
      6          7           0      -31.498157    0.372324   -1.772681
      7          6           0      -30.585945   -0.414264   -2.422501
      8          6           0      -30.784215   -0.277868   -3.955957
      9          6           0      -31.977626    0.758615   -4.085503
     10          6           0      -32.398838    1.012275   -2.592117
     11          6           0      -31.686617    2.137660   -4.814024
     12          6           0      -31.097162   -1.602445   -4.701857
     13          6           0      -30.377918   -1.867578   -5.976395
     14          1           0      -29.668830   -0.744465   -6.825513
     15          7           0      -33.523397    1.581879    0.309847
     16          6           0      -34.108409    2.049320   -0.866697
     17          6           0      -35.078419    3.108153   -0.527508
     18          6           0      -35.231999    3.044463    0.910676
     19          6           0      -34.167383    2.119914    1.364852
     20          6           0      -35.801609    3.987403   -1.502255
     21          6           0      -36.215960    3.767953    1.860004
     22          8           0      -36.466528    3.419026    3.032931
     23          6           0      -37.044436    4.846576    1.287052
     24          7           0      -32.010823    0.127445    2.482631
     25          6           0      -32.817656    1.011546    3.164643
     26          6           0      -32.778474    0.741483    4.694337
     27          6           0      -31.917708   -0.597954    4.737750
     28          6           0      -31.387598   -0.704570    3.318404
     29          6           0      -32.223078    1.881911    5.641559
     30          6           0      -32.640309   -1.871475    5.147431
     31          6           0      -32.177540   -2.503353    6.476958
     32          7           0      -30.514847   -1.347504    0.602669
     33          6           0      -29.889448   -1.878787    1.705734
     34          6           0      -28.747185   -2.701828    1.287274
     35          6           0      -28.714745   -2.554544   -0.088091
     36          6           0      -29.797363   -1.727618   -0.462293
     37          6           0      -27.775976   -3.463223    2.127716
     38          6           0      -27.994637   -2.991805   -1.229560
     39          8           0      -27.063326   -3.834097   -1.373528
     40          6           0      -28.594490   -2.266335   -2.358560
     41          6           0      -27.527246   -1.549445   -3.140521
     42          8           0      -26.927240   -0.599125   -2.769688
     43          8           0      -27.402278   -2.099871   -4.347950
     44          6           0      -26.259474   -1.795904   -5.140481
     45          1           0      -34.056874    2.258146   -2.955703
     46          1           0      -34.327876    2.238658    3.516501
     47          1           0      -29.735184   -1.978728    3.813726
     48          1           0      -29.850136    0.133759   -4.340057
     49          1           0      -32.819507    0.292471   -4.596528
     50          1           0      -30.718946    2.208443   -5.309929
     51          1           0      -31.656441    2.901550   -4.035702
     52          1           0      -32.493663    2.380653   -5.505872
     53          1           0      -32.146329   -1.690659   -4.986344
     54          1           0      -30.869765   -2.485667   -4.105632
     55          1           0      -31.075819   -2.259122   -6.717102
     56          1           0      -29.627973   -2.630658   -5.769934
     57          1           0      -35.634403    5.031824   -1.239854
     58          1           0      -36.861872    3.762310   -1.386988
     59          1           0      -35.596290    3.697532   -2.533269
     60          1           0      -36.370401    5.638827    0.961148
     61          1           0      -37.619802    5.241891    2.123829
     62          1           0      -37.764632    4.469380    0.561516
     63          1           0      -33.805082    0.498323    4.970146
     64          1           0      -31.112358   -0.428565    5.452397
     65          1           0      -31.938663    2.752936    5.052284
     66          1           0      -31.436923    1.535756    6.313651
     67          1           0      -33.027689    2.147333    6.327495
     68          1           0      -32.733584   -2.646847    4.386905
     69          1           0      -33.679028   -1.595280    5.325679
     70          1           0      -32.045556   -3.585061    6.490698
     71          1           0      -33.018837   -2.424886    7.166078
     72          1           0      -31.258688   -2.095030    6.895602
     73          1           0      -28.142814   -3.636452    3.139815
     74          1           0      -26.891553   -2.855588    2.318678
     75          1           0      -27.473069   -4.329333    1.539457
     76          1           0      -29.062868   -3.026224   -2.983541
     77          1           0      -25.426029   -2.337329   -4.690681
     78          1           0      -25.986861   -0.744767   -5.045009
     79          1           0      -26.377890   -2.163267   -6.160201
     80         12           0       31.961549    0.438930   -0.272251
     81          6           0       29.587564   -1.938200    0.556594
     82          6           0       29.547445    2.902308   -0.012197
     83          6           0       34.437264    2.732948   -0.328380
     84          6           0       34.324499   -2.176152   -0.147935
     85          7           0       29.859906    0.497835    0.500997
     86          6           0       29.114081   -0.608212    0.573279
     87          6           0       27.656040   -0.243183    0.991078
     88          6           0       27.584462    1.290398    0.535610
     89          6           0       29.100973    1.604513    0.240357
     90          6           0       26.576142    1.531680   -0.613556
     91          6           0       27.493559   -0.352873    2.490072
     92          6           0       26.181904   -0.958787    2.964455
     93          1           0       25.423251   -0.452427    4.248656
     94          7           0       31.925483    2.572159   -0.354639
     95          6           0       30.887087    3.404252   -0.164599
     96          6           0       31.372762    4.737928   -0.311536
     97          6           0       32.774344    4.719233   -0.583754
     98          6           0       33.128168    3.299002   -0.468868
     99          6           0       30.450879    5.899172   -0.374467
    100          6           0       33.618006    5.938310   -0.704183
    101          8           0       33.105002    7.044567   -0.673476
    102          6           0       35.121418    5.849311   -0.937453
    103          7           0       34.168841    0.262117   -0.327918
    104          6           0       34.910499    1.403745   -0.274191
    105          6           0       36.347964    1.087239   -0.017047
    106          6           0       36.291863   -0.512199    0.046296
    107          6           0       34.858669   -0.900120   -0.220640
    108          6           0       37.333453    1.680700   -1.041115
    109          6           0       36.870960   -1.178522    1.372041
    110          6           0       37.928751   -2.304023    1.288710
    111          7           0       31.992280   -1.598492    0.086503
    112          6           0       32.991821   -2.518295    0.030545
    113          6           0       32.455883   -3.805373   -0.030559
    114          6           0       31.086074   -3.672275    0.149244
    115          6           0       30.863966   -2.325263    0.289259
    116          6           0       33.300319   -5.109432   -0.131283
    117          6           0       29.870294   -4.335462    0.235972
    118          8           0       29.670579   -5.544279    0.280998
    119          6           0       28.733275   -3.251899    0.563354
    120          6           0       27.780327   -3.150062   -0.482318
    121          8           0       27.849044   -2.607730   -1.587873
    122          8           0       26.639410   -3.802308   -0.024997
    123          6           0       25.450668   -3.892595   -0.855414
    124          1           0       28.767431    3.662632   -0.086219
    125          1           0       35.337348    3.351548   -0.352058
    126          1           0       35.128302   -2.912053   -0.218804
    127          1           0       26.981356   -0.928941    0.479347
    128          1           0       27.379090    1.985940    1.348687
    129          1           0       26.161953    0.597132   -0.991420
    130          1           0       27.068993    2.072481   -1.422104
    131          1           0       25.797838    2.192045   -0.231808
    132          1           0       27.644941    0.549837    3.082281
    133          1           0       28.364412   -0.922804    2.813900
    134          1           0       26.345054   -2.034664    3.025138
    135          1           0       25.547104   -0.787007    2.095206
    136          1           0       30.352412    6.066798   -1.446828
    137          1           0       30.861645    6.765367    0.144614
    138          1           0       29.475534    5.697939    0.068732
    139          1           0       35.558245    5.645675    0.040323
    140          1           0       35.441054    6.864054   -1.173319
    141          1           0       35.352635    5.093198   -1.687631
    142          1           0       36.466034    1.541089    0.966384
    143          1           0       36.949143   -0.965684   -0.695639
    144          1           0       37.832329    2.504695   -0.529894
    145          1           0       36.845808    2.009702   -1.959336
    146          1           0       38.099725    0.941642   -1.273774
    147          1           0       36.037443   -1.605182    1.929809
    148          1           0       37.380794   -0.463131    2.017695
    149          1           0       37.266322   -3.168793    1.252737
    150          1           0       38.510231   -2.346403    2.208769
    151          1           0       38.510877   -2.443200    0.377840
    152          1           0       33.765322   -5.293447    0.836384
    153          1           0       34.146378   -5.081796   -0.818232
    154          1           0       32.669324   -5.963578   -0.378565
    155          1           0       28.316708   -3.544586    1.527276
    156          1           0       24.954833   -4.828158   -0.598466
    157          1           0       25.618793   -3.756894   -1.924117
    158          1           0       24.754448   -3.126932   -0.512865
 ---------------------------------------------------------------------

 SCF Done:  E(RCAM-B3LYP) =  -4069.78529296     A.U. after   18 cycles

 Excitation energies and oscillator strengths:

 Excited State   1:      Singlet-A      1.6990 eV  729.75 nm  f=0.3993  <S**2>=0.000
     309 -> 315       -0.18510
     311 -> 313        0.68485
     309 <- 315       -0.10998
 This state for optimization and/or second-order correction.
 Total Energy, E(TD-HF/TD-DFT) =  -4069.72285611
 Copying the excited state density for this state as the 1-particle RhoCI density.

 Excited State   2:      Singlet-A      1.7200 eV  720.84 nm  f=0.4254  <S**2>=0.000
     310 -> 316       -0.17638
     312 -> 314        0.68702
     310 <- 316       -0.10598

 Excited State   3:      Singlet-A      2.2103 eV  560.94 nm  f=0.1295  <S**2>=0.000
     310 -> 314        0.65015
     312 -> 316        0.26633

 Excited State   4:      Singlet-A      2.2279 eV  556.51 nm  f=0.1004  <S**2>=0.000
     309 -> 313        0.63673
     311 -> 315        0.29382

 Excited State   5:      Singlet-A      3.1508 eV  393.51 nm  f=0.0000  <S**2>=0.000
     312 -> 313        0.70711

 The electronic state is 1-A.
 Alpha  occ. eigenvalues --  -46.89696 -46.88914 -19.25003 -19.24646 -19.20199
 Alpha  occ. eigenvalues --  -19.19656 -19.19253 -19.19029 -19.18551 -19.18361
 Alpha  occ. eigenvalues --  -14.42358 -14.42059 -14.42027 -14.41623 -14.39813
 Alpha  occ. eigenvalues --  -14.39699 -14.39562 -14.39208 -10.39629 -10.39050
 Alpha  occ. eigenvalues --  -10.35237 -10.34963 -10.34711 -10.34629 -10.31704
 Alpha  occ. eigenvalues --  -10.31589 -10.31552 -10.31508 -10.31402 -10.31315
 Alpha  occ. eigenvalues --  -10.31149 -10.31032 -10.30959 -10.30912 -10.30552
 Alpha  occ. eigenvalues --  -10.30161 -10.29782 -10.29703 -10.29553 -10.29446
 Alpha  occ. eigenvalues --  -10.29300 -10.28838 -10.28761 -10.28754 -10.28726
 Alpha  occ. eigenvalues --  -10.28508 -10.28386 -10.28372 -10.28345 -10.28336
 Alpha  occ. eigenvalues --  -10.28322 -10.28269 -10.28200 -10.28183 -10.28182
 Alpha  occ. eigenvalues --  -10.28101 -10.27820 -10.27804 -10.27768 -10.27568
 Alpha  occ. eigenvalues --  -10.27518 -10.27379 -10.27191 -10.27058 -10.27047
 Alpha  occ. eigenvalues --  -10.27000 -10.26864 -10.26803 -10.26769 -10.26735
 Alpha  occ. eigenvalues --  -10.26612 -10.26537 -10.26474 -10.26210 -10.26074
 Alpha  occ. eigenvalues --  -10.26038 -10.25918 -10.25906 -10.25898 -10.25858
 Alpha  occ. eigenvalues --  -10.25584 -10.25452 -10.25195 -10.25186 -10.24914
 Alpha  occ. eigenvalues --  -10.24857  -3.18019  -3.17492  -1.92932  -1.92469
 Alpha  occ. eigenvalues --   -1.92375  -1.92312  -1.91962  -1.91791  -1.18622
 Alpha  occ. eigenvalues --   -1.15754  -1.10040  -1.09996  -1.09712  -1.08311
 Alpha  occ. eigenvalues --   -1.08087  -1.07531  -1.05519  -1.04835  -1.04092
 Alpha  occ. eigenvalues --   -1.03870  -1.03774  -1.02620  -1.02535  -1.01789
 Alpha  occ. eigenvalues --   -0.93907  -0.93575  -0.89487  -0.89162  -0.89132
 Alpha  occ. eigenvalues --   -0.88548  -0.88413  -0.88375  -0.87904  -0.87744
 Alpha  occ. eigenvalues --   -0.86888  -0.86886  -0.86291  -0.86203  -0.85435
 Alpha  occ. eigenvalues --   -0.84652  -0.84559  -0.83530  -0.83061  -0.82628
 Alpha  occ. eigenvalues --   -0.82266  -0.82064  -0.81720  -0.81493  -0.80809
 Alpha  occ. eigenvalues --   -0.80511  -0.78306  -0.78192  -0.77715  -0.77625
 Alpha  occ. eigenvalues --   -0.77163  -0.76576  -0.76520  -0.76363  -0.75205
 Alpha  occ. eigenvalues --   -0.75189  -0.73524  -0.73179  -0.72402  -0.71496
 Alpha  occ. eigenvalues --   -0.69834  -0.69406  -0.69271  -0.68979  -0.68136
 Alpha  occ. eigenvalues --   -0.67497  -0.67432  -0.66256  -0.66194  -0.65927
 Alpha  occ. eigenvalues --   -0.65926  -0.65498  -0.64922  -0.64873  -0.64854
 Alpha  occ. eigenvalues --   -0.64478  -0.63035  -0.62717  -0.60513  -0.60338
 Alpha  occ. eigenvalues --   -0.59902  -0.59867  -0.59341  -0.59143  -0.59139
 Alpha  occ. eigenvalues --   -0.59114  -0.58216  -0.58197  -0.58008  -0.57761
 Alpha  occ. eigenvalues --   -0.56498  -0.56367  -0.56166  -0.56114  -0.55472
 Alpha  occ. eigenvalues --   -0.55181  -0.54919  -0.54888  -0.54387  -0.53758
 Alpha  occ. eigenvalues --   -0.53553  -0.53433  -0.53411  -0.53254  -0.53022
 Alpha  occ. eigenvalues --   -0.52800  -0.52666  -0.52410  -0.52348  -0.52100
 Alpha  occ. eigenvalues --   -0.52093  -0.51845  -0.51656  -0.51586  -0.51515
 Alpha  occ. eigenvalues --   -0.51491  -0.51327  -0.51120  -0.50392  -0.50151
 Alpha  occ. eigenvalues --   -0.50084  -0.50040  -0.50027  -0.49887  -0.49603
 Alpha  occ. eigenvalues --   -0.49452  -0.49258  -0.49093  -0.49039  -0.49001
 Alpha  occ. eigenvalues --   -0.48758  -0.48583  -0.48399  -0.48337  -0.48306
 Alpha  occ. eigenvalues --   -0.48241  -0.47712  -0.47546  -0.47420  -0.46915
 Alpha  occ. eigenvalues --   -0.46896  -0.46782  -0.46766  -0.46720  -0.46623
 Alpha  occ. eigenvalues --   -0.46216  -0.46140  -0.46118  -0.46055  -0.45975
 Alpha  occ. eigenvalues --   -0.45832  -0.45809  -0.45489  -0.45310  -0.45286
 Alpha  occ. eigenvalues --   -0.45089  -0.44790  -0.44714  -0.44544  -0.44531
 Alpha  occ. eigenvalues --   -0.44453  -0.43918  -0.43646  -0.43622  -0.43446
 Alpha  occ. eigenvalues --   -0.43403  -0.43176  -0.43037  -0.42884  -0.42690
 Alpha  occ. eigenvalues --   -0.42612  -0.42199  -0.42156  -0.42067  -0.41935
 Alpha  occ. eigenvalues --   -0.41862  -0.41848  -0.41631  -0.41455  -0.41436
 Alpha  occ. eigenvalues --   -0.41176  -0.41081  -0.40970  -0.40273  -0.40258
 Alpha  occ. eigenvalues --   -0.40087  -0.39742  -0.39688  -0.39126  -0.38302
 Alpha  occ. eigenvalues --   -0.38225  -0.38189  -0.37980  -0.37914  -0.37387
 Alpha  occ. eigenvalues --   -0.37280  -0.36952  -0.36532  -0.36284  -0.36267
 Alpha  occ. eigenvalues --   -0.35854  -0.35684  -0.34929  -0.34682  -0.34374
 Alpha  occ. eigenvalues --   -0.34129  -0.33629  -0.32909  -0.31838  -0.31601
 Alpha  occ. eigenvalues --   -0.31444  -0.31215  -0.30765  -0.30726  -0.30603
 Alpha  occ. eigenvalues --   -0.30508  -0.29486  -0.29456  -0.24562  -0.24118
 Alpha  occ. eigenvalues --   -0.21556  -0.21310
 Alpha virt. eigenvalues --   -0.09194  -0.08940  -0.02283  -0.01476  -0.00193
 Alpha virt. eigenvalues --   -0.00188   0.01926   0.02326   0.02359   0.02504
 Alpha virt. eigenvalues --    0.04042   0.04631   0.05270   0.05496   0.06113

 Mulliken charges:
               1
     1  Mg  11.999991
     2  C    5.999829
     3  C    6.000089
     4  C    6.000254
     5  C    5.999878
     6  N    6.999930
     7  C    6.000232
     8  C    5.999949
     9  C    6.000030
    10  C    5.999849
    11  C    6.000025
    12  C    5.999976
    13  C    5.999992
    14  H    1.000025
    15  N    6.999987
    16  C    5.999723
    17  C    5.999872
    18  C    5.999895
    19  C    5.999752
    20  C    6.000036
    21  C    5.999893
    22  O    7.999799
    23  C    6.000066
    24  N    7.000067
    25  C    5.999744
    26  C    6.000087
    27  C    5.999931
    28  C    6.000194
    29  C    5.999992
    30  C    5.999933
    31  C    5.999978
    32  N    7.000012
    33  C    6.000281
    34  C    6.000171
    35  C    6.000033
    36  C    6.000225
    37  C    5.999947
    38  C    6.000130
    39  O    8.000207
    40  C    5.999942
    41  C    6.000037
    42  O    8.000022
    43  O    8.000011
    44  C    5.999990
    45  H    0.999907
    46  H    0.999950
    47  H    1.000102
    48  H    0.999997
    49  H    0.999993
    50  H    0.999913
    51  H    1.000020
    52  H    0.999988
    53  H    1.000065
    54  H    0.999966
    55  H    1.000029
    56  H    0.999979
    57  H    0.999861
    58  H    0.999869
    59  H    0.999874
    60  H    0.999943
    61  H    0.999891
    62  H    0.999951
    63  H    1.000003
    64  H    1.000018
    65  H    1.000013
    66  H    0.999936
    67  H    0.999998
    68  H    0.999997
    69  H    1.000095
    70  H    1.000015
    71  H    1.000045
    72  H    1.000008
    73  H    1.000136
    74  H    1.000166
    75  H    1.000124
    76  H    1.000078
    77  H    1.000013
    78  H    1.000016
    79  H    1.000037
    80  Mg  12.002878
    81  C    6.006918
    82  C    5.966976
    83  C    5.985058
    84  C    6.029597
    85  N    6.985081
    86  C    5.978725
    87  C    6.007278
    88  C    5.989960
    89  C    6.042618
    90  C    5.999273
    91  C    6.000996
    92  C    6.002533
    93  H    0.990292
    94  N    6.993303
    95  C    6.051112
    96  C    6.021805
    97  C    6.012243
    98  C    6.042665
    99  C    5.993487
   100  C    6.009551
   101  O    8.018350
   102  C    5.996874
   103  N    7.008245
   104  C    6.029799
   105  C    5.988885
   106  C    6.010739
   107  C    5.961889
   108  C    5.996034
   109  C    6.002590
   110  C    5.997502
   111  N    7.000942
   112  C    5.961555
   113  C    5.970776
   114  C    5.993966
   115  C    5.976195
   116  C    6.000119
   117  C    5.984076
   118  O    7.966744
   119  C    5.994497
   120  C    5.998933
   121  O    7.989677
   122  O    7.998241
   123  C    6.004132
   124  H    1.004621
   125  H    1.011874
   126  H    0.994158
   127  H    1.001395
   128  H    0.999445
   129  H    1.012495
   130  H    0.995438
   131  H    1.001705
   132  H    0.987941
   133  H    1.006622
   134  H    1.005037
   135  H    0.995944
   136  H    1.023264
   137  H    1.018947
   138  H    1.023477
   139  H    1.010265
   140  H    1.013298
   141  H    1.008065
   142  H    0.999587
   143  H    0.998797
   144  H    0.999387
   145  H    0.998861
   146  H    1.012320
   147  H    1.005157
   148  H    0.989425
   149  H    1.007762
   150  H    0.996912
   151  H    0.997009
   152  H    0.978949
   153  H    0.978629
   154  H    0.987185
   155  H    0.989694
   156  H    0.995933
   157  H    0.995445
   158  H    0.991849
 Sum of Mulliken charges = 624.00000

 Dipole moment (field-independent basis, Debye):
    X=              1.4888    Y=             10.9875    Z=             -1.0022  Tot=             11.1331
 Quadrupole moment (field-independent basis, Debye-Ang):
   XX=             84.4149   YY=             10.7391   ZZ=             -0.6613
   XY=            352.8201   XZ=            -32.0907   YZ=             -3.1160

 Normal termination of Gaussian 16 at Thu Sep 23 05:52:56 2021.
