 Gaussian 16, Revision A.03,
 Gaussian 16:  ES64L-G16RevA.03 25-Dec-2016

 ----------------------------------------------------------
 #p cam-b3lyp/Def2SVP td=(nstates=5) density=(transition=1)
 ----------------------------------------------------------

 --------------------------------
 TDDFT excited states in gaussian
 --------------------------------
 Symbolic Z-matrix:
 Charge =  0 Multiplicity = 1

                         Standard orientation:
 ---------------------------------------------------------------------
 Center     Atomic      Atomic             Coordinates (Angstroms)
 Number     Number       Type             X           Y           Z
 ---------------------------------------------------------------------
      1         12           0       25.693531   -0.811924    0.039364
      2          6           0       26.394488    2.530199   -0.630022
      3          6           0       25.126769   -0.062423    3.274863
      4          6           0       25.477348   -4.125415    0.671440
      5          6           0       26.760600   -1.560687   -3.152893
      6          7           0       25.782889    1.081892    1.186898
      7          6           0       25.885294    2.341850    0.654383
      8          6           0       25.679212    3.364831    1.705929
      9          6           0       25.326577    2.604563    2.989676
     10          6           0       25.381834    1.090600    2.509254
     11          6           0       26.122648    2.885769    4.254628
     12          6           0       24.561455    4.466698    1.255809
     13          6           0       25.015545    5.939588    1.126744
     14          1           0       24.125170    7.067197    1.587862
     15          7           0       25.232874   -1.930873    1.701286
     16          6           0       25.041038   -1.437975    2.983274
     17          6           0       24.816293   -2.514656    3.877750
     18          6           0       24.917472   -3.726688    3.142397
     19          6           0       25.200653   -3.289190    1.771619
     20          6           0       24.403986   -2.179433    5.364380
     21          6           0       24.825617   -5.130268    3.738547
     22          8           0       24.991038   -6.188365    3.112863
     23          6           0       24.436355   -5.297055    5.141467
     24          7           0       26.289194   -2.650259   -0.973288
     25          6           0       25.998362   -3.870154   -0.571143
     26          6           0       26.520926   -4.923239   -1.574171
     27          6           0       26.426624   -4.034233   -2.876324
     28          6           0       26.470134   -2.619921   -2.306516
     29          6           0       27.964435   -5.531152   -1.422534
     30          6           0       25.147841   -4.256093   -3.818088
     31          6           0       23.810717   -4.034152   -3.239375
     32          7           0       26.505044    0.222250   -1.659884
     33          6           0       26.890964   -0.230987   -2.936613
     34          6           0       27.335948    0.878738   -3.717811
     35          6           0       27.232850    1.962508   -2.868668
     36          6           0       26.616001    1.520718   -1.652558
     37          6           0       28.022822    0.814348   -4.993252
     38          6           0       27.281083    3.348002   -2.829937
     39          8           0       27.637886    4.181979   -3.668514
     40          6           0       26.843934    3.810750   -1.365788
     41          6           0       28.089337    4.329027   -0.725930
     42          8           0       29.158054    3.803858   -0.494026
     43          8           0       27.826443    5.606843   -0.446395
     44          6           0       28.920087    6.367858    0.241857
     45          1           0       24.752325    0.328846    4.223074
     46          1           0       25.244424   -5.170099    0.884588
     47          1           0       27.032475   -1.805935   -4.181471
     48          1           0       26.645316    3.858236    1.804704
     49          1           0       24.280652    2.790304    3.232893
     50          1           0       26.834873    2.071235    4.128203
     51          1           0       25.551268    2.889685    5.183028
     52          1           0       26.698423    3.807152    4.337675
     53          1           0       23.717669    4.406972    1.942602
     54          1           0       24.176478    4.312286    0.247502
     55          1           0       25.108288    6.130243    0.057170
     56          1           0       26.022871    6.092540    1.511757
     57          1           0       25.069426   -2.721515    6.036004
     58          1           0       23.434971   -2.678245    5.343299
     59          1           0       24.485160   -1.147188    5.705087
     60          1           0       25.116074   -4.761457    5.802751
     61          1           0       24.701189   -6.322983    5.396171
     62          1           0       23.382100   -5.120996    5.356668
     63          1           0       25.734504   -5.661580   -1.731309
     64          1           0       27.307837   -4.326732   -3.446799
     65          1           0       28.743285   -4.831903   -1.120705
     66          1           0       28.142998   -5.949708   -2.413656
     67          1           0       27.970364   -6.329818   -0.680309
     68          1           0       25.078022   -5.267560   -4.219039
     69          1           0       25.084177   -3.482998   -4.583782
     70          1           0       23.696933   -2.952349   -3.293161
     71          1           0       23.624564   -4.314990   -2.202309
     72          1           0       22.944634   -4.439881   -3.761204
     73          1           0       29.057860    0.612663   -4.714789
     74          1           0       27.987113    1.724010   -5.592009
     75          1           0       27.593203    0.085215   -5.681070
     76          1           0       26.007373    4.509591   -1.364299
     77          1           0       28.572437    6.465095    1.270588
     78          1           0       29.072902    7.323901   -0.258362
     79          1           0       29.896455    5.887903    0.314258
     80         12           0      -26.494770   -0.538110   -0.050502
     81          6           0      -24.701473    2.430541   -0.566212
     82          6           0      -27.493526    0.712295    2.997970
     83          6           0      -28.149263   -3.353780    0.425250
     84          6           0      -25.246993   -1.709667   -3.118596
     85          7           0      -26.174741    1.391585    0.989348
     86          6           0      -25.388775    2.487010    0.631138
     87          6           0      -25.661857    3.766959    1.514776
     88          6           0      -26.403570    3.103601    2.659120
     89          6           0      -26.732514    1.623903    2.197564
     90          6           0      -25.469296    2.993368    3.949949
     91          6           0      -26.658630    4.640321    0.630636
     92          6           0      -26.411802    6.212644    0.599434
     93          1           0      -25.869222    6.667488    1.930144
     94          7           0      -27.505610   -1.252338    1.522403
     95          6           0      -27.808781   -0.636372    2.661604
     96          6           0      -28.630938   -1.441818    3.525311
     97          6           0      -28.995586   -2.556952    2.745126
     98          6           0      -28.149452   -2.458372    1.496650
     99          6           0      -29.058200   -1.092200    4.903687
    100          6           0      -30.056036   -3.613791    2.975790
    101          8           0      -30.438310   -4.386009    2.089253
    102          6           0      -30.623642   -3.831613    4.381126
    103          7           0      -26.620270   -2.318680   -1.197660
    104          6           0      -27.469163   -3.302476   -0.748239
    105          6           0      -27.588412   -4.369856   -1.833988
    106          6           0      -26.734016   -3.789577   -3.063863
    107          6           0      -26.200598   -2.504279   -2.487831
    108          6           0      -27.175019   -5.768357   -1.253534
    109          6           0      -27.458133   -3.632099   -4.391743
    110          6           0      -26.724535   -4.308640   -5.591868
    111          7           0      -25.219189    0.190553   -1.524210
    112          6           0      -24.775067   -0.420454   -2.738730
    113          6           0      -23.873049    0.436572   -3.421632
    114          6           0      -23.829969    1.566771   -2.587951
    115          6           0      -24.620941    1.328100   -1.444955
    116          6           0      -23.161932    0.266349   -4.725386
    117          6           0      -23.282159    2.875994   -2.430458
    118          8           0      -22.505359    3.526035   -3.089830
    119          6           0      -23.925642    3.508861   -1.164289
    120          6           0      -22.854567    4.112533   -0.330421
    121          8           0      -21.997162    3.528864    0.326556
    122          8           0      -23.028207    5.436910   -0.378074
    123          6           0      -22.143093    6.244209    0.435069
    124          1           0      -27.990835    1.035131    3.914842
    125          1           0      -28.708897   -4.265590    0.648494
    126          1           0      -24.885291   -2.007255   -4.105105
    127          1           0      -24.691916    4.254643    1.607105
    128          1           0      -27.332828    3.634415    2.863322
    129          1           0      -24.467552    3.385442    3.773099
    130          1           0      -25.395086    1.942463    4.228914
    131          1           0      -26.006959    3.557321    4.712245
    132          1           0      -27.700490    4.545274    0.935136
    133          1           0      -26.611081    4.224678   -0.376223
    134          1           0      -27.360605    6.748679    0.573414
    135          1           0      -25.937447    6.525006   -0.331258
    136          1           0      -30.134289   -0.918927    4.859346
    137          1           0      -28.588701   -0.170542    5.244684
    138          1           0      -28.851853   -1.875418    5.632527
    139          1           0      -31.027587   -4.836283    4.258499
    140          1           0      -31.368282   -3.092124    4.678052
    141          1           0      -29.909817   -3.941579    5.197277
    142          1           0      -28.595410   -4.550391   -2.209993
    143          1           0      -25.880902   -4.448132   -3.227476
    144          1           0      -27.940913   -6.464957   -1.594684
    145          1           0      -27.052118   -5.780061   -0.170502
    146          1           0      -26.322838   -6.183695   -1.792769
    147          1           0      -27.667839   -2.599304   -4.668281
    148          1           0      -28.349751   -4.250206   -4.277456
    149          1           0      -25.866840   -4.884752   -5.244277
    150          1           0      -26.234613   -3.573617   -6.230153
    151          1           0      -27.394054   -4.967251   -6.145493
    152          1           0      -23.977276    0.423477   -5.432062
    153          1           0      -22.703760   -0.722153   -4.701727
    154          1           0      -22.428347    1.050719   -4.906332
    155          1           0      -24.490717    4.349163   -1.569829
    156          1           0      -21.104591    6.000392    0.209348
    157          1           0      -22.197659    6.098386    1.514420
    158          1           0      -22.350677    7.280677    0.168481
 ---------------------------------------------------------------------

 SCF Done:  E(RCAM-B3LYP) =  -4069.81252713     A.U. after   19 cycles

 Excitation energies and oscillator strengths:

 Excited State   1:      Singlet-A      1.7047 eV  727.32 nm  f=0.3697  <S**2>=0.000
     310 -> 316        0.17519
     311 -> 313        0.68603
     310 <- 316        0.10614
 This state for optimization and/or second-order correction.
 Total Energy, E(TD-HF/TD-DFT) =  -4069.74988185
 Copying the excited state density for this state as the 1-particle RhoCI density.

 Excited State   2:      Singlet-A      1.7258 eV  718.40 nm  f=0.3872  <S**2>=0.000
     309 -> 315        0.16129
     312 -> 314        0.68777

 Excited State   3:      Singlet-A      2.1769 eV  569.54 nm  f=0.1385  <S**2>=0.000
     310 -> 313        0.65148
     311 -> 316       -0.26309

 Excited State   4:      Singlet-A      2.2842 eV  542.80 nm  f=0.1220  <S**2>=0.000
     309 -> 314        0.63702
     312 -> 315       -0.28303

 Excited State   5:      Singlet-A      3.1075 eV  398.98 nm  f=0.0000  <S**2>=0.000
     312 -> 313        0.70711

 The electronic state is 1-A.
 Alpha  occ. eigenvalues --  -46.89345 -46.87773 -19.25265 -19.25049 -19.19924
 Alpha  occ. eigenvalues --  -19.19077 -19.18799 -19.18673 -19.18214 -19.17410
 Alpha  occ. eigenvalues --  -14.42245 -14.42004 -14.41833 -14.41625 -14.40226
 Alpha  occ. eigenvalues --  -14.39707 -14.38991 -14.38473 -10.38617 -10.38319
 Alpha  occ. eigenvalues --  -10.36240 -10.35079 -10.34160 -10.33159 -10.31909
 Alpha  occ. eigenvalues --  -10.31705 -10.31428 -10.31371 -10.31211 -10.31018
 Alpha  occ. eigenvalues --  -10.30685 -10.30632 -10.30630 -10.30454 -10.30288
 Alpha  occ. eigenvalues --  -10.30120 -10.30109 -10.29795 -10.29110 -10.29070
 Alpha  occ. eigenvalues --  -10.29012 -10.28990 -10.28917 -10.28675 -10.28555
 Alpha  occ. eigenvalues --  -10.28544 -10.28444 -10.28344 -10.28285 -10.28159
 Alpha  occ. eigenvalues --  -10.27983 -10.27889 -10.27869 -10.27833 -10.27802
 Alpha  occ. eigenvalues --  -10.27554 -10.27533 -10.27530 -10.27528 -10.27510
 Alpha  occ. eigenvalues --  -10.27483 -10.27477 -10.27161 -10.27149 -10.27100
 Alpha  occ. eigenvalues --  -10.27079 -10.26700 -10.26635 -10.26538 -10.26504
 Alpha  occ. eigenvalues --  -10.26468 -10.26381 -10.26268 -10.26228 -10.26167
 Alpha  occ. eigenvalues --  -10.26040 -10.26036 -10.25892 -10.25810 -10.25804
 Alpha  occ. eigenvalues --  -10.25714 -10.25588 -10.25428 -10.24734 -10.24661
 Alpha  occ. eigenvalues --  -10.23588  -3.17754  -3.16483  -1.92657  -1.92188
 Alpha  occ. eigenvalues --   -1.92071  -1.91393  -1.90918  -1.90814  -1.17106
 Alpha  occ. eigenvalues --   -1.17011  -1.10361  -1.09374  -1.09130  -1.08566
 Alpha  occ. eigenvalues --   -1.07363  -1.07090  -1.05427  -1.04989  -1.04263
 Alpha  occ. eigenvalues --   -1.03918  -1.03389  -1.02926  -1.02634  -1.02349
 Alpha  occ. eigenvalues --   -0.92656  -0.92218  -0.89648  -0.89225  -0.88753
 Alpha  occ. eigenvalues --   -0.88487  -0.88426  -0.88375  -0.87981  -0.87970
 Alpha  occ. eigenvalues --   -0.87604  -0.87037  -0.86869  -0.86641  -0.84643
 Alpha  occ. eigenvalues --   -0.84293  -0.83960  -0.83532  -0.83077  -0.82358
 Alpha  occ. eigenvalues --   -0.82013  -0.81848  -0.81569  -0.81276  -0.80746
 Alpha  occ. eigenvalues --   -0.80383  -0.78911  -0.78758  -0.77670  -0.77429
 Alpha  occ. eigenvalues --   -0.77387  -0.76770  -0.75954  -0.75606  -0.75372
 Alpha  occ. eigenvalues --   -0.74984  -0.73486  -0.73107  -0.71683  -0.71409
 Alpha  occ. eigenvalues --   -0.69393  -0.69190  -0.69097  -0.68875  -0.67780
 Alpha  occ. eigenvalues --   -0.67613  -0.67395  -0.67217  -0.65764  -0.65419
 Alpha  occ. eigenvalues --   -0.65396  -0.65248  -0.65019  -0.64822  -0.64510
 Alpha  occ. eigenvalues --   -0.63975  -0.62479  -0.62065  -0.60793  -0.60442
 Alpha  occ. eigenvalues --   -0.59930  -0.59599  -0.59315  -0.59144  -0.58633
 Alpha  occ. eigenvalues --   -0.58622  -0.58266  -0.57930  -0.57770  -0.57305
 Alpha  occ. eigenvalues --   -0.56646  -0.56443  -0.55783  -0.55669  -0.55487
 Alpha  occ. eigenvalues --   -0.55333  -0.55061  -0.54836  -0.54709  -0.54466
 Alpha  occ. eigenvalues --   -0.53829  -0.53542  -0.53394  -0.53259  -0.53169
 Alpha  occ. eigenvalues --   -0.52997  -0.52698  -0.52599  -0.52546  -0.52194
 Alpha  occ. eigenvalues --   -0.52159  -0.51910  -0.51776  -0.51320  -0.51172
 Alpha  occ. eigenvalues --   -0.51095  -0.51039  -0.50739  -0.50417  -0.50375
 Alpha  occ. eigenvalues --   -0.50304  -0.49986  -0.49806  -0.49733  -0.49643
 Alpha  occ. eigenvalues --   -0.49460  -0.49265  -0.49206  -0.48997  -0.48638
 Alpha  occ. eigenvalues --   -0.48526  -0.48509  -0.48421  -0.48359  -0.48079
 Alpha  occ. eigenvalues --   -0.47903  -0.47680  -0.47543  -0.47376  -0.47182
 Alpha  occ. eigenvalues --   -0.47119  -0.46843  -0.46745  -0.46675  -0.46566
 Alpha  occ. eigenvalues --   -0.46399  -0.46245  -0.46082  -0.45999  -0.45819
 Alpha  occ. eigenvalues --   -0.45278  -0.45256  -0.45068  -0.44711  -0.44641
 Alpha  occ. eigenvalues --   -0.44559  -0.44480  -0.44453  -0.44295  -0.44118
 Alpha  occ. eigenvalues --   -0.44063  -0.43728  -0.43697  -0.43665  -0.43369
 Alpha  occ. eigenvalues --   -0.43197  -0.43086  -0.42949  -0.42853  -0.42618
 Alpha  occ. eigenvalues --   -0.42511  -0.42351  -0.42225  -0.42116  -0.41943
 Alpha  occ. eigenvalues --   -0.41834  -0.41611  -0.41578  -0.41120  -0.41075
 Alpha  occ. eigenvalues --   -0.40974  -0.40820  -0.40718  -0.40381  -0.40169
 Alpha  occ. eigenvalues --   -0.40068  -0.39738  -0.39529  -0.38943  -0.38815
 Alpha  occ. eigenvalues --   -0.38279  -0.38068  -0.38031  -0.37699  -0.37633
 Alpha  occ. eigenvalues --   -0.37421  -0.37021  -0.36915  -0.36472  -0.36375
 Alpha  occ. eigenvalues --   -0.36315  -0.36127  -0.34482  -0.34310  -0.34243
 Alpha  occ. eigenvalues --   -0.33850  -0.33485  -0.32812  -0.32269  -0.31484
 Alpha  occ. eigenvalues --   -0.31395  -0.31043  -0.30904  -0.30536  -0.30461
 Alpha  occ. eigenvalues --   -0.29991  -0.29689  -0.29269  -0.24127  -0.24022
 Alpha  occ. eigenvalues --   -0.21446  -0.21061
 Alpha virt. eigenvalues --   -0.08984  -0.08587  -0.01702  -0.01623   0.00276
 Alpha virt. eigenvalues --    0.00517   0.02010   0.02458   0.02810   0.03409
 Alpha virt. eigenvalues --    0.05337   0.05563   0.05878   0.06097   0.06404

 Mulliken charges:
               1
     1  Mg  12.003681
     2  C    6.034269
     3  C    5.992503
     4  C    5.965565
     5  C    5.991603
     6  N    7.019754
     7  C    5.961991
     8  C    6.012283
     9  C    5.994193
    10  C    6.025876
    11  C    5.997712
    12  C    6.002439
    13  C    6.000154
    14  H    0.996189
    15  N    6.990159
    16  C    6.041962
    17  C    6.018273
    18  C    6.015409
    19  C    6.040802
    20  C    5.999390
    21  C    6.012318
    22  O    8.029314
    23  C    5.991173
    24  N    6.977384
    25  C    6.042224
    26  C    5.989486
    27  C    6.009633
    28  C    5.978100
    29  C    6.000990
    30  C    6.010336
    31  C    5.998996
    32  N    7.006702
    33  C    5.964646
    34  C    5.970966
    35  C    5.991827
    36  C    5.966648
    37  C    6.004662
    38  C    5.990876
    39  O    7.964423
    40  C    5.997803
    41  C    5.995976
    42  O    7.997619
    43  O    7.998828
    44  C    6.002381
    45  H    1.014742
    46  H    1.000282
    47  H    0.984133
    48  H    1.000466
    49  H    1.003369
    50  H    0.998956
    51  H    1.001665
    52  H    1.014186
    53  H    0.992203
    54  H    1.005065
    55  H    1.005875
    56  H    0.999704
    57  H    1.018652
    58  H    1.016110
    59  H    1.016324
    60  H    1.005175
    61  H    1.014546
    62  H    1.009091
    63  H    0.998315
    64  H    0.994323
    65  H    1.004335
    66  H    1.007504
    67  H    0.993534
    68  H    0.988624
    69  H    1.003479
    70  H    1.007345
    71  H    0.982545
    72  H    0.995154
    73  H    0.978824
    74  H    0.982846
    75  H    0.982830
    76  H    0.992961
    77  H    0.993065
    78  H    0.998329
    79  H    0.997923
    80  Mg  12.000014
    81  C    5.999734
    82  C    5.999978
    83  C    6.000293
    84  C    5.999981
    85  N    6.999885
    86  C    6.000267
    87  C    5.999975
    88  C    6.000008
    89  C    5.999910
    90  C    6.000029
    91  C    5.999995
    92  C    5.999986
    93  H    1.000021
    94  N    7.000053
    95  C    5.999815
    96  C    5.999834
    97  C    5.999952
    98  C    5.999687
    99  C    6.000063
   100  C    5.999921
   101  O    7.999837
   102  C    6.000057
   103  N    7.000060
   104  C    5.999709
   105  C    6.000086
   106  C    5.999929
   107  C    6.000128
   108  C    6.000025
   109  C    5.999947
   110  C    5.999988
   111  N    7.000035
   112  C    6.000188
   113  C    6.000201
   114  C    6.000006
   115  C    6.000205
   116  C    5.999989
   117  C    6.000099
   118  O    8.000220
   119  C    6.000051
   120  C    6.000020
   121  O    8.000008
   122  O    8.000012
   123  C    5.999993
   124  H    0.999913
   125  H    0.999965
   126  H    1.000116
   127  H    0.999966
   128  H    0.999988
   129  H    0.999898
   130  H    1.000007
   131  H    0.999969
   132  H    1.000074
   133  H    0.999965
   134  H    1.000034
   135  H    0.999987
   136  H    0.999883
   137  H    0.999884
   138  H    0.999858
   139  H    0.999914
   140  H    0.999955
   141  H    0.999932
   142  H    0.999997
   143  H    1.000016
   144  H    0.999988
   145  H    1.000017
   146  H    0.999931
   147  H    1.000006
   148  H    1.000085
   149  H    1.000005
   150  H    0.999995
   151  H    1.000054
   152  H    1.000125
   153  H    1.000085
   154  H    1.000094
   155  H    1.000045
   156  H    0.999994
   157  H    1.000022
   158  H    1.000038
 Sum of Mulliken charges = 624.00000

 Dipole moment (field-independent basis, Debye):
    X=             -2.8998    Y=             -4.2006    Z=              9.3982  Tot=             10.6949
 Quadrupole moment (field-independent basis, Debye-Ang):
   XX=           -155.7309   YY=              5.6124   ZZ=              2.1942
   XY=           -109.5501   XZ=            247.1919   YZ=             -8.8839

 Normal termination of Gaussian 16 at Wed Sep 22 00:40:14 2021.
