 Gaussian 16, Revision A.03,
 Gaussian 16:  ES64L-G16RevA.03 25-Dec-2016

 -----------------------------------
 #p cam-b3lyp/Def2SVP td=(nstates=5)
 -----------------------------------

 --------------------------------
 TDDFT excited states in gaussian
 --------------------------------
 Symbolic Z-matrix:
 Charge =  0 Multiplicity = 1

                         Standard orientation:
 ---------------------------------------------------------------------
 Center     Atomic      Atomic             Coordinates (Angstroms)
 Number     Number       Type             X           Y           Z
 ---------------------------------------------------------------------
      1         12           0       26.095040    0.445115   -0.240234
      2          6           0       23.332790   -1.569348    0.045589
      3          6           0       28.027166   -2.150588    0.894067
      4          6           0       28.882821    2.500815   -0.414951
      5          6           0       24.050505    3.152893   -0.953100
      6          7           0       25.734501   -1.654791    0.463592
      7          6           0       24.505628   -2.245747    0.385694
      8          6           0       24.570198   -3.638688    0.789823
      9          6           0       25.993742   -3.853900    1.278932
     10          6           0       26.668983   -2.463544    0.901139
     11          6           0       26.225062   -4.242801    2.779994
     12          6           0       24.148038   -4.599872   -0.373120
     13          6           0       23.420438   -5.928991    0.029384
     14          1           0       23.749682   -6.520681    1.413992
     15          7           0       28.188141    0.139504    0.083034
     16          6           0       28.763725   -1.033978    0.539169
     17          6           0       30.222879   -0.836405    0.654566
     18          6           0       30.496682    0.544333    0.261643
     19          6           0       29.181962    1.121631   -0.068147
     20          6           0       31.202815   -1.892267    1.139539
     21          6           0       31.845394    1.203795    0.091665
     22          8           0       31.896987    2.372439   -0.330298
     23          6           0       33.144063    0.570986    0.426432
     24          7           0       26.431125    2.548656   -0.551164
     25          6           0       27.646537    3.098408   -0.626661
     26          6           0       27.554947    4.563195   -1.085717
     27          6           0       26.001945    4.755638   -1.523757
     28          6           0       25.469436    3.357756   -1.049281
     29          6           0       28.046758    5.539437    0.026957
     30          6           0       25.755557    4.951722   -3.044828
     31          6           0       25.254866    6.341906   -3.464451
     32          7           0       24.079399    0.800634   -0.363008
     33          6           0       23.368063    1.967911   -0.650226
     34          6           0       21.914400    1.691144   -0.652313
     35          6           0       21.900498    0.306546   -0.361593
     36          6           0       23.224614   -0.177743   -0.187746
     37          6           0       20.823129    2.597767   -0.946707
     38          6           0       21.006882   -0.866198   -0.265314
     39          8           0       19.821716   -0.983444   -0.430777
     40          6           0       21.909698   -2.112875    0.045165
     41          6           0       21.391076   -2.772950    1.253926
     42          8           0       21.531495   -2.241492    2.367193
     43          8           0       20.897432   -4.026071    1.056015
     44          6           0       20.549941   -4.834693    2.220290
     45          1           0       28.613960   -2.997184    1.256583
     46          1           0       29.767398    3.141351   -0.428263
     47          1           0       23.459545    4.000507   -1.306044
     48          1           0       23.881154   -3.776348    1.623823
     49          1           0       26.537882   -4.538753    0.627515
     50          1           0       25.394599   -4.391047    3.471016
     51          1           0       26.873708   -3.487858    3.223638
     52          1           0       26.838676   -5.134915    2.907746
     53          1           0       25.007508   -4.798182   -1.013613
     54          1           0       23.571890   -4.032824   -1.104050
     55          1           0       23.615216   -6.700930   -0.715647
     56          1           0       22.342803   -5.807491    0.135053
     57          1           0       30.748179   -2.872664    1.277530
     58          1           0       31.613678   -1.627992    2.114343
     59          1           0       31.926752   -2.117444    0.356601
     60          1           0       33.916176    1.269789    0.105953
     61          1           0       33.292487   -0.398617   -0.050699
     62          1           0       33.166365    0.329659    1.489285
     63          1           0       28.118013    4.636686   -2.016215
     64          1           0       25.499254    5.533428   -0.949020
     65          1           0       28.767196    6.276146   -0.328721
     66          1           0       28.533186    4.992728    0.835253
     67          1           0       27.127456    5.978966    0.414724
     68          1           0       25.038651    4.244170   -3.459703
     69          1           0       26.656174    4.763228   -3.629585
     70          1           0       25.610273    7.085653   -2.751178
     71          1           0       24.165874    6.329521   -3.432029
     72          1           0       25.554068    6.478889   -4.502776
     73          1           0       19.902412    2.078543   -1.211846
     74          1           0       21.050957    3.301195   -1.747331
     75          1           0       20.523260    3.066287   -0.009220
     76          1           0       21.769403   -2.698184   -0.864222
     77          1           0       19.709707   -4.450016    2.798975
     78          1           0       21.426675   -5.025399    2.839143
     79          1           0       20.204442   -5.814389    1.890619
     80         12           0      -26.348238   -0.213478    0.221599
     81          6           0      -23.006947   -0.977466   -0.204461
     82          6           0      -25.569743    1.019532    3.339925
     83          6           0      -29.522313    1.085274    0.415747
     84          6           0      -27.025815   -1.362558   -2.951994
     85          7           0      -24.493853    0.177819    1.336843
     86          6           0      -23.252811   -0.300995    0.965847
     87          6           0      -22.190611   -0.006723    2.021757
     88          6           0      -23.089635    0.316284    3.272976
     89          6           0      -24.437326    0.560848    2.610025
     90          6           0      -23.089393   -0.740530    4.468540
     91          6           0      -21.133451    1.084359    1.658581
     92          6           0      -19.694819    0.739050    1.980549
     93          1           0      -19.144676    1.580800    3.121427
     94          7           0      -27.347799    0.893761    1.668287
     95          6           0      -26.880918    1.269295    2.864400
     96          6           0      -27.918663    1.926215    3.640133
     97          6           0      -29.089465    2.006573    2.904792
     98          6           0      -28.695247    1.365086    1.577605
     99          6           0      -27.648846    2.541773    5.094904
    100          6           0      -30.473408    2.557660    3.388006
    101          8           0      -30.552136    3.069295    4.540673
    102          6           0      -31.671230    2.541779    2.517610
    103          7           0      -28.035258    0.078542   -1.216205
    104          6           0      -29.236022    0.462832   -0.848967
    105          6           0      -30.305447    0.091544   -1.854904
    106          6           0      -29.574369   -0.630188   -3.037361
    107          6           0      -28.119326   -0.735260   -2.371872
    108          6           0      -31.663120   -0.507577   -1.367066
    109          6           0      -29.518852    0.022303   -4.449111
    110          6           0      -29.160708   -0.962884   -5.542514
    111          7           0      -25.225503   -1.015572   -1.316658
    112          6           0      -25.654893   -1.532675   -2.560800
    113          6           0      -24.520968   -2.144416   -3.198330
    114          6           0      -23.433377   -1.993162   -2.303911
    115          6           0      -23.941291   -1.270285   -1.228062
    116          6           0      -24.543178   -3.014661   -4.446131
    117          6           0      -22.101591   -2.312199   -2.150046
    118          8           0      -21.252072   -2.802764   -2.842671
    119          6           0      -21.689907   -1.523504   -0.800504
    120          6           0      -20.970187   -0.275925   -1.310504
    121          8           0      -21.506821    0.731936   -1.728620
    122          8           0      -19.611964   -0.534006   -1.218899
    123          6           0      -18.729808    0.494488   -1.760787
    124          1           0      -25.430594    1.240466    4.400094
    125          1           0      -30.518658    1.510785    0.550173
    126          1           0      -27.118227   -1.887276   -3.905177
    127          1           0      -21.681853   -0.944915    2.241351
    128          1           0      -22.823895    1.324446    3.593004
    129          1           0      -24.047841   -0.531566    4.943612
    130          1           0      -22.371958   -0.521793    5.259841
    131          1           0      -22.978824   -1.790413    4.197552
    132          1           0      -21.453511    1.943404    2.248596
    133          1           0      -21.207426    1.534191    0.668705
    134          1           0      -19.114391    0.892947    1.070582
    135          1           0      -19.573441   -0.299674    2.288463
    136          1           0      -26.620482    2.462234    5.449898
    137          1           0      -28.296837    2.071447    5.835254
    138          1           0      -27.771909    3.623316    5.130986
    139          1           0      -31.905076    1.514581    2.239611
    140          1           0      -31.586533    3.262454    1.704143
    141          1           0      -32.492120    2.756775    3.200601
    142          1           0      -30.705840    0.918461   -2.441777
    143          1           0      -29.798140   -1.696467   -3.077792
    144          1           0      -31.688027   -0.348280   -0.288174
    145          1           0      -31.833384   -1.535252   -1.690054
    146          1           0      -32.543387    0.011775   -1.746158
    147          1           0      -28.826426    0.859809   -4.365161
    148          1           0      -30.505211    0.468579   -4.575320
    149          1           0      -29.660019   -0.634894   -6.454565
    150          1           0      -29.466808   -1.993803   -5.360818
    151          1           0      -28.098393   -0.870286   -5.768521
    152          1           0      -23.606336   -3.538662   -4.635689
    153          1           0      -24.814852   -2.377250   -5.286561
    154          1           0      -25.319717   -3.777026   -4.382755
    155          1           0      -21.145872   -2.170737   -0.111909
    156          1           0      -18.873747    0.564817   -2.839076
    157          1           0      -17.687438    0.312471   -1.501428
    158          1           0      -19.022146    1.466999   -1.365735
 ---------------------------------------------------------------------

 SCF Done:  E(RCAM-B3LYP) =  -4069.84871015     A.U. after   18 cycles

 Excitation energies and oscillator strengths:

 Excited State   1:      Singlet-A      1.7299 eV  716.72 nm  f=0.3915  <S**2>=0.000
     310 -> 316        0.18860
     312 -> 314        0.68241
     310 <- 316        0.10885
 This state for optimization and/or second-order correction.
 Total Energy, E(TD-HF/TD-DFT) =  -4069.78513785
 Copying the excited state density for this state as the 1-particle RhoCI density.

 Excited State   2:      Singlet-A      1.8651 eV  664.75 nm  f=0.3711  <S**2>=0.000
     309 -> 315        0.14280
     311 -> 313        0.68807

 Excited State   3:      Singlet-A      2.2550 eV  549.81 nm  f=0.0854  <S**2>=0.000
     310 -> 314        0.62547
     312 -> 316       -0.31649

 Excited State   4:      Singlet-A      2.2638 eV  547.69 nm  f=0.1275  <S**2>=0.000
     309 -> 313        0.64675
     311 -> 315       -0.24680
     311 -> 317       -0.10331

 Excited State   5:      Singlet-A      3.1827 eV  389.55 nm  f=0.0000  <S**2>=0.000
     312 -> 313        0.70710

 The electronic state is 1-A.
 Alpha  occ. eigenvalues --  -46.89391 -46.88875 -19.25959 -19.24508 -19.20215
 Alpha  occ. eigenvalues --  -19.19863 -19.19287 -19.19032 -19.18356 -19.17708
 Alpha  occ. eigenvalues --  -14.42302 -14.42039 -14.41818 -14.41710 -14.40542
 Alpha  occ. eigenvalues --  -14.39480 -14.39234 -14.38479 -10.39546 -10.39078
 Alpha  occ. eigenvalues --  -10.37021 -10.34952 -10.34839 -10.33390 -10.33066
 Alpha  occ. eigenvalues --  -10.32408 -10.32304 -10.31710 -10.31132 -10.31070
 Alpha  occ. eigenvalues --  -10.30903 -10.30637 -10.30599 -10.30404 -10.30345
 Alpha  occ. eigenvalues --  -10.30095 -10.30006 -10.29909 -10.29793 -10.29786
 Alpha  occ. eigenvalues --  -10.29293 -10.29155 -10.29142 -10.28683 -10.28403
 Alpha  occ. eigenvalues --  -10.28384 -10.28380 -10.28336 -10.28286 -10.28270
 Alpha  occ. eigenvalues --  -10.28055 -10.28049 -10.27990 -10.27890 -10.27756
 Alpha  occ. eigenvalues --  -10.27515 -10.27505 -10.27446 -10.27414 -10.27380
 Alpha  occ. eigenvalues --  -10.27369 -10.27223 -10.27207 -10.27180 -10.27143
 Alpha  occ. eigenvalues --  -10.26977 -10.26945 -10.26928 -10.26910 -10.26849
 Alpha  occ. eigenvalues --  -10.26772 -10.26747 -10.26473 -10.26434 -10.26094
 Alpha  occ. eigenvalues --  -10.26056 -10.26055 -10.26006 -10.25999 -10.25931
 Alpha  occ. eigenvalues --  -10.25793 -10.25499 -10.25344 -10.25285 -10.25240
 Alpha  occ. eigenvalues --  -10.23092  -3.17830  -3.17298  -1.92713  -1.92291
 Alpha  occ. eigenvalues --   -1.92219  -1.92133  -1.91737  -1.91605  -1.16424
 Alpha  occ. eigenvalues --   -1.15450  -1.10935  -1.09791  -1.09136  -1.08910
 Alpha  occ. eigenvalues --   -1.07895  -1.07112  -1.05109  -1.04576  -1.04040
 Alpha  occ. eigenvalues --   -1.03831  -1.03364  -1.03183  -1.02539  -1.00946
 Alpha  occ. eigenvalues --   -0.92475  -0.91552  -0.89172  -0.89115  -0.88486
 Alpha  occ. eigenvalues --   -0.88269  -0.87960  -0.87696  -0.87182  -0.87048
 Alpha  occ. eigenvalues --   -0.86722  -0.86623  -0.86248  -0.85816  -0.84496
 Alpha  occ. eigenvalues --   -0.83933  -0.83625  -0.83554  -0.83197  -0.82313
 Alpha  occ. eigenvalues --   -0.82049  -0.81862  -0.81203  -0.80698  -0.80538
 Alpha  occ. eigenvalues --   -0.80209  -0.78425  -0.77634  -0.77543  -0.77297
 Alpha  occ. eigenvalues --   -0.77153  -0.76731  -0.76224  -0.75320  -0.75133
 Alpha  occ. eigenvalues --   -0.74879  -0.72584  -0.72384  -0.71685  -0.71496
 Alpha  occ. eigenvalues --   -0.69716  -0.69228  -0.69106  -0.68344  -0.68016
 Alpha  occ. eigenvalues --   -0.67895  -0.67345  -0.66908  -0.65824  -0.65604
 Alpha  occ. eigenvalues --   -0.65471  -0.65434  -0.65015  -0.64669  -0.64316
 Alpha  occ. eigenvalues --   -0.64032  -0.62712  -0.61693  -0.59962  -0.59838
 Alpha  occ. eigenvalues --   -0.59576  -0.59463  -0.59207  -0.59018  -0.58738
 Alpha  occ. eigenvalues --   -0.58453  -0.58211  -0.57831  -0.57380  -0.57276
 Alpha  occ. eigenvalues --   -0.56429  -0.56039  -0.55952  -0.55480  -0.55330
 Alpha  occ. eigenvalues --   -0.55031  -0.54707  -0.54175  -0.53962  -0.53916
 Alpha  occ. eigenvalues --   -0.53720  -0.53435  -0.53325  -0.53150  -0.52911
 Alpha  occ. eigenvalues --   -0.52771  -0.52707  -0.52403  -0.52203  -0.52001
 Alpha  occ. eigenvalues --   -0.51649  -0.51580  -0.51491  -0.51266  -0.51155
 Alpha  occ. eigenvalues --   -0.51020  -0.50792  -0.50520  -0.50195  -0.50146
 Alpha  occ. eigenvalues --   -0.49999  -0.49949  -0.49830  -0.49803  -0.49443
 Alpha  occ. eigenvalues --   -0.49355  -0.49019  -0.48979  -0.48697  -0.48530
 Alpha  occ. eigenvalues --   -0.48525  -0.48461  -0.48210  -0.48099  -0.47937
 Alpha  occ. eigenvalues --   -0.47575  -0.47457  -0.47354  -0.47185  -0.47169
 Alpha  occ. eigenvalues --   -0.47092  -0.46684  -0.46538  -0.46275  -0.46179
 Alpha  occ. eigenvalues --   -0.46123  -0.45951  -0.45855  -0.45692  -0.45499
 Alpha  occ. eigenvalues --   -0.45209  -0.45186  -0.45182  -0.45035  -0.44905
 Alpha  occ. eigenvalues --   -0.44871  -0.44656  -0.44515  -0.44313  -0.44269
 Alpha  occ. eigenvalues --   -0.43934  -0.43790  -0.43586  -0.43578  -0.43477
 Alpha  occ. eigenvalues --   -0.43401  -0.43151  -0.43075  -0.42996  -0.42698
 Alpha  occ. eigenvalues --   -0.42606  -0.42545  -0.42466  -0.42167  -0.42129
 Alpha  occ. eigenvalues --   -0.42029  -0.41828  -0.41592  -0.41474  -0.41141
 Alpha  occ. eigenvalues --   -0.40897  -0.40762  -0.40673  -0.40400  -0.40322
 Alpha  occ. eigenvalues --   -0.40146  -0.39978  -0.39854  -0.39524  -0.39262
 Alpha  occ. eigenvalues --   -0.38963  -0.38173  -0.38049  -0.37462  -0.37327
 Alpha  occ. eigenvalues --   -0.37205  -0.36699  -0.36610  -0.36476  -0.36317
 Alpha  occ. eigenvalues --   -0.36010  -0.35325  -0.34409  -0.34277  -0.34026
 Alpha  occ. eigenvalues --   -0.33956  -0.33101  -0.33070  -0.32433  -0.31871
 Alpha  occ. eigenvalues --   -0.31120  -0.30881  -0.30847  -0.30680  -0.30050
 Alpha  occ. eigenvalues --   -0.29649  -0.29492  -0.29091  -0.24057  -0.23869
 Alpha  occ. eigenvalues --   -0.21475  -0.20789
 Alpha virt. eigenvalues --   -0.08440  -0.08277  -0.01781  -0.01708   0.00126
 Alpha virt. eigenvalues --    0.00558   0.01817   0.02004   0.02559   0.03106
 Alpha virt. eigenvalues --    0.04481   0.05186   0.05250   0.05845   0.06017

 Mulliken charges:
               1
     1  Mg   0.814797
     2  C   -0.017224
     3  C   -0.070454
     4  C   -0.047052
     5  C   -0.073591
     6  N   -0.243858
     7  C   -0.051362
     8  C   -0.008521
     9  C    0.010449
    10  C   -0.041632
    11  C    0.066177
    12  C    0.061593
    13  C   -0.064228
    14  H    0.001600
    15  N   -0.381029
    16  C    0.179966
    17  C   -0.151781
    18  C   -0.018620
    19  C    0.094801
    20  C    0.107323
    21  C   -0.005733
    22  O   -0.232224
    23  C    0.074386
    24  N   -0.261034
    25  C    0.046054
    26  C   -0.044086
    27  C   -0.048518
    28  C    0.017427
    29  C    0.079027
    30  C    0.027461
    31  C    0.003019
    32  N   -0.356636
    33  C    0.120869
    34  C   -0.149997
    35  C   -0.006747
    36  C    0.104762
    37  C    0.121493
    38  C    0.014254
    39  O   -0.146048
    40  C    0.025515
    41  C    0.218369
    42  O   -0.248931
    43  O   -0.321508
    44  C    0.184508
    45  H   -0.049206
    46  H    0.001127
    47  H   -0.028718
    48  H    0.022842
    49  H    0.008028
    50  H    0.027368
    51  H    0.010386
    52  H    0.004934
    53  H   -0.006430
    54  H    0.001673
    55  H    0.031411
    56  H    0.046819
    57  H    0.002020
    58  H    0.041577
    59  H    0.029950
    60  H    0.037751
    61  H    0.020618
    62  H    0.031138
    63  H    0.014343
    64  H    0.014666
    65  H    0.025700
    66  H    0.024977
    67  H    0.008088
    68  H    0.007547
    69  H    0.001699
    70  H    0.019678
    71  H    0.010877
    72  H    0.018627
    73  H    0.025125
    74  H    0.026377
    75  H    0.033624
    76  H    0.036833
    77  H    0.048273
    78  H    0.035134
    79  H    0.032106
    80  Mg   0.828947
    81  C   -0.030272
    82  C   -0.118197
    83  C   -0.096007
    84  C   -0.030483
    85  N   -0.261062
    86  C   -0.046124
    87  C   -0.037666
    88  C   -0.022691
    89  C    0.032241
    90  C    0.082823
    91  C    0.069542
    92  C   -0.053121
    93  H    0.008499
    94  N   -0.381664
    95  C    0.167548
    96  C   -0.137035
    97  C   -0.024678
    98  C    0.115527
    99  C    0.116998
   100  C    0.007361
   101  O   -0.226566
   102  C    0.070469
   103  N   -0.264382
   104  C    0.101562
   105  C   -0.027362
   106  C   -0.054101
   107  C    0.007690
   108  C    0.065020
   109  C    0.060302
   110  C    0.025636
   111  N   -0.347627
   112  C    0.034462
   113  C   -0.140317
   114  C    0.052375
   115  C    0.114908
   116  C    0.104370
   117  C   -0.012344
   118  O   -0.157306
   119  C   -0.046232
   120  C    0.232174
   121  O   -0.211947
   122  O   -0.335428
   123  C    0.185497
   124  H   -0.025994
   125  H   -0.042736
   126  H   -0.041117
   127  H   -0.000717
   128  H    0.006119
   129  H    0.004918
   130  H    0.021640
   131  H    0.031776
   132  H   -0.004018
   133  H    0.028905
   134  H    0.025669
   135  H    0.027224
   136  H   -0.002835
   137  H    0.041075
   138  H    0.035881
   139  H    0.040797
   140  H    0.068736
   141  H    0.028190
   142  H    0.010224
   143  H    0.006676
   144  H    0.011346
   145  H    0.019359
   146  H    0.006921
   147  H    0.016840
   148  H    0.001337
   149  H    0.007773
   150  H    0.022099
   151  H    0.031334
   152  H    0.034202
   153  H    0.016132
   154  H    0.019397
   155  H    0.024856
   156  H    0.038232
   157  H    0.041700
   158  H    0.026724
 Sum of Mulliken charges =  -0.00000

 Dipole moment (field-independent basis, Debye):
    X=             -1.6205    Y=             -2.8708    Z=              0.3404  Tot=              3.3141
 Quadrupole moment (field-independent basis, Debye-Ang):
   XX=           -184.7975   YY=           -492.0798   ZZ=           -511.7849
   XY=            -65.9760   XZ=             -7.6714   YZ=            -23.4005

 Normal termination of Gaussian 16 at Thu Sep  2 05:15:31 2021.
