 Gaussian 16, Revision A.03,
 Gaussian 16:  ES64L-G16RevA.03 25-Dec-2016

 ----------------------------------------------------------
 #p cam-b3lyp/Def2SVP td=(nstates=5) density=(transition=1)
 ----------------------------------------------------------

 --------------------------------
 TDDFT excited states in gaussian
 --------------------------------
 Symbolic Z-matrix:
 Charge =  0 Multiplicity = 1

                         Standard orientation:
 ---------------------------------------------------------------------
 Center     Atomic      Atomic             Coordinates (Angstroms)
 Number     Number       Type             X           Y           Z
 ---------------------------------------------------------------------
      1         12           0      -16.961430   -0.658829    0.261324
      2          6           0      -17.086476    2.419459   -1.180760
      3          6           0      -16.109377    0.725451    3.293595
      4          6           0      -16.698612   -3.793328    1.512966
      5          6           0      -17.363121   -2.059032   -2.958898
      6          7           0      -16.417288    1.347941    0.917804
      7          6           0      -16.865381    2.436144    0.236571
      8          6           0      -16.907162    3.677380    1.061862
      9          6           0      -16.323486    3.094185    2.451189
     10          6           0      -16.270771    1.617761    2.232248
     11          6           0      -14.888812    3.689893    2.815710
     12          6           0      -18.427695    4.154648    1.199846
     13          6           0      -18.673192    5.629167    1.527161
     14          1           0      -17.582964    6.606109    2.033605
     15          7           0      -16.575175   -1.473832    2.148379
     16          6           0      -16.218519   -0.713281    3.273922
     17          6           0      -15.987993   -1.642746    4.355426
     18          6           0      -16.184352   -2.948965    3.862886
     19          6           0      -16.548923   -2.749519    2.466989
     20          6           0      -15.654547   -1.144064    5.780889
     21          6           0      -15.952441   -4.345053    4.646324
     22          8           0      -16.286747   -5.439295    4.174794
     23          6           0      -15.344990   -4.455413    6.035049
     24          7           0      -17.097836   -2.676778   -0.638266
     25          6           0      -16.907937   -3.779099    0.125548
     26          6           0      -16.753284   -5.033282   -0.733080
     27          6           0      -17.308592   -4.509486   -2.180061
     28          6           0      -17.377567   -2.993542   -1.937631
     29          6           0      -15.316348   -5.729886   -0.709113
     30          6           0      -18.806192   -4.954337   -2.578646
     31          6           0      -19.077183   -5.550945   -3.947504
     32          7           0      -17.238102   -0.032017   -1.711846
     33          6           0      -17.369986   -0.669168   -2.888477
     34          6           0      -17.626903    0.325090   -3.977081
     35          6           0      -17.569436    1.556768   -3.282723
     36          6           0      -17.206213    1.255756   -1.947277
     37          6           0      -17.924496    0.136232   -5.422531
     38          6           0      -17.697616    2.945034   -3.523829
     39          8           0      -17.946932    3.560890   -4.580492
     40          6           0      -17.385419    3.575795   -2.169138
     41          6           0      -16.230611    4.433127   -2.309075
     42          8           0      -15.135586    4.203957   -2.718367
     43          8           0      -16.584020    5.653722   -1.741537
     44          6           0      -15.610908    6.807682   -1.637586
     45          1           0      -16.060899    1.093518    4.320163
     46          1           0      -16.517117   -4.797384    1.902936
     47          1           0      -17.297178   -2.406089   -3.991590
     48          1           0      -16.349957    4.570388    0.779431
     49          1           0      -16.990624    3.314201    3.284607
     50          1           0      -14.699904    3.861117    3.875219
     51          1           0      -14.697928    4.564259    2.193686
     52          1           0      -14.160641    2.937558    2.510879
     53          1           0      -18.962676    3.572785    1.950653
     54          1           0      -18.882523    3.929875    0.234779
     55          1           0      -19.492072    5.634614    2.247656
     56          1           0      -19.104849    6.110079    0.650207
     57          1           0      -15.666526   -0.059804    5.891180
     58          1           0      -14.677372   -1.555214    6.032064
     59          1           0      -16.378094   -1.602240    6.455565
     60          1           0      -16.098020   -4.025715    6.694623
     61          1           0      -14.540020   -3.738345    6.197335
     62          1           0      -14.941863   -5.455012    6.196216
     63          1           0      -17.470321   -5.770698   -0.370311
     64          1           0      -16.643369   -4.816591   -2.987309
     65          1           0      -14.887326   -5.787530   -1.709751
     66          1           0      -15.390070   -6.724277   -0.270303
     67          1           0      -14.607499   -5.128458   -0.139477
     68          1           0      -19.525746   -4.153712   -2.407979
     69          1           0      -19.105499   -5.694392   -1.837077
     70          1           0      -19.840743   -4.926298   -4.409762
     71          1           0      -19.382157   -6.596136   -3.903964
     72          1           0      -18.191628   -5.444313   -4.575582
     73          1           0      -18.035000   -0.901489   -5.736784
     74          1           0      -17.130987    0.556595   -6.040927
     75          1           0      -18.852633    0.659522   -5.651504
     76          1           0      -18.218502    4.167188   -1.788116
     77          1           0      -14.629878    6.511554   -2.009684
     78          1           0      -15.472613    7.075432   -0.589219
     79          1           0      -16.046666    7.607260   -2.236602
     80         12           0       17.227620   -0.634376   -0.113116
     81          6           0       15.061387    2.154716    0.620515
     82          6           0       19.861977    1.677218   -0.231542
     83          6           0       19.235860   -3.172896   -0.663374
     84          6           0       14.422993   -2.716342   -0.256671
     85          7           0       17.375657    1.707251    0.154779
     86          6           0       16.436222    2.558073    0.645507
     87          6           0       17.038080    3.888296    1.068261
     88          6           0       18.547620    3.848390    0.456032
     89          6           0       18.605358    2.339974    0.078294
     90          6           0       18.817946    4.860387   -0.685450
     91          6           0       16.999398    4.104133    2.618905
     92          6           0       16.263329    5.396729    3.057165
     93          1           0       17.230780    6.484226    3.804083
     94          7           0       19.205660   -0.729950   -0.391448
     95          6           0       20.191326    0.312774   -0.449266
     96          6           0       21.566923   -0.189299   -0.677690
     97          6           0       21.349110   -1.604655   -0.739674
     98          6           0       19.909176   -1.876965   -0.595376
     99          6           0       22.811581    0.690017   -0.814088
    100          6           0       22.334490   -2.676698   -1.011668
    101          8           0       22.154911   -3.875630   -0.827089
    102          6           0       23.756801   -2.257985   -1.432881
    103          7           0       16.881800   -2.635588   -0.238024
    104          6           0       17.882184   -3.506237   -0.503983
    105          6           0       17.385857   -4.879990   -0.860055
    106          6           0       15.848906   -4.787566   -0.694983
    107          6           0       15.672865   -3.300159   -0.314577
    108          6           0       17.872452   -5.403767   -2.194977
    109          6           0       15.337137   -5.769735    0.515182
    110          6           0       14.163935   -6.821337    0.120212
    111          7           0       15.123485   -0.329065   -0.137149
    112          6           0       14.119040   -1.326654   -0.124806
    113          6           0       12.830251   -0.658353    0.088593
    114          6           0       13.203395    0.644820    0.510713
    115          6           0       14.561336    0.821727    0.241131
    116          6           0       11.411342   -1.207744   -0.024111
    117          6           0       12.599763    1.968545    0.833438
    118          8           0       11.425656    2.416926    0.951223
    119          6           0       13.828934    2.937647    1.030592
    120          6           0       13.615148    4.154773    0.179863
    121          8           0       13.230788    4.126881   -0.954985
    122          8           0       13.809811    5.278938    0.933390
    123          6           0       13.292613    6.503338    0.271645
    124          1           0       20.618093    2.448699   -0.390122
    125          1           0       19.849175   -4.057693   -0.847832
    126          1           0       13.536323   -3.353358   -0.259101
    127          1           0       16.479571    4.654058    0.529890
    128          1           0       19.312203    3.986867    1.220923
    129          1           0       19.009696    4.342972   -1.625915
    130          1           0       19.665017    5.500226   -0.434710
    131          1           0       18.039564    5.604087   -0.856298
    132          1           0       18.001991    4.166679    3.042781
    133          1           0       16.484781    3.287297    3.125618
    134          1           0       15.546821    5.229378    3.861771
    135          1           0       15.671388    5.880319    2.280724
    136          1           0       22.739508    1.712918   -0.443172
    137          1           0       23.242086    0.742152   -1.814062
    138          1           0       23.567069    0.198098   -0.200597
    139          1           0       23.727320   -1.706218   -2.372408
    140          1           0       24.437913   -3.107342   -1.495505
    141          1           0       24.152935   -1.601687   -0.658010
    142          1           0       17.831348   -5.588296   -0.160219
    143          1           0       15.337214   -4.985479   -1.636384
    144          1           0       18.617795   -6.194621   -2.106281
    145          1           0       18.393283   -4.674875   -2.815800
    146          1           0       17.003057   -5.747923   -2.755547
    147          1           0       14.964813   -5.237523    1.389919
    148          1           0       16.137403   -6.393745    0.912162
    149          1           0       14.216251   -6.919269   -0.964297
    150          1           0       13.181078   -6.472149    0.439363
    151          1           0       14.394252   -7.825271    0.475870
    152          1           0       10.726615   -0.725653    0.673354
    153          1           0       11.435283   -2.239551    0.328391
    154          1           0       11.213246   -1.175199   -1.095562
    155          1           0       13.763953    3.285222    2.061333
    156          1           0       13.746736    6.553095   -0.717814
    157          1           0       13.731863    7.310487    0.857674
    158          1           0       12.219550    6.610708    0.113425
 ---------------------------------------------------------------------

 SCF Done:  E(RCAM-B3LYP) =  -4069.80233450     A.U. after   19 cycles

 Excitation energies and oscillator strengths:

 Excited State   1:      Singlet-A      1.6722 eV  741.47 nm  f=0.3736  <S**2>=0.000
     309 -> 315        0.18801
     311 -> 313        0.68426
     309 <- 315        0.11183
 This state for optimization and/or second-order correction.
 Total Energy, E(TD-HF/TD-DFT) =  -4069.74088408
 Copying the excited state density for this state as the 1-particle RhoCI density.

 Excited State   2:      Singlet-A      1.7389 eV  713.02 nm  f=0.3958  <S**2>=0.000
     310 -> 316        0.19176
     312 -> 314        0.68293
     310 <- 316        0.10976

 Excited State   3:      Singlet-A      2.1741 eV  570.29 nm  f=0.1325  <S**2>=0.000
     309 -> 313        0.64728
     311 -> 315       -0.27760

 Excited State   4:      Singlet-A      2.2287 eV  556.31 nm  f=0.1031  <S**2>=0.000
     310 -> 314        0.63903
     312 -> 316       -0.29486

 Excited State   5:      Singlet-A      3.0217 eV  410.31 nm  f=0.0000  <S**2>=0.000
     312 -> 313        0.70709

 The electronic state is 1-A.
 Alpha  occ. eigenvalues --  -46.89353 -46.88527 -19.25642 -19.23633 -19.19740
 Alpha  occ. eigenvalues --  -19.19541 -19.19148 -19.18950 -19.18734 -19.18681
 Alpha  occ. eigenvalues --  -14.42604 -14.42431 -14.41932 -14.41624 -14.40712
 Alpha  occ. eigenvalues --  -14.39504 -14.39344 -14.39246 -10.38815 -10.38602
 Alpha  occ. eigenvalues --  -10.36184 -10.35138 -10.35120 -10.34428 -10.31921
 Alpha  occ. eigenvalues --  -10.31851 -10.31825 -10.31698 -10.31574 -10.31485
 Alpha  occ. eigenvalues --  -10.31286 -10.30863 -10.30795 -10.30664 -10.30628
 Alpha  occ. eigenvalues --  -10.30598 -10.30168 -10.29975 -10.29947 -10.29822
 Alpha  occ. eigenvalues --  -10.29699 -10.29096 -10.29037 -10.28990 -10.28969
 Alpha  occ. eigenvalues --  -10.28906 -10.28808 -10.28726 -10.28626 -10.28527
 Alpha  occ. eigenvalues --  -10.28447 -10.28250 -10.28236 -10.28206 -10.28141
 Alpha  occ. eigenvalues --  -10.28140 -10.28079 -10.27957 -10.27918 -10.27912
 Alpha  occ. eigenvalues --  -10.27827 -10.27774 -10.27469 -10.27416 -10.27350
 Alpha  occ. eigenvalues --  -10.27327 -10.27316 -10.27236 -10.27141 -10.26753
 Alpha  occ. eigenvalues --  -10.26616 -10.26591 -10.26390 -10.26166 -10.26121
 Alpha  occ. eigenvalues --  -10.26115 -10.26106 -10.26073 -10.26052 -10.26019
 Alpha  occ. eigenvalues --  -10.25911 -10.25846 -10.25486 -10.25323 -10.25185
 Alpha  occ. eigenvalues --  -10.24701  -3.17760  -3.17170  -1.92680  -1.92197
 Alpha  occ. eigenvalues --   -1.92072  -1.92067  -1.91625  -1.91491  -1.16958
 Alpha  occ. eigenvalues --   -1.15582  -1.09965  -1.09469  -1.08681  -1.08280
 Alpha  occ. eigenvalues --   -1.07152  -1.07061  -1.05516  -1.04412  -1.03995
 Alpha  occ. eigenvalues --   -1.03530  -1.03263  -1.02583  -1.02579  -1.02012
 Alpha  occ. eigenvalues --   -0.93446  -0.91572  -0.88638  -0.88562  -0.88493
 Alpha  occ. eigenvalues --   -0.88215  -0.88125  -0.87471  -0.87409  -0.87019
 Alpha  occ. eigenvalues --   -0.86991  -0.86860  -0.86175  -0.85632  -0.84278
 Alpha  occ. eigenvalues --   -0.84019  -0.83428  -0.83167  -0.82319  -0.81813
 Alpha  occ. eigenvalues --   -0.81562  -0.81390  -0.81141  -0.80671  -0.80253
 Alpha  occ. eigenvalues --   -0.79756  -0.79092  -0.78366  -0.77424  -0.77094
 Alpha  occ. eigenvalues --   -0.77076  -0.76782  -0.76154  -0.76032  -0.75223
 Alpha  occ. eigenvalues --   -0.75140  -0.72552  -0.72543  -0.71938  -0.71415
 Alpha  occ. eigenvalues --   -0.69210  -0.69172  -0.68743  -0.68594  -0.68180
 Alpha  occ. eigenvalues --   -0.67592  -0.67087  -0.65938  -0.65916  -0.65631
 Alpha  occ. eigenvalues --   -0.65293  -0.65157  -0.64468  -0.64382  -0.64204
 Alpha  occ. eigenvalues --   -0.63993  -0.62363  -0.61768  -0.60798  -0.60403
 Alpha  occ. eigenvalues --   -0.59879  -0.59259  -0.59136  -0.58748  -0.58733
 Alpha  occ. eigenvalues --   -0.58425  -0.58344  -0.57954  -0.57709  -0.57134
 Alpha  occ. eigenvalues --   -0.56134  -0.55980  -0.55455  -0.55272  -0.55245
 Alpha  occ. eigenvalues --   -0.55059  -0.54493  -0.54187  -0.53775  -0.53722
 Alpha  occ. eigenvalues --   -0.53391  -0.52997  -0.52930  -0.52713  -0.52664
 Alpha  occ. eigenvalues --   -0.52559  -0.52155  -0.52151  -0.52089  -0.51653
 Alpha  occ. eigenvalues --   -0.51650  -0.51584  -0.51447  -0.51372  -0.51359
 Alpha  occ. eigenvalues --   -0.50845  -0.50760  -0.50495  -0.50457  -0.50060
 Alpha  occ. eigenvalues --   -0.49965  -0.49798  -0.49760  -0.49654  -0.49424
 Alpha  occ. eigenvalues --   -0.49349  -0.49206  -0.49079  -0.48867  -0.48781
 Alpha  occ. eigenvalues --   -0.48259  -0.48241  -0.48110  -0.48099  -0.48002
 Alpha  occ. eigenvalues --   -0.47904  -0.47567  -0.47561  -0.47464  -0.47222
 Alpha  occ. eigenvalues --   -0.47042  -0.46882  -0.46837  -0.46565  -0.46544
 Alpha  occ. eigenvalues --   -0.46409  -0.46201  -0.46198  -0.46121  -0.45941
 Alpha  occ. eigenvalues --   -0.45570  -0.45538  -0.45143  -0.44983  -0.44810
 Alpha  occ. eigenvalues --   -0.44770  -0.44642  -0.44371  -0.44304  -0.44215
 Alpha  occ. eigenvalues --   -0.44095  -0.43934  -0.43879  -0.43851  -0.43783
 Alpha  occ. eigenvalues --   -0.43647  -0.43315  -0.43094  -0.42857  -0.42624
 Alpha  occ. eigenvalues --   -0.42604  -0.42276  -0.42213  -0.42031  -0.41700
 Alpha  occ. eigenvalues --   -0.41582  -0.41540  -0.41309  -0.41250  -0.41088
 Alpha  occ. eigenvalues --   -0.41006  -0.40789  -0.40764  -0.40691  -0.40430
 Alpha  occ. eigenvalues --   -0.40174  -0.40162  -0.39677  -0.39374  -0.39361
 Alpha  occ. eigenvalues --   -0.38596  -0.38375  -0.38229  -0.37739  -0.37489
 Alpha  occ. eigenvalues --   -0.37485  -0.37336  -0.36711  -0.36532  -0.36375
 Alpha  occ. eigenvalues --   -0.36026  -0.35500  -0.34636  -0.34440  -0.34417
 Alpha  occ. eigenvalues --   -0.34185  -0.33107  -0.33015  -0.31630  -0.31203
 Alpha  occ. eigenvalues --   -0.31054  -0.30989  -0.30974  -0.30592  -0.30268
 Alpha  occ. eigenvalues --   -0.30127  -0.30002  -0.29380  -0.23902  -0.23785
 Alpha  occ. eigenvalues --   -0.21302  -0.21084
 Alpha virt. eigenvalues --   -0.08976  -0.08467  -0.01831  -0.01654   0.00044
 Alpha virt. eigenvalues --    0.00135   0.02060   0.02354   0.02839   0.03558
 Alpha virt. eigenvalues --    0.04229   0.04716   0.05220   0.05382   0.05703

 Mulliken charges:
               1
     1  Mg  11.999974
     2  C    5.999770
     3  C    6.000031
     4  C    6.000232
     5  C    5.999964
     6  N    6.999968
     7  C    6.000270
     8  C    5.999857
     9  C    6.000111
    10  C    5.999795
    11  C    6.000061
    12  C    5.999961
    13  C    5.999964
    14  H    0.999988
    15  N    7.000009
    16  C    5.999659
    17  C    5.999875
    18  C    5.999873
    19  C    5.999771
    20  C    6.000052
    21  C    5.999864
    22  O    7.999870
    23  C    6.000064
    24  N    7.000013
    25  C    5.999768
    26  C    6.000064
    27  C    5.999934
    28  C    6.000167
    29  C    6.000034
    30  C    5.999890
    31  C    5.999999
    32  N    6.999993
    33  C    6.000225
    34  C    6.000240
    35  C    5.999991
    36  C    6.000197
    37  C    5.999908
    38  C    6.000170
    39  O    8.000264
    40  C    5.999979
    41  C    6.000021
    42  O    7.999906
    43  O    8.000068
    44  C    6.000016
    45  H    0.999948
    46  H    0.999943
    47  H    1.000071
    48  H    0.999993
    49  H    1.000061
    50  H    0.999961
    51  H    0.999854
    52  H    0.999825
    53  H    1.000143
    54  H    0.999998
    55  H    1.000130
    56  H    1.000046
    57  H    0.999870
    58  H    0.999737
    59  H    0.999978
    60  H    1.000043
    61  H    0.999822
    62  H    0.999871
    63  H    1.000086
    64  H    0.999981
    65  H    0.999852
    66  H    1.000025
    67  H    0.999883
    68  H    1.000069
    69  H    1.000156
    70  H    1.000069
    71  H    1.000116
    72  H    0.999948
    73  H    1.000177
    74  H    1.000103
    75  H    1.000241
    76  H    1.000154
    77  H    0.999886
    78  H    1.000027
    79  H    1.000107
    80  Mg  12.004472
    81  C    5.971498
    82  C    6.006708
    83  C    6.034380
    84  C    5.988829
    85  N    6.982973
    86  C    6.036054
    87  C    5.989431
    88  C    6.012663
    89  C    5.968363
    90  C    6.002938
    91  C    5.998164
    92  C    5.997892
    93  H    1.007333
    94  N    7.006913
    95  C    5.960285
    96  C    5.975723
    97  C    5.985456
    98  C    5.967573
    99  C    6.004958
   100  C    5.988526
   101  O    7.968075
   102  C    6.004416
   103  N    7.007933
   104  C    5.959603
   105  C    6.010595
   106  C    5.987685
   107  C    6.031746
   108  C    6.000817
   109  C    5.994909
   110  C    5.999061
   111  N    6.995229
   112  C    6.046565
   113  C    6.030315
   114  C    6.004746
   115  C    6.033531
   116  C    6.000194
   117  C    6.009571
   118  O    8.031091
   119  C    6.004770
   120  C    6.006795
   121  O    8.000271
   122  O    8.001913
   123  C    5.997816
   124  H    0.986455
   125  H    0.998927
   126  H    1.012794
   127  H    0.997624
   128  H    0.998747
   129  H    1.000495
   130  H    0.996011
   131  H    0.985636
   132  H    1.009293
   133  H    0.994988
   134  H    0.996939
   135  H    0.998017
   136  H    0.983183
   137  H    0.979640
   138  H    0.983277
   139  H    0.992206
   140  H    0.984953
   141  H    0.994674
   142  H    1.001122
   143  H    1.003976
   144  H    1.002356
   145  H    1.005375
   146  H    0.989916
   147  H    0.998960
   148  H    1.012782
   149  H    1.004049
   150  H    0.997102
   151  H    1.006505
   152  H    1.015835
   153  H    1.017053
   154  H    1.017526
   155  H    1.004767
   156  H    1.004665
   157  H    1.005238
   158  H    1.000134
 Sum of Mulliken charges = 624.00000

 Dipole moment (field-independent basis, Debye):
    X=            -10.7839    Y=             -0.1978    Z=              1.2202  Tot=             10.8545
 Quadrupole moment (field-independent basis, Debye-Ang):
   XX=           -370.0461   YY=              2.5466   ZZ=             -0.1769
   XY=              0.9619   XZ=             26.6759   YZ=              0.4905

 Normal termination of Gaussian 16 at Wed Sep 22 14:34:26 2021.
