 Gaussian 16, Revision A.03,
 Gaussian 16:  ES64L-G16RevA.03 25-Dec-2016

 -----------------------------------
 #p cam-b3lyp/Def2SVP td=(nstates=5)
 -----------------------------------

 --------------------------------
 TDDFT excited states in gaussian
 --------------------------------
 Symbolic Z-matrix:
 Charge =  0 Multiplicity = 1

                         Standard orientation:
 ---------------------------------------------------------------------
 Center     Atomic      Atomic             Coordinates (Angstroms)
 Number     Number       Type             X           Y           Z
 ---------------------------------------------------------------------
      1         12           0        9.744050   -0.078062    0.803676
      2          6           0        9.189145    1.736391   -2.237088
      3          6           0        6.646806    1.205019    1.934984
      4          6           0        9.829825   -2.317539    3.301209
      5          6           0       12.358137   -1.708638   -0.752328
      6          7           0        8.082001    1.332100   -0.038212
      7          6           0        8.137032    1.868543   -1.294149
      8          6           0        6.787033    2.470013   -1.651338
      9          6           0        6.155263    2.511942   -0.197208
     10          6           0        6.969658    1.634553    0.675125
     11          6           0        5.997576    3.916659    0.475956
     12          6           0        6.097686    1.619093   -2.765732
     13          6           0        5.407410    2.340313   -3.995423
     14          1           0        3.895492    2.170205   -4.228953
     15          7           0        8.591321   -0.386733    2.446315
     16          6           0        7.357609    0.238193    2.767876
     17          6           0        6.863773   -0.240202    4.045929
     18          6           0        7.806010   -1.279529    4.428746
     19          6           0        8.795166   -1.340176    3.369015
     20          6           0        5.579259    0.215862    4.601083
     21          6           0        7.685054   -2.070569    5.742892
     22          8           0        6.653142   -1.843772    6.439733
     23          6           0        8.708828   -3.099894    6.266977
     24          7           0       10.753788   -1.991326    1.160322
     25          6           0       10.748922   -2.612950    2.323887
     26          6           0       11.697723   -3.765425    2.250292
     27          6           0       12.524892   -3.494058    0.965272
     28          6           0       11.781196   -2.352184    0.343646
     29          6           0       12.627220   -4.108622    3.491878
     30          6           0       12.676334   -4.751996   -0.036521
     31          6           0       14.088169   -5.341852   -0.273671
     32          7           0       10.732577    0.095165   -0.971468
     33          6           0       11.759212   -0.615175   -1.468484
     34          6           0       12.125285   -0.166580   -2.761788
     35          6           0       11.159565    0.792687   -3.075237
     36          6           0       10.287545    0.897966   -1.962241
     37          6           0       13.240811   -0.559720   -3.644564
     38          6           0       10.762895    1.649330   -4.149891
     39          8           0       11.243875    1.741400   -5.257017
     40          6           0        9.338646    2.312494   -3.622039
     41          6           0        9.453995    3.775164   -3.582722
     42          8           0       10.425888    4.408827   -3.152126
     43          8           0        8.272113    4.277885   -4.083666
     44          6           0        8.159975    5.734243   -4.144890
     45          1           0        5.702157    1.569151    2.341782
     46          1           0        9.847756   -3.131986    4.027916
     47          1           0       13.305876   -2.026481   -1.192318
     48          1           0        6.978063    3.509993   -1.917255
     49          1           0        5.236468    1.968566   -0.420904
     50          1           0        6.533224    3.882851    1.425739
     51          1           0        4.968460    4.185349    0.713315
     52          1           0        6.453508    4.749919   -0.059616
     53          1           0        5.342407    1.118461   -2.160318
     54          1           0        6.702501    0.823850   -3.200914
     55          1           0        5.964161    1.992436   -4.865352
     56          1           0        5.698252    3.390184   -3.976444
     57          1           0        4.837576    0.067138    3.815946
     58          1           0        5.612000    1.290474    4.779428
     59          1           0        5.272994   -0.178589    5.570308
     60          1           0        8.635180   -3.992397    5.645374
     61          1           0        8.570034   -3.083732    7.347484
     62          1           0        9.661709   -2.603672    6.079839
     63          1           0       11.088009   -4.661405    2.140574
     64          1           0       13.431206   -3.049268    1.376391
     65          1           0       12.792366   -5.183532    3.414270
     66          1           0       12.108560   -3.812379    4.403519
     67          1           0       13.561937   -3.570111    3.334670
     68          1           0       12.243337   -4.388284   -0.968217
     69          1           0       11.964944   -5.512020    0.286310
     70          1           0       14.320171   -5.470012   -1.330114
     71          1           0       14.152895   -6.302017    0.238870
     72          1           0       14.887708   -4.765246    0.191851
     73          1           0       13.430758    0.188805   -4.413152
     74          1           0       12.794652   -1.472294   -4.040276
     75          1           0       14.033866   -0.971046   -3.020213
     76          1           0        8.489106    1.922499   -4.181509
     77          1           0        9.015402    6.184246   -4.649230
     78          1           0        8.053258    6.138290   -3.137105
     79          1           0        7.272767    5.990663   -4.723914
     80         12           0       -9.901480   -0.747354   -0.120676
     81          6           0       -8.231461    1.973759    1.435213
     82          6           0       -6.687768   -1.819741   -1.137563
     83          6           0      -11.317064   -3.090404   -1.895663
     84          6           0      -12.945269    0.686174    0.760763
     85          7           0       -7.663837    0.013692    0.118726
     86          6           0       -7.307084    1.091548    0.891414
     87          6           0       -5.803484    1.244838    1.046394
     88          6           0       -5.338129    0.066775    0.087303
     89          6           0       -6.629753   -0.661280   -0.315587
     90          6           0       -4.448953    0.594160   -1.034946
     91          6           0       -5.381730    1.043740    2.518538
     92          6           0       -4.195175    1.911103    3.088001
     93          1           0       -3.213242    2.553566    2.080101
     94          7           0       -9.118037   -2.307232   -1.294039
     95          6           0       -7.783668   -2.515443   -1.644202
     96          6           0       -7.717797   -3.711661   -2.498624
     97          6           0       -9.074341   -4.150419   -2.643475
     98          6           0       -9.876596   -3.174726   -1.880960
     99          6           0       -6.500966   -4.195647   -3.084769
    100          6           0       -9.607325   -5.346156   -3.426353
    101          8           0      -10.827434   -5.544167   -3.539820
    102          6           0       -8.690590   -6.395369   -3.920384
    103          7           0      -11.859925   -1.086901   -0.598725
    104          6           0      -12.199769   -2.189985   -1.270741
    105          6           0      -13.746604   -2.263661   -1.484631
    106          6           0      -14.249136   -1.178862   -0.479838
    107          6           0      -12.997934   -0.461133   -0.081011
    108          6           0      -14.202531   -2.087759   -2.977831
    109          6           0      -14.856223   -1.987182    0.729822
    110          6           0      -13.972301   -2.323298    1.980053
    111          7           0      -10.516535    0.897868    0.964892
    112          6           0      -11.820406    1.357983    1.223581
    113          6           0      -11.721924    2.641352    1.962254
    114          6           0      -10.359646    2.915054    1.998386
    115          6           0       -9.642179    1.877110    1.442408
    116          6           0      -12.907105    3.450334    2.188789
    117          6           0       -9.426044    3.981142    2.353196
    118          8           0       -9.685225    5.086488    2.815512
    119          6           0       -7.972510    3.427014    1.976366
    120          6           0       -7.291094    4.321470    1.009230
    121          8           0       -7.290439    4.201746   -0.212567
    122          8           0       -6.617859    5.334433    1.717990
    123          6           0       -5.909049    6.392374    1.034124
    124          1           0       -5.744557   -2.351192   -1.283022
    125          1           0      -11.854812   -3.860280   -2.453630
    126          1           0      -13.955928    1.011288    1.015202
    127          1           0       -5.441918    2.213429    0.700170
    128          1           0       -4.653084   -0.542050    0.676709
    129          1           0       -3.473599    0.115031   -1.112337
    130          1           0       -4.256601    1.667077   -1.031922
    131          1           0       -4.941335    0.322136   -1.969521
    132          1           0       -5.131271    0.000535    2.710762
    133          1           0       -6.323920    1.261190    3.022822
    134          1           0       -3.530899    1.293134    3.691190
    135          1           0       -4.650934    2.548576    3.845623
    136          1           0       -6.435235   -5.251181   -2.820105
    137          1           0       -5.673173   -3.516780   -2.882113
    138          1           0       -6.710887   -4.009128   -4.138449
    139          1           0       -8.084978   -6.079844   -4.770497
    140          1           0       -9.273013   -7.246217   -4.273340
    141          1           0       -7.960477   -6.590260   -3.135386
    142          1           0      -13.892158   -3.299429   -1.177786
    143          1           0      -15.042092   -0.564880   -0.907601
    144          1           0      -14.356779   -3.063828   -3.438020
    145          1           0      -13.459632   -1.451414   -3.457648
    146          1           0      -15.147186   -1.545704   -2.937508
    147          1           0      -15.429532   -2.831064    0.345523
    148          1           0      -15.501274   -1.251523    1.211176
    149          1           0      -14.222565   -3.362936    2.189292
    150          1           0      -14.231678   -1.730538    2.858189
    151          1           0      -12.893841   -2.279028    1.832091
    152          1           0      -13.453004    3.534303    1.249950
    153          1           0      -12.553014    4.443978    2.465231
    154          1           0      -13.448625    3.112615    3.072003
    155          1           0       -7.441528    3.456526    2.928337
    156          1           0       -6.495506    7.303945    0.921812
    157          1           0       -5.374536    6.014234    0.162553
    158          1           0       -5.071049    6.543583    1.715160
 ---------------------------------------------------------------------

 SCF Done:  E(RCAM-B3LYP) =  -4069.79073468     A.U. after   17 cycles

 Excitation energies and oscillator strengths:

 Excited State   1:      Singlet-A      1.6989 eV  729.79 nm  f=0.3847  <S**2>=0.000
     309 -> 315        0.18529
     311 -> 313        0.68532
     309 <- 315        0.11148
 This state for optimization and/or second-order correction.
 Total Energy, E(TD-HF/TD-DFT) =  -4069.72830121
 Copying the excited state density for this state as the 1-particle RhoCI density.

 Excited State   2:      Singlet-A      1.7491 eV  708.83 nm  f=0.3759  <S**2>=0.000
     310 -> 316        0.18982
     312 -> 314        0.68128
     310 <- 316        0.10803

 Excited State   3:      Singlet-A      2.2520 eV  550.54 nm  f=0.1374  <S**2>=0.000
     309 -> 313        0.64002
     311 -> 315       -0.28867

 Excited State   4:      Singlet-A      2.2728 eV  545.51 nm  f=0.0708  <S**2>=0.000
     310 -> 314        0.62216
     312 -> 316       -0.32157

 Excited State   5:      Singlet-A      2.7039 eV  458.53 nm  f=0.0000  <S**2>=0.000
     312 -> 313        0.70697

 The electronic state is 1-A.
 Alpha  occ. eigenvalues --  -46.89042 -46.88514 -19.26392 -19.24018 -19.20677
 Alpha  occ. eigenvalues --  -19.19915 -19.19868 -19.19333 -19.18742 -19.18271
 Alpha  occ. eigenvalues --  -14.42136 -14.42073 -14.41535 -14.41293 -14.40070
 Alpha  occ. eigenvalues --  -14.39961 -14.39693 -14.38927 -10.40215 -10.39513
 Alpha  occ. eigenvalues --  -10.35576 -10.35390 -10.35383 -10.35291 -10.32559
 Alpha  occ. eigenvalues --  -10.31333 -10.31237 -10.31021 -10.30909 -10.30777
 Alpha  occ. eigenvalues --  -10.30769 -10.30530 -10.30468 -10.30459 -10.30446
 Alpha  occ. eigenvalues --  -10.30396 -10.30324 -10.30228 -10.29894 -10.29257
 Alpha  occ. eigenvalues --  -10.29219 -10.29197 -10.29113 -10.29037 -10.28890
 Alpha  occ. eigenvalues --  -10.28862 -10.28698 -10.28247 -10.28238 -10.28053
 Alpha  occ. eigenvalues --  -10.27929 -10.27780 -10.27716 -10.27654 -10.27620
 Alpha  occ. eigenvalues --  -10.27613 -10.27611 -10.27593 -10.27558 -10.27455
 Alpha  occ. eigenvalues --  -10.27415 -10.27354 -10.27332 -10.27302 -10.27247
 Alpha  occ. eigenvalues --  -10.27146 -10.27134 -10.27052 -10.26902 -10.26822
 Alpha  occ. eigenvalues --  -10.26806 -10.26570 -10.26551 -10.26511 -10.26438
 Alpha  occ. eigenvalues --  -10.26371 -10.26355 -10.26186 -10.25757 -10.25380
 Alpha  occ. eigenvalues --  -10.25319 -10.25277 -10.25207 -10.25102 -10.24707
 Alpha  occ. eigenvalues --  -10.24696  -3.17597  -3.17057  -1.92487  -1.92041
 Alpha  occ. eigenvalues --   -1.91964  -1.91914  -1.91525  -1.91345  -1.16662
 Alpha  occ. eigenvalues --   -1.14689  -1.10948  -1.09672  -1.09210  -1.08287
 Alpha  occ. eigenvalues --   -1.07381  -1.07281  -1.05586  -1.04860  -1.04769
 Alpha  occ. eigenvalues --   -1.04051  -1.03884  -1.03100  -1.02476  -1.01383
 Alpha  occ. eigenvalues --   -0.93315  -0.91993  -0.89889  -0.89458  -0.88675
 Alpha  occ. eigenvalues --   -0.88421  -0.88389  -0.88275  -0.88106  -0.87613
 Alpha  occ. eigenvalues --   -0.87345  -0.86743  -0.86192  -0.86149  -0.84769
 Alpha  occ. eigenvalues --   -0.84147  -0.83987  -0.83313  -0.82855  -0.82651
 Alpha  occ. eigenvalues --   -0.82160  -0.82002  -0.81496  -0.80842  -0.80622
 Alpha  occ. eigenvalues --   -0.80454  -0.78951  -0.78355  -0.77775  -0.77111
 Alpha  occ. eigenvalues --   -0.77024  -0.76872  -0.76428  -0.75809  -0.75482
 Alpha  occ. eigenvalues --   -0.74790  -0.73332  -0.72350  -0.72135  -0.71313
 Alpha  occ. eigenvalues --   -0.69936  -0.69522  -0.69237  -0.68925  -0.68635
 Alpha  occ. eigenvalues --   -0.67849  -0.66889  -0.66712  -0.66284  -0.65771
 Alpha  occ. eigenvalues --   -0.65255  -0.65017  -0.64906  -0.64686  -0.64465
 Alpha  occ. eigenvalues --   -0.64197  -0.63084  -0.61556  -0.60334  -0.60278
 Alpha  occ. eigenvalues --   -0.60041  -0.59682  -0.59376  -0.59052  -0.59051
 Alpha  occ. eigenvalues --   -0.58569  -0.58077  -0.57881  -0.57726  -0.57177
 Alpha  occ. eigenvalues --   -0.56367  -0.56282  -0.56111  -0.55774  -0.55498
 Alpha  occ. eigenvalues --   -0.55352  -0.54993  -0.54636  -0.54282  -0.53960
 Alpha  occ. eigenvalues --   -0.53870  -0.53837  -0.53422  -0.53331  -0.53164
 Alpha  occ. eigenvalues --   -0.53070  -0.52787  -0.52768  -0.52326  -0.52228
 Alpha  occ. eigenvalues --   -0.51886  -0.51817  -0.51559  -0.51512  -0.51355
 Alpha  occ. eigenvalues --   -0.51314  -0.50764  -0.50724  -0.50614  -0.50462
 Alpha  occ. eigenvalues --   -0.50168  -0.50102  -0.49906  -0.49798  -0.49702
 Alpha  occ. eigenvalues --   -0.49564  -0.49544  -0.49030  -0.48921  -0.48915
 Alpha  occ. eigenvalues --   -0.48591  -0.48543  -0.48388  -0.48085  -0.48071
 Alpha  occ. eigenvalues --   -0.47864  -0.47793  -0.47733  -0.47600  -0.47579
 Alpha  occ. eigenvalues --   -0.47375  -0.47169  -0.46966  -0.46786  -0.46681
 Alpha  occ. eigenvalues --   -0.46590  -0.46252  -0.46111  -0.46077  -0.46003
 Alpha  occ. eigenvalues --   -0.45763  -0.45506  -0.45390  -0.45118  -0.45034
 Alpha  occ. eigenvalues --   -0.44683  -0.44614  -0.44263  -0.44234  -0.44051
 Alpha  occ. eigenvalues --   -0.43938  -0.43906  -0.43788  -0.43694  -0.43665
 Alpha  occ. eigenvalues --   -0.43427  -0.43405  -0.43323  -0.43212  -0.43076
 Alpha  occ. eigenvalues --   -0.42972  -0.42945  -0.42560  -0.42448  -0.41964
 Alpha  occ. eigenvalues --   -0.41694  -0.41657  -0.41360  -0.41302  -0.41252
 Alpha  occ. eigenvalues --   -0.41020  -0.40998  -0.40697  -0.40482  -0.40355
 Alpha  occ. eigenvalues --   -0.40348  -0.39850  -0.39389  -0.39071  -0.38874
 Alpha  occ. eigenvalues --   -0.38593  -0.38394  -0.37841  -0.37783  -0.37755
 Alpha  occ. eigenvalues --   -0.37428  -0.37118  -0.36640  -0.36585  -0.36152
 Alpha  occ. eigenvalues --   -0.35989  -0.35687  -0.35307  -0.34250  -0.34196
 Alpha  occ. eigenvalues --   -0.34044  -0.33299  -0.33153  -0.31466  -0.31252
 Alpha  occ. eigenvalues --   -0.31195  -0.30964  -0.30831  -0.30471  -0.30241
 Alpha  occ. eigenvalues --   -0.30157  -0.29508  -0.29346  -0.24305  -0.23883
 Alpha  occ. eigenvalues --   -0.21448  -0.20786
 Alpha virt. eigenvalues --   -0.09064  -0.08146  -0.01867  -0.01709   0.00149
 Alpha virt. eigenvalues --    0.00233   0.02172   0.02181   0.02293   0.03333
 Alpha virt. eigenvalues --    0.04128   0.04804   0.04843   0.05061   0.05680

 Mulliken charges:
               1
     1  Mg   0.845555
     2  C   -0.112931
     3  C   -0.073314
     4  C   -0.090908
     5  C   -0.092449
     6  N   -0.247113
     7  C   -0.075113
     8  C   -0.009310
     9  C   -0.029476
    10  C    0.035763
    11  C    0.076754
    12  C    0.033626
    13  C   -0.045857
    14  H    0.033055
    15  N   -0.393797
    16  C    0.113845
    17  C   -0.128048
    18  C   -0.056990
    19  C    0.207375
    20  C    0.128696
    21  C   -0.019479
    22  O   -0.249108
    23  C    0.082575
    24  N   -0.275417
    25  C   -0.016102
    26  C   -0.039438
    27  C   -0.051939
    28  C    0.065212
    29  C    0.078755
    30  C    0.053568
    31  C    0.008812
    32  N   -0.340904
    33  C    0.092007
    34  C   -0.194072
    35  C   -0.020851
    36  C    0.159330
    37  C    0.167714
    38  C    0.065376
    39  O   -0.151798
    40  C    0.021559
    41  C    0.224415
    42  O   -0.224159
    43  O   -0.341526
    44  C    0.178377
    45  H   -0.026016
    46  H   -0.057460
    47  H   -0.022339
    48  H   -0.003904
    49  H    0.002601
    50  H    0.016912
    51  H    0.022730
    52  H    0.015473
    53  H    0.006235
    54  H    0.030291
    55  H    0.026039
    56  H    0.020989
    57  H    0.025016
    58  H    0.010367
    59  H    0.043734
    60  H    0.062152
    61  H    0.038952
    62  H    0.023613
    63  H    0.011647
    64  H    0.009245
    65  H    0.018366
    66  H    0.020327
    67  H    0.011271
    68  H    0.009812
    69  H    0.000730
    70  H    0.024715
    71  H    0.014128
    72  H    0.012787
    73  H    0.057182
    74  H    0.022589
    75  H    0.007336
    76  H    0.030515
    77  H    0.048023
    78  H    0.035036
    79  H    0.038633
    80  Mg   0.821186
    81  C    0.030481
    82  C   -0.107892
    83  C   -0.061715
    84  C   -0.079792
    85  N   -0.200747
    86  C   -0.088520
    87  C   -0.039490
    88  C   -0.030665
    89  C    0.038669
    90  C    0.063117
    91  C    0.035395
    92  C   -0.045578
    93  H    0.026647
    94  N   -0.333894
    95  C    0.142454
    96  C   -0.171118
    97  C   -0.048851
    98  C    0.118397
    99  C    0.141245
   100  C    0.013208
   101  O   -0.220232
   102  C    0.057264
   103  N   -0.336863
   104  C    0.016430
   105  C   -0.060075
   106  C    0.004132
   107  C    0.025627
   108  C    0.091667
   109  C   -0.015122
   110  C    0.015149
   111  N   -0.395354
   112  C    0.152206
   113  C   -0.185167
   114  C    0.030593
   115  C    0.122667
   116  C    0.129672
   117  C    0.041198
   118  O   -0.160950
   119  C   -0.039350
   120  C    0.232496
   121  O   -0.217045
   122  O   -0.361638
   123  C    0.187178
   124  H   -0.014523
   125  H   -0.010653
   126  H   -0.032416
   127  H    0.024301
   128  H    0.002316
   129  H    0.002674
   130  H    0.023553
   131  H    0.006014
   132  H    0.007158
   133  H    0.011826
   134  H    0.021549
   135  H    0.030291
   136  H    0.040159
   137  H    0.014297
   138  H    0.037997
   139  H    0.028204
   140  H    0.037034
   141  H    0.029846
   142  H    0.014523
   143  H    0.008527
   144  H    0.034344
   145  H    0.027460
   146  H    0.007542
   147  H    0.020680
   148  H    0.002266
   149  H    0.010526
   150  H    0.021472
   151  H    0.027527
   152  H    0.036487
   153  H    0.019121
   154  H    0.021802
   155  H    0.045325
   156  H    0.053732
   157  H    0.029873
   158  H    0.022143
 Sum of Mulliken charges =  -0.00000

 Dipole moment (field-independent basis, Debye):
    X=              3.2626    Y=             -4.7804    Z=              0.0763  Tot=              5.7881
 Quadrupole moment (field-independent basis, Debye-Ang):
   XX=           -519.5965   YY=           -503.0164   ZZ=           -552.3955
   XY=            -17.6888   XZ=             26.6321   YZ=             -3.2091

 Normal termination of Gaussian 16 at Wed Sep 15 04:34:47 2021.
