 Gaussian 16, Revision A.03,
 Gaussian 16:  ES64L-G16RevA.03 25-Dec-2016

 ----------------------------------------------------------
 #p cam-b3lyp/Def2SVP td=(nstates=5) density=(transition=1)
 ----------------------------------------------------------

 --------------------------------
 TDDFT excited states in gaussian
 --------------------------------
 Symbolic Z-matrix:
 Charge =  0 Multiplicity = 1

                         Standard orientation:
 ---------------------------------------------------------------------
 Center     Atomic      Atomic             Coordinates (Angstroms)
 Number     Number       Type             X           Y           Z
 ---------------------------------------------------------------------
      1         12           0      -29.578108    0.266891   -0.158909
      2          6           0      -26.405623   -1.184827   -0.551508
      3          6           0      -30.827756   -2.839125    0.418475
      4          6           0      -32.364575    1.797020    0.609663
      5          6           0      -27.804779    3.394733    0.036816
      6          7           0      -28.712257   -1.738754   -0.150594
      7          6           0      -27.405699   -2.104218   -0.312386
      8          6           0      -27.261372   -3.572050    0.116550
      9          6           0      -28.662893   -4.113079   -0.143677
     10          6           0      -29.451857   -2.823627    0.154293
     11          6           0      -28.865035   -4.584182   -1.602388
     12          6           0      -26.844842   -3.690380    1.629288
     13          6           0      -25.393408   -4.286220    1.977870
     14          1           0      -24.385050   -3.403718    2.733166
     15          7           0      -31.336738   -0.416788    0.488083
     16          6           0      -31.675066   -1.741282    0.644808
     17          6           0      -33.073855   -1.812624    0.930706
     18          6           0      -33.631720   -0.492190    0.885737
     19          6           0      -32.447968    0.387021    0.660356
     20          6           0      -33.829997   -3.158996    1.197984
     21          6           0      -35.160719   -0.156550    1.027496
     22          8           0      -35.962497   -1.037048    1.090518
     23          6           0      -35.590012    1.217555    0.797598
     24          7           0      -29.966485    2.280076    0.576854
     25          6           0      -31.260623    2.652765    0.434385
     26          6           0      -31.427858    4.131632    0.127933
     27          6           0      -30.024121    4.685725    0.317993
     28          6           0      -29.179696    3.364216    0.319640
     29          6           0      -31.981804    4.399621   -1.320236
     30          6           0      -29.705456    5.613867    1.582967
     31          6           0      -29.473691    7.094893    1.447244
     32          7           0      -27.603470    1.016017   -0.433721
     33          6           0      -27.032434    2.290663   -0.326683
     34          6           0      -25.597584    2.250045   -0.508824
     35          6           0      -25.324430    0.909448   -0.627000
     36          6           0      -26.545769    0.161789   -0.555334
     37          6           0      -24.696892    3.413757   -0.470872
     38          6           0      -24.247490   -0.052375   -0.805306
     39          8           0      -23.042196    0.141963   -1.005895
     40          6           0      -24.903528   -1.415400   -0.873067
     41          6           0      -24.604269   -1.993253   -2.252043
     42          8           0      -24.946252   -1.399605   -3.272245
     43          8           0      -23.813864   -3.150002   -2.167542
     44          6           0      -23.464365   -3.729930   -3.436734
     45          1           0      -31.221375   -3.857108    0.442998
     46          1           0      -33.356942    2.246309    0.547824
     47          1           0      -27.291275    4.357370   -0.013293
     48          1           0      -26.419997   -3.980104   -0.444082
     49          1           0      -28.845119   -4.927463    0.556410
     50          1           0      -29.289262   -5.566457   -1.397330
     51          1           0      -27.859614   -4.615652   -2.023136
     52          1           0      -29.512719   -3.974039   -2.232052
     53          1           0      -27.550827   -4.371080    2.104875
     54          1           0      -27.008567   -2.718020    2.093166
     55          1           0      -24.920110   -4.467156    1.012507
     56          1           0      -25.407564   -5.249886    2.485634
     57          1           0      -34.463792   -3.223058    2.081922
     58          1           0      -33.052130   -3.918614    1.282033
     59          1           0      -34.468171   -3.455287    0.365297
     60          1           0      -35.127584    1.950351    1.459221
     61          1           0      -36.671919    1.263874    0.921532
     62          1           0      -35.518286    1.460412   -0.261693
     63          1           0      -32.163209    4.612910    0.773571
     64          1           0      -29.708916    5.229026   -0.572847
     65          1           0      -33.054375    4.591647   -1.343176
     66          1           0      -31.644886    3.609224   -1.990934
     67          1           0      -31.503083    5.311688   -1.679574
     68          1           0      -28.992132    5.247714    2.320558
     69          1           0      -30.682098    5.483797    2.049939
     70          1           0      -30.250916    7.700937    1.911716
     71          1           0      -29.445406    7.364149    0.391126
     72          1           0      -28.505217    7.259485    1.918987
     73          1           0      -25.176517    4.184339    0.133283
     74          1           0      -24.648585    3.777219   -1.497745
     75          1           0      -23.696785    3.133508   -0.143374
     76          1           0      -24.360905   -1.973846   -0.111511
     77          1           0      -24.266417   -4.292665   -3.915124
     78          1           0      -22.617988   -4.410261   -3.346704
     79          1           0      -23.129777   -3.009933   -4.183073
     80         12           0       29.019520    0.596694   -0.283876
     81          6           0       28.180993   -2.616716    0.687927
     82          6           0       26.133177    1.774738    1.214454
     83          6           0       30.256371    3.722967   -0.586284
     84          6           0       32.058327   -0.767529   -1.442407
     85          7           0       27.483872   -0.298864    1.079224
     86          6           0       27.286278   -1.619074    1.132367
     87          6           0       26.056819   -1.939373    2.037643
     88          6           0       25.257865   -0.553355    1.966428
     89          6           0       26.328170    0.395826    1.303743
     90          6           0       23.889857   -0.681855    1.254002
     91          6           0       26.503083   -2.214847    3.455521
     92          6           0       25.781625   -3.353093    4.160152
     93          1           0       25.410954   -3.310691    5.690490
     94          7           0       28.162418    2.512147    0.110036
     95          6           0       27.034201    2.807987    0.778144
     96          6           0       26.897614    4.228368    0.782919
     97          6           0       28.002408    4.826743    0.104494
     98          6           0       28.876405    3.687381   -0.201168
     99          6           0       25.654177    4.888864    1.251881
    100          6           0       28.223858    6.293978    0.001550
    101          8           0       27.384018    7.071939    0.422698
    102          6           0       29.455973    6.869406   -0.686461
    103          7           0       30.949819    1.379335   -1.037480
    104          6           0       31.176304    2.720848   -0.964633
    105          6           0       32.615039    3.027810   -1.226209
    106          6           0       33.187258    1.556202   -1.495091
    107          6           0       32.011604    0.616131   -1.395669
    108          6           0       32.863181    4.055581   -2.346125
    109          6           0       34.411583    1.106080   -0.581112
    110          6           0       35.704626    0.546086   -1.219128
    111          7           0       29.936602   -1.254386   -0.398784
    112          6           0       31.113053   -1.655493   -0.949534
    113          6           0       31.113827   -3.040281   -1.122436
    114          6           0       29.959909   -3.515298   -0.514775
    115          6           0       29.318211   -2.404288   -0.027683
    116          6           0       32.285066   -3.850832   -1.750922
    117          6           0       29.200994   -4.636687   -0.211469
    118          8           0       29.498122   -5.815555   -0.370021
    119          6           0       27.944541   -4.165702    0.668075
    120          6           0       26.713429   -4.403910    0.005106
    121          8           0       26.168384   -3.806101   -0.925834
    122          8           0       26.148845   -5.510169    0.632558
    123          6           0       24.866270   -6.037386    0.199088
    124          1           0       25.156513    2.134567    1.544068
    125          1           0       30.785286    4.665421   -0.745682
    126          1           0       32.993596   -1.084824   -1.908525
    127          1           0       25.551097   -2.808247    1.617363
    128          1           0       25.117948   -0.071313    2.933438
    129          1           0       23.748001   -1.674092    0.826153
    130          1           0       23.815285    0.073561    0.471120
    131          1           0       23.117385   -0.444161    1.985001
    132          1           0       26.510244   -1.378405    4.154682
    133          1           0       27.576882   -2.382173    3.371694
    134          1           0       26.344602   -4.258894    3.935666
    135          1           0       24.860051   -3.405607    3.580483
    136          1           0       25.118336    5.075124    0.321325
    137          1           0       25.869881    5.807849    1.797231
    138          1           0       25.057447    4.260956    1.913593
    139          1           0       30.259808    6.801250    0.046707
    140          1           0       29.264422    7.937805   -0.783088
    141          1           0       29.663396    6.339187   -1.615857
    142          1           0       32.903322    3.417032   -0.250270
    143          1           0       33.648446    1.479558   -2.479756
    144          1           0       33.167012    4.974501   -1.843665
    145          1           0       31.990771    4.210991   -2.981670
    146          1           0       33.708869    3.731081   -2.951947
    147          1           0       34.061680    0.326834    0.095822
    148          1           0       34.814104    1.922026    0.019550
    149          1           0       35.448865   -0.513205   -1.239657
    150          1           0       36.550809    0.689057   -0.548340
    151          1           0       35.922996    0.733216   -2.270424
    152          1           0       33.101962   -3.888583   -1.031390
    153          1           0       32.747762   -3.417049   -2.637613
    154          1           0       31.975485   -4.872032   -1.974931
    155          1           0       28.048002   -4.675948    1.625824
    156          1           0       24.885481   -7.110741    0.385348
    157          1           0       24.571281   -5.766882   -0.815119
    158          1           0       24.110340   -5.666980    0.891671
 ---------------------------------------------------------------------

 SCF Done:  E(RCAM-B3LYP) =  -4069.79300496     A.U. after   19 cycles

 Excitation energies and oscillator strengths:

 Excited State   1:      Singlet-A      1.6990 eV  729.74 nm  f=0.4017  <S**2>=0.000
     309 -> 315       -0.18502
     311 -> 313        0.68486
     309 <- 315       -0.10995
 This state for optimization and/or second-order correction.
 Total Energy, E(TD-HF/TD-DFT) =  -4069.73056715
 Copying the excited state density for this state as the 1-particle RhoCI density.

 Excited State   2:      Singlet-A      1.7237 eV  719.29 nm  f=0.3634  <S**2>=0.000
     310 -> 316        0.19171
     312 -> 314        0.68302
     310 <- 316        0.11115

 Excited State   3:      Singlet-A      2.2279 eV  556.51 nm  f=0.1004  <S**2>=0.000
     309 -> 313        0.63665
     311 -> 315        0.29395

 Excited State   4:      Singlet-A      2.2830 eV  543.07 nm  f=0.0523  <S**2>=0.000
     310 -> 314        0.60483
     312 -> 316       -0.35602

 Excited State   5:      Singlet-A      3.0532 eV  406.08 nm  f=0.0000  <S**2>=0.000
     312 -> 313        0.70711

 The electronic state is 1-A.
 Alpha  occ. eigenvalues --  -46.89695 -46.88695 -19.26033 -19.24645 -19.20588
 Alpha  occ. eigenvalues --  -19.20198 -19.19252 -19.19101 -19.18769 -19.18360
 Alpha  occ. eigenvalues --  -14.42356 -14.42146 -14.42087 -14.42026 -14.39812
 Alpha  occ. eigenvalues --  -14.39393 -14.39357 -14.39207 -10.40258 -10.39628
 Alpha  occ. eigenvalues --  -10.35236 -10.35063 -10.34627 -10.34574 -10.31588
 Alpha  occ. eigenvalues --  -10.31551 -10.31515 -10.31401 -10.31314 -10.31148
 Alpha  occ. eigenvalues --  -10.31143 -10.31137 -10.30911 -10.30844 -10.30665
 Alpha  occ. eigenvalues --  -10.30559 -10.29801 -10.29781 -10.29547 -10.29445
 Alpha  occ. eigenvalues --  -10.29302 -10.28838 -10.28725 -10.28623 -10.28507
 Alpha  occ. eigenvalues --  -10.28419 -10.28344 -10.28335 -10.28321 -10.28182
 Alpha  occ. eigenvalues --  -10.28181 -10.28171 -10.28086 -10.27897 -10.27884
 Alpha  occ. eigenvalues --  -10.27827 -10.27824 -10.27818 -10.27803 -10.27767
 Alpha  occ. eigenvalues --  -10.27552 -10.27377 -10.27264 -10.27045 -10.26937
 Alpha  occ. eigenvalues --  -10.26908 -10.26883 -10.26873 -10.26863 -10.26860
 Alpha  occ. eigenvalues --  -10.26802 -10.26611 -10.26536 -10.26443 -10.26240
 Alpha  occ. eigenvalues --  -10.26238 -10.26073 -10.26036 -10.26009 -10.25905
 Alpha  occ. eigenvalues --  -10.25857 -10.25703 -10.25517 -10.25145 -10.24912
 Alpha  occ. eigenvalues --  -10.24856  -3.18017  -3.17305  -1.92931  -1.92468
 Alpha  occ. eigenvalues --   -1.92311  -1.92180  -1.91776  -1.91605  -1.15973
 Alpha  occ. eigenvalues --   -1.15753  -1.11918  -1.10039  -1.09994  -1.09113
 Alpha  occ. eigenvalues --   -1.08231  -1.07530  -1.05518  -1.04792  -1.04284
 Alpha  occ. eigenvalues --   -1.04091  -1.03868  -1.02868  -1.02618  -1.02084
 Alpha  occ. eigenvalues --   -0.93906  -0.93055  -0.89485  -0.89161  -0.89161
 Alpha  occ. eigenvalues --   -0.88980  -0.88517  -0.88412  -0.87902  -0.87622
 Alpha  occ. eigenvalues --   -0.87115  -0.86887  -0.86202  -0.85434  -0.85007
 Alpha  occ. eigenvalues --   -0.84651  -0.84617  -0.84246  -0.83060  -0.82595
 Alpha  occ. eigenvalues --   -0.82530  -0.82265  -0.81491  -0.81046  -0.80865
 Alpha  occ. eigenvalues --   -0.80808  -0.78191  -0.78012  -0.77624  -0.77236
 Alpha  occ. eigenvalues --   -0.76575  -0.76519  -0.76409  -0.76321  -0.75188
 Alpha  occ. eigenvalues --   -0.75116  -0.73523  -0.72897  -0.72401  -0.72132
 Alpha  occ. eigenvalues --   -0.69833  -0.69270  -0.69040  -0.68627  -0.68165
 Alpha  occ. eigenvalues --   -0.68134  -0.67431  -0.66785  -0.66193  -0.65926
 Alpha  occ. eigenvalues --   -0.65881  -0.65608  -0.65497  -0.64875  -0.64872
 Alpha  occ. eigenvalues --   -0.64465  -0.62729  -0.62716  -0.60512  -0.60259
 Alpha  occ. eigenvalues --   -0.60057  -0.59901  -0.59138  -0.59128  -0.59112
 Alpha  occ. eigenvalues --   -0.58897  -0.58508  -0.58196  -0.58007  -0.57689
 Alpha  occ. eigenvalues --   -0.56366  -0.56247  -0.56165  -0.56082  -0.55471
 Alpha  occ. eigenvalues --   -0.55299  -0.54984  -0.54887  -0.54386  -0.53960
 Alpha  occ. eigenvalues --   -0.53552  -0.53549  -0.53410  -0.53206  -0.53007
 Alpha  occ. eigenvalues --   -0.52792  -0.52689  -0.52665  -0.52347  -0.52199
 Alpha  occ. eigenvalues --   -0.52099  -0.52092  -0.51844  -0.51755  -0.51514
 Alpha  occ. eigenvalues --   -0.51326  -0.51022  -0.50901  -0.50468  -0.50391
 Alpha  occ. eigenvalues --   -0.50150  -0.50148  -0.50026  -0.49835  -0.49655
 Alpha  occ. eigenvalues --   -0.49602  -0.49451  -0.49306  -0.49092  -0.49037
 Alpha  occ. eigenvalues --   -0.49000  -0.48690  -0.48398  -0.48345  -0.48305
 Alpha  occ. eigenvalues --   -0.48098  -0.47545  -0.47524  -0.47134  -0.46895
 Alpha  occ. eigenvalues --   -0.46765  -0.46718  -0.46621  -0.46600  -0.46356
 Alpha  occ. eigenvalues --   -0.46300  -0.46144  -0.46139  -0.45976  -0.45973
 Alpha  occ. eigenvalues --   -0.45831  -0.45488  -0.45434  -0.45348  -0.45309
 Alpha  occ. eigenvalues --   -0.45088  -0.44713  -0.44530  -0.44449  -0.44316
 Alpha  occ. eigenvalues --   -0.44163  -0.43916  -0.43864  -0.43621  -0.43569
 Alpha  occ. eigenvalues --   -0.43402  -0.43303  -0.43175  -0.43073  -0.42882
 Alpha  occ. eigenvalues --   -0.42586  -0.42413  -0.42198  -0.42144  -0.42066
 Alpha  occ. eigenvalues --   -0.41976  -0.41934  -0.41847  -0.41737  -0.41602
 Alpha  occ. eigenvalues --   -0.41454  -0.41086  -0.41080  -0.40876  -0.40727
 Alpha  occ. eigenvalues --   -0.40382  -0.40257  -0.40042  -0.39740  -0.38975
 Alpha  occ. eigenvalues --   -0.38301  -0.38224  -0.37997  -0.37979  -0.37473
 Alpha  occ. eigenvalues --   -0.37386  -0.37279  -0.37151  -0.36693  -0.36533
 Alpha  occ. eigenvalues --   -0.36283  -0.35683  -0.34928  -0.34854  -0.34719
 Alpha  occ. eigenvalues --   -0.34373  -0.33627  -0.33490  -0.31837  -0.31413
 Alpha  occ. eigenvalues --   -0.31219  -0.31214  -0.30954  -0.30725  -0.30507
 Alpha  occ. eigenvalues --   -0.30155  -0.29660  -0.29454  -0.24561  -0.24400
 Alpha  occ. eigenvalues --   -0.21555  -0.21002
 Alpha virt. eigenvalues --   -0.09193  -0.08326  -0.02282  -0.02235  -0.00187
 Alpha virt. eigenvalues --    0.00492   0.01821   0.02327   0.02507   0.02733
 Alpha virt. eigenvalues --    0.04043   0.04194   0.04631   0.05006   0.05497

 Mulliken charges:
               1
     1  Mg  12.000008
     2  C    6.000138
     3  C    5.999885
     4  C    5.999871
     5  C    6.000062
     6  N    7.000027
     7  C    5.999833
     8  C    5.999984
     9  C    5.999949
    10  C    6.000185
    11  C    5.999978
    12  C    6.000006
    13  C    5.999999
    14  H    1.000016
    15  N    6.999955
    16  C    6.000300
    17  C    6.000114
    18  C    6.000077
    19  C    6.000289
    20  C    5.999953
    21  C    6.000096
    22  O    8.000121
    23  C    5.999939
    24  N    7.000015
    25  C    6.000153
    26  C    5.999949
    27  C    6.000031
    28  C    5.999828
    29  C    5.999973
    30  C    6.000071
    31  C    6.000001
    32  N    6.999999
    33  C    5.999747
    34  C    5.999828
    35  C    5.999988
    36  C    5.999774
    37  C    6.000056
    38  C    5.999835
    39  O    7.999801
    40  C    6.000036
    41  C    5.999962
    42  O    7.999985
    43  O    7.999991
    44  C    6.000014
    45  H    1.000091
    46  H    1.000050
    47  H    0.999910
    48  H    1.000038
    49  H    1.000034
    50  H    1.000026
    51  H    1.000111
    52  H    0.999997
    53  H    0.999926
    54  H    0.999990
    55  H    1.000017
    56  H    0.999992
    57  H    1.000134
    58  H    1.000118
    59  H    1.000143
    60  H    1.000061
    61  H    1.000092
    62  H    1.000066
    63  H    0.999998
    64  H    0.999990
    65  H    0.999991
    66  H    1.000026
    67  H    1.000064
    68  H    0.999995
    69  H    0.999912
    70  H    0.999959
    71  H    0.999980
    72  H    0.999990
    73  H    0.999867
    74  H    0.999857
    75  H    0.999879
    76  H    0.999941
    77  H    0.999972
    78  H    0.999982
    79  H    0.999983
    80  Mg  12.002771
    81  C    6.006986
    82  C    5.966558
    83  C    5.984813
    84  C    6.029798
    85  N    6.985151
    86  C    5.978357
    87  C    6.007274
    88  C    5.989968
    89  C    6.042986
    90  C    5.999233
    91  C    6.001016
    92  C    6.002595
    93  H    0.990365
    94  N    6.993591
    95  C    6.051036
    96  C    6.021529
    97  C    6.012225
    98  C    6.042505
    99  C    5.993323
   100  C    6.009751
   101  O    8.018388
   102  C    5.997058
   103  N    7.008182
   104  C    6.030273
   105  C    5.988924
   106  C    6.010649
   107  C    5.961450
   108  C    5.996010
   109  C    6.002564
   110  C    5.997522
   111  N    7.001104
   112  C    5.961578
   113  C    5.970841
   114  C    5.994033
   115  C    5.976415
   116  C    6.000260
   117  C    5.983885
   118  O    7.966689
   119  C    5.994508
   120  C    5.998873
   121  O    7.989674
   122  O    7.998383
   123  C    6.004138
   124  H    1.004718
   125  H    1.011910
   126  H    0.994113
   127  H    1.001434
   128  H    0.999427
   129  H    1.012540
   130  H    0.995385
   131  H    1.001718
   132  H    0.987926
   133  H    1.006634
   134  H    1.005016
   135  H    0.995893
   136  H    1.023310
   137  H    1.018996
   138  H    1.023541
   139  H    1.010147
   140  H    1.013201
   141  H    1.007964
   142  H    0.999561
   143  H    0.998830
   144  H    0.999388
   145  H    0.998852
   146  H    1.012329
   147  H    1.005201
   148  H    0.989440
   149  H    1.007779
   150  H    0.996933
   151  H    0.997008
   152  H    0.978936
   153  H    0.978592
   154  H    0.987140
   155  H    0.989716
   156  H    0.995922
   157  H    0.995439
   158  H    0.991828
 Sum of Mulliken charges = 624.00000

 Dipole moment (field-independent basis, Debye):
    X=             -3.3267    Y=             10.6107    Z=              1.0222  Tot=             11.1669
 Quadrupole moment (field-independent basis, Debye-Ang):
   XX=           -186.3556   YY=             10.9958   ZZ=             -1.8743
   XY=            304.7323   XZ=             30.1507   YZ=             -0.6651

 Normal termination of Gaussian 16 at Thu Sep 23 11:12:05 2021.
