 Gaussian 16, Revision A.03,
 Gaussian 16:  ES64L-G16RevA.03 25-Dec-2016

 -----------------------------------
 #p cam-b3lyp/Def2SVP td=(nstates=5)
 -----------------------------------

 --------------------------------
 TDDFT excited states in gaussian
 --------------------------------
 Symbolic Z-matrix:
 Charge =  0 Multiplicity = 1

                         Standard orientation:
 ---------------------------------------------------------------------
 Center     Atomic      Atomic             Coordinates (Angstroms)
 Number     Number       Type             X           Y           Z
 ---------------------------------------------------------------------
      1         12           0       16.607544    0.478692   -0.058003
      2          6           0       15.215053   -2.340663    1.419386
      3          6           0       14.083316    2.324717    1.353948
      4          6           0       17.821352    3.245267   -1.727623
      5          6           0       18.792461   -1.511406   -1.906308
      6          7           0       14.919903    0.032271    1.312322
      7          6           0       14.598026   -1.143972    1.877192
      8          6           0       13.487525   -1.066782    2.950718
      9          6           0       12.967359    0.419394    2.739587
     10          6           0       14.030587    0.997495    1.687624
     11          6           0       11.481110    0.374923    2.234557
     12          6           0       14.190685   -1.336702    4.378639
     13          6           0       13.573920   -2.466036    5.255455
     14          1           0       12.090159   -2.826861    4.883970
     15          7           0       16.032040    2.489888   -0.259334
     16          6           0       14.989812    3.068506    0.494099
     17          6           0       15.044323    4.505966    0.333909
     18          6           0       16.067925    4.789781   -0.579004
     19          6           0       16.766799    3.479497   -0.851587
     20          6           0       13.909429    5.406793    0.841554
     21          6           0       16.464734    6.167428   -1.172741
     22          8           0       17.392990    6.359361   -1.980274
     23          6           0       15.711464    7.414510   -0.678772
     24          7           0       18.051270    0.756192   -1.656012
     25          6           0       18.394610    2.064655   -2.113905
     26          6           0       19.362796    1.976675   -3.312110
     27          6           0       19.875286    0.468769   -3.161945
     28          6           0       18.872032   -0.131727   -2.142487
     29          6           0       18.627088    2.354001   -4.587293
     30          6           0       21.353820    0.411291   -2.588636
     31          6           0       21.846489    1.124414   -1.283522
     32          7           0       16.914098   -1.490277   -0.299400
     33          6           0       17.825911   -2.189402   -1.096238
     34          6           0       17.670849   -3.588556   -0.862869
     35          6           0       16.711202   -3.701433    0.126879
     36          6           0       16.188215   -2.409408    0.380841
     37          6           0       18.364258   -4.725103   -1.585927
     38          6           0       16.020048   -4.627645    0.933147
     39          8           0       16.079507   -5.814626    0.878135
     40          6           0       14.935929   -3.780685    1.719781
     41          6           0       13.599848   -4.225051    1.191944
     42          8           0       12.914021   -3.565270    0.439333
     43          8           0       13.366219   -5.451273    1.674453
     44          6           0       12.370509   -6.171803    0.919453
     45          1           0       13.333580    2.933789    1.862771
     46          1           0       18.026732    4.070126   -2.412131
     47          1           0       19.462653   -2.149931   -2.486505
     48          1           0       12.690823   -1.803140    2.846909
     49          1           0       13.024049    1.054740    3.623754
     50          1           0       11.247413    1.064803    1.423314
     51          1           0       10.984747    0.649534    3.164886
     52          1           0       11.248195   -0.671666    2.039783
     53          1           0       14.264870   -0.374741    4.885381
     54          1           0       15.225615   -1.607312    4.167945
     55          1           0       13.647878   -2.019150    6.246287
     56          1           0       14.131843   -3.401942    5.260539
     57          1           0       13.538332    5.965825   -0.017813
     58          1           0       14.318094    6.147913    1.529771
     59          1           0       13.138856    4.800303    1.316450
     60          1           0       14.716296    7.376943   -1.123792
     61          1           0       16.209794    8.261533   -1.149984
     62          1           0       15.861452    7.529540    0.394435
     63          1           0       20.193075    2.629768   -3.041818
     64          1           0       19.949474    0.004454   -4.144648
     65          1           0       17.807017    3.052013   -4.418084
     66          1           0       18.219431    1.466875   -5.071443
     67          1           0       19.288975    2.882193   -5.273295
     68          1           0       22.030658    0.688396   -3.396908
     69          1           0       21.462721   -0.641820   -2.329286
     70          1           0       22.169211    2.131743   -1.547040
     71          1           0       22.691654    0.530603   -0.933441
     72          1           0       21.160502    1.103876   -0.436102
     73          1           0       19.448304   -4.682046   -1.479089
     74          1           0       18.097884   -4.566751   -2.630751
     75          1           0       18.178137   -5.723115   -1.186677
     76          1           0       14.882060   -3.903244    2.801679
     77          1           0       12.519119   -7.251318    0.908931
     78          1           0       12.059475   -5.847906   -0.073648
     79          1           0       11.369500   -6.102457    1.345764
     80         12           0      -16.226638    0.575906    0.382610
     81          6           0      -15.883564   -2.680932   -0.920615
     82          6           0      -13.056606    0.322640    1.446281
     83          6           0      -16.496428    3.755116    1.090034
     84          6           0      -19.269252    0.759743   -1.482644
     85          7           0      -14.650473   -1.001741    0.221406
     86          6           0      -14.716611   -2.264887   -0.262154
     87          6           0      -13.445449   -3.063159   -0.055015
     88          6           0      -12.687556   -2.115195    0.958834
     89          6           0      -13.473607   -0.821980    0.896018
     90          6           0      -12.581583   -2.669706    2.439249
     91          6           0      -12.515652   -3.491146   -1.272880
     92          6           0      -12.657637   -2.835018   -2.671968
     93          1           0      -11.355340   -2.656468   -3.538520
     94          7           0      -14.932124    1.816089    1.305439
     95          6           0      -13.653313    1.585757    1.571155
     96          6           0      -13.032280    2.840411    2.076454
     97          6           0      -14.141860    3.834343    2.122142
     98          6           0      -15.253706    3.139901    1.472160
     99          6           0      -11.629913    2.929201    2.615318
    100          6           0      -14.030462    5.256741    2.605274
    101          8           0      -12.962216    5.636310    3.078653
    102          6           0      -15.160036    6.346922    2.501827
    103          7           0      -17.675144    2.147707   -0.230894
    104          6           0      -17.552009    3.273199    0.383294
    105          6           0      -18.838045    4.148064    0.037090
    106          6           0      -19.541763    3.234695   -0.968750
    107          6           0      -18.767690    1.931457   -0.920700
    108          6           0      -19.748958    4.625941    1.180172
    109          6           0      -19.422897    3.741658   -2.498315
    110          6           0      -20.730141    4.192831   -3.175227
    111          7           0      -17.350415   -0.610833   -0.974984
    112          6           0      -18.590266   -0.469874   -1.540161
    113          6           0      -19.063381   -1.764722   -2.094765
    114          6           0      -17.965305   -2.664817   -1.991040
    115          6           0      -17.005996   -1.903008   -1.193354
    116          6           0      -20.384249   -2.028976   -2.851465
    117          6           0      -17.439662   -3.957997   -2.276713
    118          8           0      -17.813634   -4.910401   -2.982397
    119          6           0      -16.086917   -4.060423   -1.527169
    120          6           0      -16.205530   -5.241205   -0.559181
    121          8           0      -15.744723   -6.351713   -0.566600
    122          8           0      -16.845908   -4.779535    0.595936
    123          6           0      -16.975285   -5.729617    1.744176
    124          1           0      -12.020368    0.215147    1.774138
    125          1           0      -16.554021    4.806061    1.383637
    126          1           0      -20.308101    0.756706   -1.818079
    127          1           0      -13.764836   -3.946048    0.498405
    128          1           0      -11.660375   -1.976968    0.621036
    129          1           0      -13.109933   -3.617285    2.538837
    130          1           0      -13.194220   -1.950643    2.981951
    131          1           0      -11.534778   -2.714021    2.740369
    132          1           0      -12.628645   -4.569284   -1.387427
    133          1           0      -11.472951   -3.370487   -0.977133
    134          1           0      -13.084429   -1.848717   -2.489728
    135          1           0      -13.220637   -3.436318   -3.385147
    136          1           0      -11.442695    3.842428    3.179789
    137          1           0      -10.966038    2.741517    1.770599
    138          1           0      -11.530766    2.026721    3.219377
    139          1           0      -16.164162    6.155942    2.882328
    140          1           0      -15.345622    6.537954    1.444861
    141          1           0      -14.878580    7.276204    2.996288
    142          1           0      -18.561488    5.100177   -0.414529
    143          1           0      -20.609969    3.047920   -0.853143
    144          1           0      -19.374885    4.313090    2.155133
    145          1           0      -20.781486    4.307410    1.033032
    146          1           0      -19.798228    5.711005    1.271378
    147          1           0      -19.033227    2.962631   -3.152153
    148          1           0      -18.706429    4.563085   -2.475941
    149          1           0      -20.794357    4.002609   -4.246865
    150          1           0      -20.749411    5.276565   -3.060457
    151          1           0      -21.495284    3.636089   -2.634077
    152          1           0      -20.922836   -1.135681   -3.166073
    153          1           0      -20.994945   -2.571841   -2.130461
    154          1           0      -20.174624   -2.719952   -3.667614
    155          1           0      -15.291036   -4.255896   -2.245064
    156          1           0      -17.057187   -6.795453    1.532263
    157          1           0      -17.931882   -5.452038    2.186463
    158          1           0      -16.266766   -5.648789    2.568787
 ---------------------------------------------------------------------

 SCF Done:  E(RCAM-B3LYP) =  -4069.79782301     A.U. after   18 cycles

 Excitation energies and oscillator strengths:

 Excited State   1:      Singlet-A      1.7042 eV  727.51 nm  f=0.3813  <S**2>=0.000
     310 -> 316       -0.17573
     312 -> 314        0.68638
     310 <- 316       -0.10652
 This state for optimization and/or second-order correction.
 Total Energy, E(TD-HF/TD-DFT) =  -4069.73519410
 Copying the excited state density for this state as the 1-particle RhoCI density.

 Excited State   2:      Singlet-A      1.7691 eV  700.85 nm  f=0.4162  <S**2>=0.000
     309 -> 315        0.18506
     311 -> 313        0.68371
     309 <- 315        0.10630

 Excited State   3:      Singlet-A      2.2267 eV  556.81 nm  f=0.1275  <S**2>=0.000
     310 -> 314        0.64628
     312 -> 316        0.27557

 Excited State   4:      Singlet-A      2.2834 eV  542.99 nm  f=0.0990  <S**2>=0.000
     309 -> 313        0.63711
     311 -> 315       -0.29625

 Excited State   5:      Singlet-A      2.9816 eV  415.83 nm  f=0.0000  <S**2>=0.000
     312 -> 313        0.70709

 The electronic state is 1-A.
 Alpha  occ. eigenvalues --  -46.90094 -46.88051 -19.26127 -19.24623 -19.20439
 Alpha  occ. eigenvalues --  -19.20039 -19.19490 -19.19334 -19.18628 -19.18585
 Alpha  occ. eigenvalues --  -14.42341 -14.42217 -14.41866 -14.41406 -14.40461
 Alpha  occ. eigenvalues --  -14.40190 -14.39528 -14.39032 -10.39903 -10.39298
 Alpha  occ. eigenvalues --  -10.35714 -10.35633 -10.35094 -10.34802 -10.31891
 Alpha  occ. eigenvalues --  -10.31572 -10.31548 -10.31327 -10.31148 -10.31052
 Alpha  occ. eigenvalues --  -10.30796 -10.30754 -10.30639 -10.30321 -10.30201
 Alpha  occ. eigenvalues --  -10.30134 -10.30128 -10.30126 -10.29892 -10.29874
 Alpha  occ. eigenvalues --  -10.29801 -10.29634 -10.29609 -10.29427 -10.28993
 Alpha  occ. eigenvalues --  -10.28856 -10.28823 -10.28780 -10.28492 -10.28371
 Alpha  occ. eigenvalues --  -10.28115 -10.28111 -10.28045 -10.27934 -10.27846
 Alpha  occ. eigenvalues --  -10.27828 -10.27648 -10.27638 -10.27633 -10.27587
 Alpha  occ. eigenvalues --  -10.27567 -10.27398 -10.27272 -10.27207 -10.27114
 Alpha  occ. eigenvalues --  -10.27039 -10.26982 -10.26860 -10.26704 -10.26687
 Alpha  occ. eigenvalues --  -10.26657 -10.26612 -10.26596 -10.26504 -10.26402
 Alpha  occ. eigenvalues --  -10.26370 -10.26227 -10.26202 -10.25811 -10.25786
 Alpha  occ. eigenvalues --  -10.25759 -10.25584 -10.25408 -10.25232 -10.25176
 Alpha  occ. eigenvalues --  -10.24654  -3.18572  -3.16653  -1.93460  -1.93026
 Alpha  occ. eigenvalues --   -1.92875  -1.91554  -1.91087  -1.90975  -1.18132
 Alpha  occ. eigenvalues --   -1.16082  -1.11989  -1.09597  -1.09353  -1.09056
 Alpha  occ. eigenvalues --   -1.08305  -1.07303  -1.06771  -1.04851  -1.04127
 Alpha  occ. eigenvalues --   -1.04038  -1.03329  -1.03291  -1.02682  -1.01135
 Alpha  occ. eigenvalues --   -0.93610  -0.92772  -0.89833  -0.88850  -0.88641
 Alpha  occ. eigenvalues --   -0.88507  -0.88327  -0.88104  -0.87727  -0.87050
 Alpha  occ. eigenvalues --   -0.86929  -0.86471  -0.85989  -0.85438  -0.84918
 Alpha  occ. eigenvalues --   -0.83983  -0.83905  -0.83372  -0.82928  -0.82259
 Alpha  occ. eigenvalues --   -0.81820  -0.81171  -0.80880  -0.80836  -0.80573
 Alpha  occ. eigenvalues --   -0.79908  -0.78545  -0.77737  -0.77686  -0.77082
 Alpha  occ. eigenvalues --   -0.77057  -0.76717  -0.76707  -0.75832  -0.75398
 Alpha  occ. eigenvalues --   -0.74930  -0.73347  -0.72932  -0.72425  -0.71155
 Alpha  occ. eigenvalues --   -0.69594  -0.69295  -0.68864  -0.68717  -0.68618
 Alpha  occ. eigenvalues --   -0.67945  -0.67555  -0.66883  -0.66341  -0.65826
 Alpha  occ. eigenvalues --   -0.65724  -0.65540  -0.64902  -0.64521  -0.64451
 Alpha  occ. eigenvalues --   -0.63911  -0.63190  -0.62358  -0.60630  -0.60229
 Alpha  occ. eigenvalues --   -0.59971  -0.59492  -0.59374  -0.58932  -0.58580
 Alpha  occ. eigenvalues --   -0.58391  -0.58116  -0.57972  -0.57339  -0.57226
 Alpha  occ. eigenvalues --   -0.56399  -0.56237  -0.55903  -0.55723  -0.55653
 Alpha  occ. eigenvalues --   -0.55101  -0.54875  -0.54557  -0.54358  -0.53974
 Alpha  occ. eigenvalues --   -0.53942  -0.53638  -0.53341  -0.53096  -0.53036
 Alpha  occ. eigenvalues --   -0.52852  -0.52559  -0.52182  -0.52046  -0.51966
 Alpha  occ. eigenvalues --   -0.51828  -0.51794  -0.51708  -0.51563  -0.51274
 Alpha  occ. eigenvalues --   -0.51140  -0.50927  -0.50644  -0.50588  -0.50044
 Alpha  occ. eigenvalues --   -0.49878  -0.49828  -0.49785  -0.49516  -0.49482
 Alpha  occ. eigenvalues --   -0.49136  -0.49056  -0.48904  -0.48815  -0.48581
 Alpha  occ. eigenvalues --   -0.48566  -0.48543  -0.48320  -0.48302  -0.47927
 Alpha  occ. eigenvalues --   -0.47919  -0.47709  -0.47660  -0.47463  -0.47450
 Alpha  occ. eigenvalues --   -0.47264  -0.47104  -0.46961  -0.46674  -0.46626
 Alpha  occ. eigenvalues --   -0.46307  -0.46239  -0.46143  -0.46114  -0.45929
 Alpha  occ. eigenvalues --   -0.45698  -0.45555  -0.45547  -0.45386  -0.45155
 Alpha  occ. eigenvalues --   -0.44907  -0.44897  -0.44605  -0.44522  -0.44296
 Alpha  occ. eigenvalues --   -0.44236  -0.43946  -0.43726  -0.43608  -0.43575
 Alpha  occ. eigenvalues --   -0.43383  -0.43322  -0.43151  -0.43025  -0.42985
 Alpha  occ. eigenvalues --   -0.42707  -0.42626  -0.42352  -0.42280  -0.42102
 Alpha  occ. eigenvalues --   -0.42039  -0.41897  -0.41721  -0.41492  -0.41288
 Alpha  occ. eigenvalues --   -0.41274  -0.40949  -0.40779  -0.40710  -0.40648
 Alpha  occ. eigenvalues --   -0.40249  -0.39995  -0.39533  -0.39262  -0.39120
 Alpha  occ. eigenvalues --   -0.38879  -0.38235  -0.37685  -0.37652  -0.37432
 Alpha  occ. eigenvalues --   -0.37066  -0.37035  -0.36921  -0.36689  -0.36436
 Alpha  occ. eigenvalues --   -0.36346  -0.36087  -0.35039  -0.34775  -0.34291
 Alpha  occ. eigenvalues --   -0.34066  -0.33672  -0.32637  -0.31936  -0.31617
 Alpha  occ. eigenvalues --   -0.31439  -0.31073  -0.30993  -0.30932  -0.30415
 Alpha  occ. eigenvalues --   -0.30240  -0.29556  -0.29297  -0.24519  -0.23739
 Alpha  occ. eigenvalues --   -0.21559  -0.20947
 Alpha virt. eigenvalues --   -0.08939  -0.08521  -0.02058  -0.01312  -0.00644
 Alpha virt. eigenvalues --    0.00589   0.01161   0.01842   0.02510   0.02589
 Alpha virt. eigenvalues --    0.04281   0.04560   0.04944   0.05414   0.06156

 Mulliken charges:
               1
     1  Mg   0.826308
     2  C   -0.012277
     3  C   -0.055200
     4  C   -0.055290
     5  C   -0.101745
     6  N   -0.262886
     7  C   -0.021606
     8  C   -0.037422
     9  C   -0.073730
    10  C    0.047859
    11  C    0.074584
    12  C    0.036475
    13  C   -0.072623
    14  H    0.021615
    15  N   -0.381513
    16  C    0.116845
    17  C   -0.159375
    18  C   -0.046555
    19  C    0.112334
    20  C    0.135765
    21  C    0.005259
    22  O   -0.221317
    23  C    0.048246
    24  N   -0.269128
    25  C    0.003989
    26  C   -0.013047
    27  C   -0.018928
    28  C    0.072183
    29  C    0.091480
    30  C   -0.014707
    31  C    0.000585
    32  N   -0.397776
    33  C    0.133576
    34  C   -0.171127
    35  C    0.038074
    36  C    0.109019
    37  C    0.123569
    38  C    0.021051
    39  O   -0.126755
    40  C   -0.025987
    41  C    0.175992
    42  O   -0.208497
    43  O   -0.277533
    44  C    0.182024
    45  H   -0.037491
    46  H    0.007427
    47  H   -0.023678
    48  H    0.021965
    49  H    0.013746
    50  H    0.030076
    51  H    0.010724
    52  H    0.027816
    53  H    0.008553
    54  H    0.018896
    55  H    0.034130
    56  H    0.048630
    57  H    0.023711
    58  H    0.016886
    59  H    0.018159
    60  H    0.040389
    61  H    0.017704
    62  H    0.042655
    63  H    0.008182
    64  H    0.001959
    65  H    0.024911
    66  H    0.013019
    67  H    0.014137
    68  H    0.012822
    69  H   -0.002244
    70  H    0.027124
    71  H    0.014269
    72  H    0.022610
    73  H    0.014992
    74  H    0.034293
    75  H    0.032734
    76  H    0.025998
    77  H    0.038652
    78  H    0.037283
    79  H    0.007147
    80  Mg   0.823399
    81  C   -0.024898
    82  C   -0.082116
    83  C   -0.031315
    84  C   -0.095640
    85  N   -0.272496
    86  C   -0.080751
    87  C    0.045060
    88  C   -0.108038
    89  C    0.036593
    90  C    0.079833
    91  C    0.047757
    92  C   -0.094765
    93  H    0.010158
    94  N   -0.388567
    95  C    0.149221
    96  C   -0.157994
    97  C   -0.043809
    98  C    0.147748
    99  C    0.134735
   100  C    0.013417
   101  O   -0.209497
   102  C    0.034114
   103  N   -0.199538
   104  C    0.025748
   105  C   -0.006804
   106  C   -0.076375
   107  C    0.051566
   108  C    0.059919
   109  C   -0.001656
   110  C    0.015455
   111  N   -0.315906
   112  C    0.114116
   113  C   -0.179601
   114  C    0.031517
   115  C    0.134940
   116  C    0.119661
   117  C    0.021426
   118  O   -0.182592
   119  C   -0.017404
   120  C    0.214369
   121  O   -0.175883
   122  O   -0.370371
   123  C    0.173496
   124  H   -0.036683
   125  H   -0.077741
   126  H   -0.024213
   127  H    0.012989
   128  H    0.011025
   129  H    0.013907
   130  H    0.016927
   131  H    0.032822
   132  H    0.019949
   133  H    0.021102
   134  H    0.051464
   135  H    0.052572
   136  H    0.053364
   137  H    0.017440
   138  H    0.015859
   139  H    0.036759
   140  H    0.036788
   141  H    0.025211
   142  H    0.009800
   143  H    0.001059
   144  H    0.011987
   145  H    0.014776
   146  H    0.005291
   147  H    0.019554
   148  H    0.001098
   149  H    0.021003
   150  H    0.015885
   151  H    0.009304
   152  H    0.021190
   153  H    0.031344
   154  H    0.046348
   155  H    0.038509
   156  H    0.048722
   157  H    0.026428
   158  H    0.029932
 Sum of Mulliken charges =  -0.00000

 Dipole moment (field-independent basis, Debye):
    X=             -3.5019    Y=              2.5779    Z=              4.3218  Tot=              6.1308
 Quadrupole moment (field-independent basis, Debye-Ang):
   XX=           -407.0330   YY=           -561.1417   ZZ=           -507.8013
   XY=            -71.6305   XZ=            -12.8575   YZ=            -19.5293

 Normal termination of Gaussian 16 at Wed Sep 15 15:28:54 2021.
