 Gaussian 16, Revision A.03,
 Gaussian 16:  ES64L-G16RevA.03 25-Dec-2016

 -----------------------------------
 #p cam-b3lyp/Def2SVP td=(nstates=5)
 -----------------------------------

 --------------------------------
 TDDFT excited states in gaussian
 --------------------------------
 Symbolic Z-matrix:
 Charge =  0 Multiplicity = 1

                         Standard orientation:
 ---------------------------------------------------------------------
 Center     Atomic      Atomic             Coordinates (Angstroms)
 Number     Number       Type             X           Y           Z
 ---------------------------------------------------------------------
      1         12           0      -15.516439    0.446318    0.251626
      2          6           0      -14.535987   -2.639242   -1.078527
      3          6           0      -12.142542    1.188413    0.415293
      4          6           0      -16.354689    3.536438    1.195289
      5          6           0      -18.797777   -0.175844   -0.780907
      6          7           0      -13.489994   -0.647897   -0.512663
      7          6           0      -13.379517   -1.933987   -0.896905
      8          6           0      -11.956501   -2.366862   -1.156273
      9          6           0      -11.263882   -1.189263   -0.370098
     10          6           0      -12.309493   -0.098387   -0.162677
     11          6           0      -10.791841   -1.687391    1.021966
     12          6           0      -11.694277   -2.554940   -2.655887
     13          6           0      -12.298918   -1.562943   -3.671185
     14          1           0      -11.336499   -1.006828   -4.713955
     15          7           0      -14.426775    2.106416    0.743013
     16          6           0      -13.062681    2.151221    0.858588
     17          6           0      -12.694129    3.301888    1.693608
     18          6           0      -13.887657    4.119519    1.819424
     19          6           0      -14.951536    3.237150    1.250198
     20          6           0      -11.196959    3.693257    1.995297
     21          6           0      -13.977685    5.531174    2.404396
     22          8           0      -13.030239    6.029635    2.945359
     23          6           0      -15.273640    6.287207    2.346181
     24          7           0      -17.347817    1.587755   -0.010530
     25          6           0      -17.507290    2.856930    0.576076
     26          6           0      -18.988180    3.414622    0.452652
     27          6           0      -19.753484    2.137993   -0.141588
     28          6           0      -18.565507    1.080870   -0.290351
     29          6           0      -19.719371    4.071304    1.727776
     30          6           0      -20.595912    2.342505   -1.482287
     31          6           0      -21.895318    1.395115   -1.483643
     32          7           0      -16.552879   -1.104376   -0.691026
     33          6           0      -17.899579   -1.244894   -0.957949
     34          6           0      -18.145912   -2.582954   -1.481578
     35          6           0      -16.890340   -3.243088   -1.508326
     36          6           0      -15.925083   -2.259792   -1.084595
     37          6           0      -19.489573   -3.206981   -1.753698
     38          6           0      -16.096890   -4.458245   -1.884694
     39          8           0      -16.440930   -5.473737   -2.447288
     40          6           0      -14.588867   -4.086668   -1.554996
     41          6           0      -14.126584   -5.061000   -0.506649
     42          8           0      -13.807668   -6.252414   -0.746700
     43          8           0      -13.970445   -4.402183    0.704279
     44          6           0      -13.320130   -5.148465    1.729056
     45          1           0      -11.078284    1.390320    0.553913
     46          1           0      -16.774329    4.432328    1.658099
     47          1           0      -19.852673   -0.426783   -0.911031
     48          1           0      -11.702050   -3.270311   -0.602394
     49          1           0      -10.399410   -0.709696   -0.827230
     50          1           0      -10.897404   -0.834961    1.693464
     51          1           0       -9.793492   -2.117611    0.956270
     52          1           0      -11.399722   -2.415141    1.560435
     53          1           0      -12.162234   -3.503651   -2.916875
     54          1           0      -10.616194   -2.616681   -2.804788
     55          1           0      -12.674865   -0.693424   -3.132583
     56          1           0      -13.074901   -2.084297   -4.230928
     57          1           0      -10.672671    4.182610    1.174021
     58          1           0      -10.641232    2.803725    2.292138
     59          1           0      -11.033245    4.320346    2.870931
     60          1           0      -15.154519    7.325808    2.656477
     61          1           0      -16.059091    5.840423    2.956058
     62          1           0      -15.457596    6.326931    1.272222
     63          1           0      -18.827556    4.170688   -0.314976
     64          1           0      -20.435913    1.714384    0.594698
     65          1           0      -19.493742    5.136930    1.711100
     66          1           0      -19.381264    3.618820    2.659590
     67          1           0      -20.789969    3.883096    1.644600
     68          1           0      -20.042724    1.984880   -2.350653
     69          1           0      -20.842086    3.393537   -1.635395
     70          1           0      -21.864869    0.691576   -2.315733
     71          1           0      -22.790064    2.008943   -1.583091
     72          1           0      -22.044125    0.699962   -0.658094
     73          1           0      -20.009100   -2.594713   -2.490024
     74          1           0      -20.078149   -3.221583   -0.836133
     75          1           0      -19.404569   -4.207245   -2.178052
     76          1           0      -14.051227   -4.352366   -2.464916
     77          1           0      -13.164891   -4.506711    2.596022
     78          1           0      -12.424216   -5.641327    1.351134
     79          1           0      -13.967529   -5.918967    2.147661
     80         12           0       15.623106    0.691844   -0.156815
     81          6           0       15.302143   -2.573383    1.130621
     82          6           0       12.950316    1.561788    1.854159
     83          6           0       15.736464    3.867919   -1.403526
     84          6           0       17.978446   -0.366942   -2.301719
     85          7           0       14.286653   -0.392829    1.368385
     86          6           0       14.414988   -1.691542    1.845957
     87          6           0       13.547202   -1.892643    3.072038
     88          6           0       12.561627   -0.668677    3.030841
     89          6           0       13.313803    0.206261    2.053369
     90          6           0       11.068229   -1.003794    2.642621
     91          6           0       14.342430   -1.876261    4.386002
     92          6           0       13.850330   -2.846926    5.464897
     93          1           0       12.485602   -2.562008    6.151490
     94          7           0       14.572682    2.484770    0.232625
     95          6           0       13.506444    2.559986    1.062067
     96          6           0       12.955382    3.873303    0.975870
     97          6           0       13.805801    4.676651    0.140134
     98          6           0       14.704638    3.679134   -0.413153
     99          6           0       11.715268    4.271502    1.726964
    100          6           0       13.746289    6.151437   -0.258218
    101          8           0       14.685723    6.705787   -0.870354
    102          6           0       12.518022    7.019788   -0.010445
    103          7           0       16.753488    1.623534   -1.559386
    104          6           0       16.600120    2.939040   -1.986615
    105          6           0       17.533934    3.192614   -3.125261
    106          6           0       18.349345    1.885265   -3.432187
    107          6           0       17.720210    0.978439   -2.362119
    108          6           0       16.880888    3.878587   -4.362792
    109          6           0       19.880594    2.001540   -3.271221
    110          6           0       20.619137    2.274668   -4.595762
    111          7           0       16.454098   -1.051984   -0.580449
    112          6           0       17.485805   -1.388274   -1.455783
    113          6           0       17.893423   -2.837860   -1.344744
    114          6           0       17.005593   -3.289048   -0.354630
    115          6           0       16.209103   -2.193622    0.110221
    116          6           0       18.981706   -3.541686   -2.134721
    117          6           0       16.646416   -4.492222    0.380715
    118          8           0       17.066290   -5.646981    0.295357
    119          6           0       15.593589   -4.007449    1.465590
    120          6           0       14.392494   -4.962163    1.318353
    121          8           0       13.928135   -5.382525    0.278715
    122          8           0       14.021331   -5.406281    2.586040
    123          6           0       12.886423   -6.329133    2.558239
    124          1           0       12.157933    1.821160    2.559091
    125          1           0       15.865951    4.848572   -1.865644
    126          1           0       18.655491   -0.653421   -3.108752
    127          1           0       12.945298   -2.800950    3.058344
    128          1           0       12.443886   -0.147069    3.980702
    129          1           0       10.834340   -2.064317    2.545070
    130          1           0       10.708735   -0.602616    1.695336
    131          1           0       10.383172   -0.665902    3.420217
    132          1           0       14.357361   -0.880258    4.827959
    133          1           0       15.375393   -2.180032    4.215088
    134          1           0       14.598118   -3.004408    6.242021
    135          1           0       13.761276   -3.860137    5.073562
    136          1           0       11.035547    3.456321    1.478404
    137          1           0       11.211811    5.189787    1.425010
    138          1           0       11.826637    4.302396    2.810579
    139          1           0       11.614433    6.525258   -0.367293
    140          1           0       12.761731    7.919204   -0.575727
    141          1           0       12.378197    7.208085    1.054017
    142          1           0       18.171781    4.023700   -2.822816
    143          1           0       18.136789    1.421932   -4.396504
    144          1           0       15.814511    3.980193   -4.160088
    145          1           0       17.007316    3.231121   -5.230080
    146          1           0       17.379411    4.846846   -4.419091
    147          1           0       20.215085    1.122258   -2.721140
    148          1           0       20.143502    2.888209   -2.693921
    149          1           0       19.939294    2.744321   -5.306906
    150          1           0       20.971820    1.402956   -5.147287
    151          1           0       21.417521    2.989030   -4.392662
    152          1           0       19.938022   -3.183840   -1.752861
    153          1           0       18.987805   -3.345711   -3.206759
    154          1           0       18.853650   -4.604034   -1.927681
    155          1           0       15.936927   -4.029770    2.499692
    156          1           0       11.907826   -5.853418    2.629328
    157          1           0       13.075594   -6.995227    3.399927
    158          1           0       12.737640   -6.963060    1.684126
 ---------------------------------------------------------------------

 SCF Done:  E(RCAM-B3LYP) =  -4069.83509648     A.U. after   16 cycles

 Excitation energies and oscillator strengths:

 Excited State   1:      Singlet-A      1.7013 eV  728.74 nm  f=0.3641  <S**2>=0.000
     310 -> 316        0.18643
     312 -> 314        0.68351
     310 <- 316        0.10950
 This state for optimization and/or second-order correction.
 Total Energy, E(TD-HF/TD-DFT) =  -4069.77257317
 Copying the excited state density for this state as the 1-particle RhoCI density.

 Excited State   2:      Singlet-A      1.7467 eV  709.83 nm  f=0.3685  <S**2>=0.000
     309 -> 315        0.19404
     311 -> 313        0.68033
     309 <- 315        0.10943

 Excited State   3:      Singlet-A      2.2323 eV  555.41 nm  f=0.1017  <S**2>=0.000
     310 -> 314        0.63484
     312 -> 316       -0.29901

 Excited State   4:      Singlet-A      2.2373 eV  554.16 nm  f=0.1024  <S**2>=0.000
     309 -> 313        0.63430
     311 -> 315       -0.29866

 Excited State   5:      Singlet-A      3.0695 eV  403.92 nm  f=0.0000  <S**2>=0.000
     312 -> 313        0.70709

 The electronic state is 1-A.
 Alpha  occ. eigenvalues --  -46.90439 -46.87647 -19.26082 -19.25763 -19.20410
 Alpha  occ. eigenvalues --  -19.20053 -19.19586 -19.19205 -19.19095 -19.19087
 Alpha  occ. eigenvalues --  -14.42674 -14.42303 -14.41856 -14.41276 -14.40567
 Alpha  occ. eigenvalues --  -14.39893 -14.39517 -14.39480 -10.40016 -10.39684
 Alpha  occ. eigenvalues --  -10.35845 -10.35828 -10.35353 -10.35078 -10.32872
 Alpha  occ. eigenvalues --  -10.32023 -10.31874 -10.31478 -10.31439 -10.31173
 Alpha  occ. eigenvalues --  -10.30894 -10.30874 -10.30743 -10.30726 -10.30629
 Alpha  occ. eigenvalues --  -10.30324 -10.30276 -10.30255 -10.29925 -10.29625
 Alpha  occ. eigenvalues --  -10.29594 -10.29584 -10.29309 -10.29220 -10.29108
 Alpha  occ. eigenvalues --  -10.28996 -10.28743 -10.28738 -10.28712 -10.28630
 Alpha  occ. eigenvalues --  -10.28580 -10.28566 -10.28558 -10.28487 -10.28440
 Alpha  occ. eigenvalues --  -10.28380 -10.28109 -10.28039 -10.27952 -10.27853
 Alpha  occ. eigenvalues --  -10.27838 -10.27824 -10.27785 -10.27765 -10.27546
 Alpha  occ. eigenvalues --  -10.27374 -10.27200 -10.27066 -10.27047 -10.26919
 Alpha  occ. eigenvalues --  -10.26606 -10.26481 -10.26424 -10.26401 -10.26348
 Alpha  occ. eigenvalues --  -10.26333 -10.26295 -10.26265 -10.26219 -10.26008
 Alpha  occ. eigenvalues --  -10.25988 -10.25984 -10.25929 -10.25692 -10.25659
 Alpha  occ. eigenvalues --  -10.25557  -3.18802  -3.16430  -1.93665  -1.93277
 Alpha  occ. eigenvalues --   -1.93092  -1.91328  -1.90861  -1.90774  -1.16499
 Alpha  occ. eigenvalues --   -1.16301  -1.11553  -1.10697  -1.09230  -1.08928
 Alpha  occ. eigenvalues --   -1.08174  -1.07090  -1.04831  -1.04715  -1.03931
 Alpha  occ. eigenvalues --   -1.03666  -1.03073  -1.03006  -1.01940  -1.01456
 Alpha  occ. eigenvalues --   -0.92573  -0.92556  -0.89437  -0.89065  -0.89020
 Alpha  occ. eigenvalues --   -0.88381  -0.88296  -0.87779  -0.87483  -0.87389
 Alpha  occ. eigenvalues --   -0.87015  -0.86146  -0.86091  -0.85712  -0.84895
 Alpha  occ. eigenvalues --   -0.84417  -0.83547  -0.83391  -0.82757  -0.82301
 Alpha  occ. eigenvalues --   -0.81925  -0.81730  -0.80988  -0.80850  -0.80411
 Alpha  occ. eigenvalues --   -0.80086  -0.78456  -0.77581  -0.77467  -0.77332
 Alpha  occ. eigenvalues --   -0.77290  -0.76753  -0.76461  -0.76155  -0.75368
 Alpha  occ. eigenvalues --   -0.75060  -0.72857  -0.72682  -0.72104  -0.71664
 Alpha  occ. eigenvalues --   -0.69975  -0.69446  -0.69386  -0.68816  -0.68263
 Alpha  occ. eigenvalues --   -0.68189  -0.67318  -0.67205  -0.65939  -0.65790
 Alpha  occ. eigenvalues --   -0.65505  -0.64941  -0.64882  -0.64673  -0.64493
 Alpha  occ. eigenvalues --   -0.64164  -0.63761  -0.62578  -0.60376  -0.60154
 Alpha  occ. eigenvalues --   -0.60076  -0.59319  -0.59003  -0.58937  -0.58501
 Alpha  occ. eigenvalues --   -0.58222  -0.57839  -0.57751  -0.57500  -0.57391
 Alpha  occ. eigenvalues --   -0.56339  -0.56136  -0.56023  -0.55536  -0.55453
 Alpha  occ. eigenvalues --   -0.55116  -0.55108  -0.54695  -0.54344  -0.53807
 Alpha  occ. eigenvalues --   -0.53708  -0.53498  -0.53257  -0.53138  -0.53109
 Alpha  occ. eigenvalues --   -0.52880  -0.52831  -0.52568  -0.52153  -0.51974
 Alpha  occ. eigenvalues --   -0.51858  -0.51753  -0.51683  -0.51482  -0.51226
 Alpha  occ. eigenvalues --   -0.51130  -0.50743  -0.50595  -0.50486  -0.50218
 Alpha  occ. eigenvalues --   -0.50095  -0.50045  -0.49985  -0.49797  -0.49762
 Alpha  occ. eigenvalues --   -0.49597  -0.49369  -0.49071  -0.48978  -0.48904
 Alpha  occ. eigenvalues --   -0.48732  -0.48496  -0.48421  -0.48243  -0.48090
 Alpha  occ. eigenvalues --   -0.47622  -0.47619  -0.47404  -0.47361  -0.47282
 Alpha  occ. eigenvalues --   -0.46994  -0.46858  -0.46718  -0.46663  -0.46528
 Alpha  occ. eigenvalues --   -0.46359  -0.46277  -0.46128  -0.45907  -0.45731
 Alpha  occ. eigenvalues --   -0.45604  -0.45517  -0.45370  -0.45251  -0.44928
 Alpha  occ. eigenvalues --   -0.44923  -0.44628  -0.44535  -0.44356  -0.44345
 Alpha  occ. eigenvalues --   -0.44292  -0.43997  -0.43902  -0.43683  -0.43592
 Alpha  occ. eigenvalues --   -0.43497  -0.43433  -0.43315  -0.43190  -0.43030
 Alpha  occ. eigenvalues --   -0.43017  -0.42829  -0.42687  -0.42360  -0.42270
 Alpha  occ. eigenvalues --   -0.42258  -0.42047  -0.41940  -0.41776  -0.41753
 Alpha  occ. eigenvalues --   -0.41612  -0.41278  -0.41232  -0.41054  -0.40450
 Alpha  occ. eigenvalues --   -0.40421  -0.40248  -0.39963  -0.39690  -0.39138
 Alpha  occ. eigenvalues --   -0.38993  -0.38711  -0.38313  -0.38167  -0.37936
 Alpha  occ. eigenvalues --   -0.37321  -0.37267  -0.37237  -0.36878  -0.36826
 Alpha  occ. eigenvalues --   -0.36639  -0.36363  -0.35160  -0.34956  -0.34733
 Alpha  occ. eigenvalues --   -0.34438  -0.33202  -0.32855  -0.31522  -0.31419
 Alpha  occ. eigenvalues --   -0.31254  -0.30977  -0.30946  -0.30942  -0.30656
 Alpha  occ. eigenvalues --   -0.30557  -0.30000  -0.29775  -0.24079  -0.23953
 Alpha  occ. eigenvalues --   -0.21439  -0.21079
 Alpha virt. eigenvalues --   -0.08681  -0.08575  -0.02124  -0.01783  -0.00005
 Alpha virt. eigenvalues --    0.00048   0.00717   0.01745   0.01962   0.03737
 Alpha virt. eigenvalues --    0.04392   0.04752   0.05027   0.05444   0.05600

 Mulliken charges:
               1
     1  Mg   0.821318
     2  C    0.141408
     3  C   -0.072457
     4  C   -0.088169
     5  C   -0.079349
     6  N   -0.220254
     7  C   -0.143099
     8  C    0.066480
     9  C   -0.054770
    10  C   -0.010659
    11  C    0.063602
    12  C    0.064023
    13  C   -0.078566
    14  H    0.015498
    15  N   -0.372551
    16  C    0.163234
    17  C   -0.137201
    18  C   -0.058526
    19  C    0.190563
    20  C    0.093562
    21  C   -0.010356
    22  O   -0.168390
    23  C    0.051844
    24  N   -0.300558
    25  C   -0.021038
    26  C   -0.011930
    27  C   -0.040261
    28  C    0.044986
    29  C    0.055018
    30  C    0.036424
    31  C   -0.036895
    32  N   -0.352653
    33  C    0.125115
    34  C   -0.196477
    35  C    0.022520
    36  C    0.045526
    37  C    0.117931
    38  C    0.064049
    39  O   -0.137322
    40  C   -0.139088
    41  C    0.228306
    42  O   -0.237433
    43  O   -0.322931
    44  C    0.183483
    45  H   -0.018276
    46  H   -0.048414
    47  H   -0.045628
    48  H    0.002299
    49  H   -0.000532
    50  H    0.003773
    51  H    0.026585
    52  H    0.004903
    53  H    0.013159
    54  H    0.020308
    55  H    0.050670
    56  H    0.037526
    57  H    0.040102
    58  H    0.005382
    59  H    0.031756
    60  H    0.019331
    61  H    0.059902
    62  H    0.032496
    63  H    0.026051
    64  H    0.015670
    65  H    0.028254
    66  H    0.025948
    67  H    0.028390
    68  H    0.025563
    69  H    0.019033
    70  H    0.017255
    71  H    0.020735
    72  H    0.021752
    73  H    0.015760
    74  H    0.029835
    75  H    0.034253
    76  H    0.055869
    77  H    0.031185
    78  H    0.037687
    79  H    0.027461
    80  Mg   0.856963
    81  C   -0.058740
    82  C   -0.109500
    83  C   -0.071375
    84  C   -0.087055
    85  N   -0.241835
    86  C   -0.014039
    87  C    0.014348
    88  C   -0.051386
    89  C   -0.006691
    90  C    0.052950
    91  C    0.064887
    92  C   -0.070526
    93  H    0.002302
    94  N   -0.342945
    95  C    0.211722
    96  C   -0.159438
    97  C   -0.006386
    98  C    0.104291
    99  C    0.108382
   100  C    0.005866
   101  O   -0.228229
   102  C    0.038017
   103  N   -0.379048
   104  C    0.084271
   105  C   -0.051036
   106  C   -0.001764
   107  C    0.029956
   108  C    0.063121
   109  C    0.045003
   110  C   -0.000570
   111  N   -0.392734
   112  C    0.133039
   113  C   -0.159653
   114  C   -0.023297
   115  C    0.156270
   116  C    0.124929
   117  C    0.083868
   118  O   -0.172853
   119  C   -0.034175
   120  C    0.197914
   121  O   -0.193107
   122  O   -0.339689
   123  C    0.167149
   124  H   -0.033839
   125  H   -0.010968
   126  H   -0.037269
   127  H    0.007773
   128  H    0.014659
   129  H    0.013042
   130  H    0.020437
   131  H    0.012751
   132  H    0.016728
   133  H    0.012017
   134  H    0.024801
   135  H    0.028585
   136  H    0.024952
   137  H    0.003801
   138  H    0.034932
   139  H    0.040275
   140  H    0.037973
   141  H    0.041712
   142  H    0.016579
   143  H    0.017707
   144  H    0.022112
   145  H    0.012496
   146  H    0.021712
   147  H    0.012883
   148  H    0.003403
   149  H    0.004445
   150  H    0.019172
   151  H    0.018467
   152  H    0.027685
   153  H    0.026044
   154  H    0.042314
   155  H    0.042747
   156  H    0.025694
   157  H    0.037243
   158  H    0.047758
 Sum of Mulliken charges =  -0.00000

 Dipole moment (field-independent basis, Debye):
    X=             -4.2258    Y=              6.4909    Z=              4.9860  Tot=              9.2114
 Quadrupole moment (field-independent basis, Debye-Ang):
   XX=           -470.7812   YY=           -596.9758   ZZ=           -502.2746
   XY=            -41.8375   XZ=            -38.4060   YZ=            -33.4983

 Normal termination of Gaussian 16 at Thu Sep  2 02:17:52 2021.
