 Gaussian 16, Revision A.03,
 Gaussian 16:  ES64L-G16RevA.03 25-Dec-2016

 -----------------------------------
 #p cam-b3lyp/Def2SVP td=(nstates=5)
 -----------------------------------

 --------------------------------
 TDDFT excited states in gaussian
 --------------------------------
 Symbolic Z-matrix:
 Charge =  0 Multiplicity = 1

                         Standard orientation:
 ---------------------------------------------------------------------
 Center     Atomic      Atomic             Coordinates (Angstroms)
 Number     Number       Type             X           Y           Z
 ---------------------------------------------------------------------
      1         12           0       -9.444680   -1.057453    0.427090
      2          6           0      -10.491176    2.055969   -0.580513
      3          6           0       -8.252716    0.432378    3.430297
      4          6           0       -7.888277   -3.921347    1.324527
      5          6           0      -10.267526   -2.391546   -2.538337
      6          7           0       -9.381071    1.022225    1.314243
      7          6           0       -9.875258    2.126233    0.672911
      8          6           0       -9.791908    3.365189    1.567327
      9          6           0       -8.881739    2.810841    2.758399
     10          6           0       -8.825099    1.334240    2.496472
     11          6           0       -7.486473    3.524858    2.889209
     12          6           0      -11.213030    3.884058    2.078178
     13          6           0      -11.585545    5.346964    2.101172
     14          1           0      -10.609414    6.317070    2.665639
     15          7           0       -8.263312   -1.713501    2.173501
     16          6           0       -8.056446   -1.035149    3.323605
     17          6           0       -7.474920   -1.867920    4.322490
     18          6           0       -7.382264   -3.173362    3.744668
     19          6           0       -7.795239   -2.939439    2.328663
     20          6           0       -7.081341   -1.253368    5.626882
     21          6           0       -6.775008   -4.434365    4.335466
     22          8           0       -6.499412   -5.421408    3.646355
     23          6           0       -6.464146   -4.510815    5.819969
     24          7           0       -8.976935   -2.891895   -0.548628
     25          6           0       -8.436078   -3.962964    0.089576
     26          6           0       -8.515820   -5.211146   -0.787756
     27          6           0       -9.451039   -4.731656   -1.962163
     28          6           0       -9.587503   -3.249846   -1.672725
     29          6           0       -7.229612   -5.959806   -1.246420
     30          6           0      -10.822283   -5.506798   -2.144518
     31          6           0      -12.083251   -5.002525   -1.475179
     32          7           0      -10.119544   -0.344853   -1.257934
     33          6           0      -10.567778   -0.983750   -2.386107
     34          6           0      -11.072312   -0.098990   -3.371942
     35          6           0      -11.111919    1.114502   -2.692429
     36          6           0      -10.544967    0.906498   -1.408728
     37          6           0      -11.598949   -0.304094   -4.786342
     38          6           0      -11.440365    2.470070   -2.774227
     39          8           0      -11.881642    3.081227   -3.730006
     40          6           0      -11.035945    3.222265   -1.385205
     41          6           0      -10.059167    4.255874   -1.705214
     42          8           0       -8.909635    4.064062   -2.148799
     43          8           0      -10.528751    5.518624   -1.524093
     44          6           0       -9.780674    6.642142   -2.099282
     45          1           0       -8.007892    0.981978    4.341183
     46          1           0       -7.653722   -4.921383    1.694601
     47          1           0      -10.866774   -2.838592   -3.333347
     48          1           0       -9.377661    4.185361    0.979578
     49          1           0       -9.341338    2.996537    3.729311
     50          1           0       -7.435080    3.968967    3.882713
     51          1           0       -7.451169    4.212038    2.043669
     52          1           0       -6.621817    2.860554    2.898870
     53          1           0      -11.219938    3.502162    3.099215
     54          1           0      -12.021192    3.289680    1.653237
     55          1           0      -12.572564    5.472854    2.546138
     56          1           0      -11.629861    5.648934    1.055396
     57          1           0       -7.441309   -1.951445    6.381787
     58          1           0       -7.618130   -0.318908    5.792290
     59          1           0       -6.017236   -1.061834    5.769223
     60          1           0       -7.240734   -4.088814    6.458561
     61          1           0       -5.440482   -4.178174    5.997299
     62          1           0       -6.473050   -5.579429    6.036769
     63          1           0       -8.966880   -5.947620   -0.122390
     64          1           0       -9.028656   -4.931980   -2.946112
     65          1           0       -7.069115   -5.814736   -2.314638
     66          1           0       -7.411045   -7.017801   -1.057874
     67          1           0       -6.421129   -5.554050   -0.639288
     68          1           0      -10.649237   -6.522978   -1.792830
     69          1           0      -11.075156   -5.562393   -3.203564
     70          1           0      -12.574452   -5.783569   -0.894360
     71          1           0      -12.813182   -4.590135   -2.173036
     72          1           0      -11.745839   -4.201739   -0.817130
     73          1           0      -11.584184   -1.369233   -5.020506
     74          1           0      -10.981482    0.263053   -5.483346
     75          1           0      -12.619999    0.073612   -4.832239
     76          1           0      -11.988536    3.692899   -1.140222
     77          1           0      -10.383354    7.533070   -2.276238
     78          1           0       -9.161912    6.401947   -2.963366
     79          1           0       -9.141475    6.993578   -1.289185
     80         12           0        9.493050   -0.503253   -0.026135
     81          6           0        7.560327    2.405587   -0.073298
     82          6           0       12.137446    1.486793    1.132016
     83          6           0       11.617747   -3.054360   -0.446248
     84          6           0        7.176678   -2.002072   -2.083140
     85          7           0        9.812968    1.733160    0.594776
     86          6           0        8.844517    2.666428    0.395930
     87          6           0        9.363915    4.100605    0.808450
     88          6           0       10.941890    3.807711    0.954476
     89          6           0       11.007611    2.274813    0.849000
     90          6           0       11.647272    4.409202   -0.312665
     91          6           0        8.722627    4.448142    2.202012
     92          6           0        9.182237    5.760783    2.893058
     93          1           0        9.542577    5.993647    4.330167
     94          7           0       11.502491   -0.777270    0.486185
     95          6           0       12.447905    0.130302    0.992343
     96          6           0       13.666791   -0.550176    1.127208
     97          6           0       13.493703   -1.901287    0.858167
     98          6           0       12.159617   -1.962246    0.284171
     99          6           0       14.858161    0.149359    1.694909
    100          6           0       14.498728   -3.097761    0.932726
    101          8           0       14.219252   -4.264774    0.679915
    102          6           0       15.894530   -2.949718    1.544408
    103          7           0        9.430362   -2.206202   -1.208916
    104          6           0       10.374635   -3.165358   -1.083977
    105          6           0        9.989244   -4.502234   -1.747004
    106          6           0        8.627803   -4.121115   -2.391979
    107          6           0        8.309184   -2.761944   -1.795379
    108          6           0       11.104475   -5.125370   -2.650653
    109          6           0        7.468019   -5.146221   -2.262171
    110          6           0        6.817279   -5.237841   -0.947436
    111          7           0        7.680156   -0.001424   -0.846235
    112          6           0        6.870403   -0.674000   -1.630795
    113          6           0        5.616767    0.047205   -1.873474
    114          6           0        5.890596    1.298452   -1.234189
    115          6           0        7.148281    1.239075   -0.666437
    116          6           0        4.309490   -0.479683   -2.242921
    117          6           0        5.296194    2.591208   -0.942492
    118          8           0        4.180195    3.011442   -1.148430
    119          6           0        6.416549    3.364900   -0.236923
    120          6           0        6.748777    4.672522   -0.963329
    121          8           0        7.418557    4.743834   -1.960753
    122          8           0        6.103675    5.714597   -0.341263
    123          6           0        6.384057    7.019436   -0.983418
    124          1           0       12.911172    2.086976    1.613547
    125          1           0       12.199118   -3.978566   -0.417509
    126          1           0        6.565874   -2.736846   -2.610529
    127          1           0        9.207110    4.843302    0.025786
    128          1           0       11.395677    4.204470    1.863494
    129          1           0       11.985985    3.697982   -1.065336
    130          1           0       12.636563    4.798752   -0.071296
    131          1           0       11.056332    5.163571   -0.831711
    132          1           0        8.900068    3.597045    2.858912
    133          1           0        7.641542    4.450343    2.060297
    134          1           0        8.434528    6.490973    2.582066
    135          1           0       10.126307    5.931644    2.377197
    136          1           0       14.722218    1.207430    1.920347
    137          1           0       15.716855   -0.092967    1.067295
    138          1           0       15.004216   -0.338589    2.658980
    139          1           0       16.564558   -2.316788    0.962443
    140          1           0       16.378948   -3.890704    1.805639
    141          1           0       15.748347   -2.506686    2.529703
    142          1           0        9.880661   -5.082389   -0.831061
    143          1           0        8.872799   -3.951267   -3.440423
    144          1           0       12.095849   -4.844899   -2.296366
    145          1           0       10.989217   -4.754096   -3.669310
    146          1           0       11.089143   -6.215458   -2.649079
    147          1           0        7.981716   -6.078392   -2.495162
    148          1           0        6.750039   -4.992134   -3.067923
    149          1           0        6.061397   -4.457345   -0.861882
    150          1           0        7.551317   -5.202048   -0.142683
    151          1           0        6.246751   -6.160768   -0.839334
    152          1           0        4.326863   -1.518207   -1.911521
    153          1           0        4.039634   -0.573541   -3.294928
    154          1           0        3.572228    0.138387   -1.731633
    155          1           0        6.081485    3.578029    0.778703
    156          1           0        5.487091    7.634680   -0.915057
    157          1           0        6.513932    7.004028   -2.065751
    158          1           0        7.176638    7.550951   -0.457727
 ---------------------------------------------------------------------

 SCF Done:  E(RCAM-B3LYP) =  -4069.84713680     A.U. after   19 cycles

 Excitation energies and oscillator strengths:

 Excited State   1:      Singlet-A      1.7197 eV  720.95 nm  f=0.4421  <S**2>=0.000
     309 -> 316        0.17778
     311 -> 313        0.68581
     309 <- 316        0.10674
 This state for optimization and/or second-order correction.
 Total Energy, E(TD-HF/TD-DFT) =  -4069.78393766
 Copying the excited state density for this state as the 1-particle RhoCI density.

 Excited State   2:      Singlet-A      1.7444 eV  710.75 nm  f=0.3682  <S**2>=0.000
     310 -> 315       -0.18592
     312 -> 314        0.68309
     310 <- 315       -0.10693

 Excited State   3:      Singlet-A      2.1901 eV  566.12 nm  f=0.1643  <S**2>=0.000
     309 -> 313        0.66238
     311 -> 316       -0.23707

 Excited State   4:      Singlet-A      2.2617 eV  548.20 nm  f=0.1182  <S**2>=0.000
     310 -> 314        0.64479
     312 -> 315        0.27689

 Excited State   5:      Singlet-A      2.7660 eV  448.25 nm  f=0.0000  <S**2>=0.000
     312 -> 313        0.70701

 The electronic state is 1-A.
 Alpha  occ. eigenvalues --  -46.88992 -46.88631 -19.25712 -19.24946 -19.20338
 Alpha  occ. eigenvalues --  -19.19368 -19.18779 -19.18742 -19.18484 -19.18394
 Alpha  occ. eigenvalues --  -14.42172 -14.42018 -14.41430 -14.40984 -14.39466
 Alpha  occ. eigenvalues --  -14.39387 -14.39071 -14.39059 -10.39704 -10.38808
 Alpha  occ. eigenvalues --  -10.36104 -10.35269 -10.34420 -10.34410 -10.31744
 Alpha  occ. eigenvalues --  -10.31489 -10.31000 -10.30957 -10.30757 -10.30550
 Alpha  occ. eigenvalues --  -10.30506 -10.30320 -10.30280 -10.30020 -10.29964
 Alpha  occ. eigenvalues --  -10.29937 -10.29883 -10.29771 -10.29570 -10.29539
 Alpha  occ. eigenvalues --  -10.28895 -10.28658 -10.28613 -10.28497 -10.28473
 Alpha  occ. eigenvalues --  -10.28332 -10.28319 -10.28250 -10.28155 -10.27894
 Alpha  occ. eigenvalues --  -10.27885 -10.27871 -10.27859 -10.27662 -10.27568
 Alpha  occ. eigenvalues --  -10.27565 -10.27524 -10.27422 -10.27405 -10.27350
 Alpha  occ. eigenvalues --  -10.27350 -10.27221 -10.27200 -10.27020 -10.26974
 Alpha  occ. eigenvalues --  -10.26909 -10.26807 -10.26756 -10.26496 -10.26313
 Alpha  occ. eigenvalues --  -10.26297 -10.26148 -10.26101 -10.26095 -10.25916
 Alpha  occ. eigenvalues --  -10.25911 -10.25910 -10.25773 -10.25623 -10.25196
 Alpha  occ. eigenvalues --  -10.25164 -10.25097 -10.25031 -10.24960 -10.24508
 Alpha  occ. eigenvalues --  -10.24211  -3.17601  -3.17194  -1.92484  -1.92081
 Alpha  occ. eigenvalues --   -1.92017  -1.91950  -1.91663  -1.91481  -1.16758
 Alpha  occ. eigenvalues --   -1.15728  -1.10334  -1.10207  -1.09777  -1.09365
 Alpha  occ. eigenvalues --   -1.08694  -1.05720  -1.05261  -1.04893  -1.04530
 Alpha  occ. eigenvalues --   -1.04042  -1.03709  -1.03365  -1.03271  -1.02364
 Alpha  occ. eigenvalues --   -0.93744  -0.92498  -0.89351  -0.88916  -0.88489
 Alpha  occ. eigenvalues --   -0.88188  -0.88155  -0.88087  -0.87670  -0.87410
 Alpha  occ. eigenvalues --   -0.87312  -0.87145  -0.86309  -0.86109  -0.84171
 Alpha  occ. eigenvalues --   -0.83997  -0.83662  -0.83544  -0.82575  -0.82332
 Alpha  occ. eigenvalues --   -0.81744  -0.81474  -0.81055  -0.80855  -0.80339
 Alpha  occ. eigenvalues --   -0.80216  -0.78438  -0.78284  -0.77518  -0.77374
 Alpha  occ. eigenvalues --   -0.76982  -0.76504  -0.76136  -0.76083  -0.75382
 Alpha  occ. eigenvalues --   -0.74793  -0.73433  -0.72399  -0.71725  -0.71432
 Alpha  occ. eigenvalues --   -0.69970  -0.69541  -0.69102  -0.69089  -0.68286
 Alpha  occ. eigenvalues --   -0.68019  -0.67025  -0.66938  -0.65517  -0.65301
 Alpha  occ. eigenvalues --   -0.65013  -0.64760  -0.64667  -0.64363  -0.64099
 Alpha  occ. eigenvalues --   -0.63933  -0.62413  -0.62123  -0.60076  -0.59999
 Alpha  occ. eigenvalues --   -0.59719  -0.59372  -0.59301  -0.58955  -0.58557
 Alpha  occ. eigenvalues --   -0.58178  -0.58167  -0.57796  -0.57273  -0.57192
 Alpha  occ. eigenvalues --   -0.56474  -0.56135  -0.55653  -0.55423  -0.55287
 Alpha  occ. eigenvalues --   -0.55159  -0.54878  -0.54778  -0.54522  -0.53954
 Alpha  occ. eigenvalues --   -0.53951  -0.53185  -0.53180  -0.53066  -0.53018
 Alpha  occ. eigenvalues --   -0.52686  -0.52604  -0.52505  -0.52484  -0.52120
 Alpha  occ. eigenvalues --   -0.52016  -0.51967  -0.51320  -0.51050  -0.50954
 Alpha  occ. eigenvalues --   -0.50650  -0.50510  -0.50466  -0.50221  -0.50161
 Alpha  occ. eigenvalues --   -0.49841  -0.49744  -0.49561  -0.49435  -0.49374
 Alpha  occ. eigenvalues --   -0.49151  -0.49112  -0.48986  -0.48904  -0.48738
 Alpha  occ. eigenvalues --   -0.48681  -0.48659  -0.48452  -0.48429  -0.48109
 Alpha  occ. eigenvalues --   -0.47827  -0.47713  -0.47444  -0.47427  -0.47037
 Alpha  occ. eigenvalues --   -0.47018  -0.46752  -0.46583  -0.46404  -0.46056
 Alpha  occ. eigenvalues --   -0.46043  -0.45912  -0.45858  -0.45777  -0.45642
 Alpha  occ. eigenvalues --   -0.45287  -0.45201  -0.45000  -0.44892  -0.44876
 Alpha  occ. eigenvalues --   -0.44660  -0.44368  -0.44351  -0.44139  -0.44007
 Alpha  occ. eigenvalues --   -0.43837  -0.43824  -0.43773  -0.43594  -0.43534
 Alpha  occ. eigenvalues --   -0.43264  -0.43261  -0.43176  -0.43107  -0.42853
 Alpha  occ. eigenvalues --   -0.42836  -0.42501  -0.42334  -0.42319  -0.42105
 Alpha  occ. eigenvalues --   -0.41781  -0.41771  -0.41725  -0.41579  -0.41396
 Alpha  occ. eigenvalues --   -0.41203  -0.40998  -0.40694  -0.40507  -0.40191
 Alpha  occ. eigenvalues --   -0.39896  -0.39738  -0.39526  -0.39413  -0.38755
 Alpha  occ. eigenvalues --   -0.38419  -0.38417  -0.38127  -0.37786  -0.37677
 Alpha  occ. eigenvalues --   -0.37259  -0.37234  -0.36641  -0.36500  -0.36284
 Alpha  occ. eigenvalues --   -0.35918  -0.35537  -0.34851  -0.34444  -0.34193
 Alpha  occ. eigenvalues --   -0.33305  -0.33085  -0.32768  -0.31371  -0.31231
 Alpha  occ. eigenvalues --   -0.31120  -0.31022  -0.30778  -0.30718  -0.30305
 Alpha  occ. eigenvalues --   -0.29986  -0.29977  -0.29094  -0.23722  -0.23715
 Alpha  occ. eigenvalues --   -0.21355  -0.20995
 Alpha virt. eigenvalues --   -0.08975  -0.08307  -0.01254  -0.01081   0.00334
 Alpha virt. eigenvalues --    0.00513   0.01946   0.01971   0.02583   0.02631
 Alpha virt. eigenvalues --    0.04888   0.05218   0.05598   0.06269   0.06363

 Mulliken charges:
               1
     1  Mg   0.838760
     2  C    0.011613
     3  C   -0.053237
     4  C   -0.054122
     5  C   -0.074694
     6  N   -0.258996
     7  C   -0.044368
     8  C   -0.039913
     9  C   -0.067928
    10  C    0.025196
    11  C    0.071308
    12  C    0.050849
    13  C   -0.046915
    14  H    0.016744
    15  N   -0.276072
    16  C    0.108815
    17  C   -0.140068
    18  C   -0.039077
    19  C    0.074039
    20  C    0.126688
    21  C   -0.001480
    22  O   -0.216708
    23  C    0.046227
    24  N   -0.278452
    25  C    0.028362
    26  C   -0.031825
    27  C    0.005549
    28  C    0.043897
    29  C    0.083013
    30  C   -0.011413
    31  C    0.012558
    32  N   -0.385088
    33  C    0.091442
    34  C   -0.180158
    35  C    0.092707
    36  C    0.102535
    37  C    0.138679
    38  C   -0.042511
    39  O   -0.171774
    40  C    0.016096
    41  C    0.193028
    42  O   -0.252309
    43  O   -0.327593
    44  C    0.186304
    45  H   -0.035373
    46  H   -0.008619
    47  H   -0.024207
    48  H    0.024860
    49  H    0.017858
    50  H    0.009847
    51  H    0.029046
    52  H    0.019768
    53  H   -0.011735
    54  H    0.007620
    55  H    0.031962
    56  H    0.033379
    57  H    0.008848
    58  H    0.014588
    59  H    0.039877
    60  H    0.033086
    61  H    0.047664
    62  H    0.024498
    63  H    0.009596
    64  H    0.009878
    65  H    0.015165
    66  H    0.018185
    67  H    0.029976
    68  H    0.004180
    69  H    0.004692
    70  H    0.014575
    71  H    0.015312
    72  H    0.016190
    73  H    0.004251
    74  H    0.043985
    75  H    0.038354
    76  H    0.030353
    77  H    0.034759
    78  H    0.058571
    79  H    0.019301
    80  Mg   0.838484
    81  C    0.002927
    82  C   -0.061154
    83  C   -0.104792
    84  C   -0.054558
    85  N   -0.218623
    86  C   -0.092788
    87  C   -0.042301
    88  C   -0.061302
    89  C    0.010889
    90  C    0.050426
    91  C    0.024681
    92  C   -0.040651
    93  H    0.041207
    94  N   -0.391128
    95  C    0.155005
    96  C   -0.142688
    97  C   -0.042517
    98  C    0.127104
    99  C    0.119263
   100  C    0.039971
   101  O   -0.203678
   102  C    0.039586
   103  N   -0.333234
   104  C    0.048142
   105  C   -0.057648
   106  C    0.015379
   107  C   -0.039445
   108  C    0.082171
   109  C    0.031319
   110  C    0.039592
   111  N   -0.320520
   112  C    0.146424
   113  C   -0.154847
   114  C   -0.024139
   115  C    0.123392
   116  C    0.118331
   117  C    0.036074
   118  O   -0.148410
   119  C   -0.004710
   120  C    0.202223
   121  O   -0.198407
   122  O   -0.329948
   123  C    0.164260
   124  H   -0.038583
   125  H   -0.000581
   126  H   -0.043352
   127  H    0.025028
   128  H    0.023555
   129  H    0.021470
   130  H    0.003393
   131  H    0.029274
   132  H    0.011195
   133  H    0.008494
   134  H    0.027343
   135  H    0.016263
   136  H    0.020515
   137  H    0.025983
   138  H    0.028094
   139  H    0.036622
   140  H    0.028066
   141  H    0.021003
   142  H    0.014588
   143  H    0.015017
   144  H    0.028104
   145  H    0.010025
   146  H    0.017352
   147  H   -0.003887
   148  H    0.010120
   149  H    0.011826
   150  H    0.012130
   151  H    0.011500
   152  H    0.009475
   153  H    0.018585
   154  H    0.041235
   155  H    0.048671
   156  H    0.031891
   157  H    0.052242
   158  H    0.037985
 Sum of Mulliken charges =  -0.00000

 Dipole moment (field-independent basis, Debye):
    X=              1.6960    Y=             -0.0316    Z=              6.1099  Tot=              6.3411
 Quadrupole moment (field-independent basis, Debye-Ang):
   XX=           -431.9200   YY=           -486.0576   ZZ=           -499.8533
   XY=             44.0520   XZ=            -15.0642   YZ=             35.3293

 Normal termination of Gaussian 16 at Fri Sep  3 03:04:31 2021.
