 Gaussian 16, Revision A.03,
 Gaussian 16:  ES64L-G16RevA.03 25-Dec-2016

 -----------------------------------
 #p cam-b3lyp/Def2SVP td=(nstates=5)
 -----------------------------------

 --------------------------------
 TDDFT excited states in gaussian
 --------------------------------
 Symbolic Z-matrix:
 Charge =  0 Multiplicity = 1

                         Standard orientation:
 ---------------------------------------------------------------------
 Center     Atomic      Atomic             Coordinates (Angstroms)
 Number     Number       Type             X           Y           Z
 ---------------------------------------------------------------------
      1         12           0      -24.696840   -0.807739   -0.023178
      2          6           0      -25.996378    2.253569    0.731308
      3          6           0      -22.472843    0.782947   -2.267608
      4          6           0      -23.550493   -3.809737   -0.965052
      5          6           0      -26.858671   -2.234253    2.232997
      6          7           0      -24.483820    1.211106   -0.927870
      7          6           0      -25.075452    2.340148   -0.347098
      8          6           0      -24.601572    3.657727   -1.023396
      9          6           0      -23.544511    3.065326   -1.992870
     10          6           0      -23.524427    1.562909   -1.776841
     11          6           0      -23.561945    3.397127   -3.545809
     12          6           0      -23.997333    4.777571   -0.066633
     13          6           0      -23.527358    6.026583   -0.859461
     14          1           0      -24.432477    7.243330   -0.661640
     15          7           0      -23.144624   -1.427239   -1.423901
     16          6           0      -22.229264   -0.596902   -2.034134
     17          6           0      -21.381280   -1.468159   -2.839265
     18          6           0      -21.712428   -2.807299   -2.454832
     19          6           0      -22.825274   -2.746724   -1.560312
     20          6           0      -20.361155   -0.905485   -3.752151
     21          6           0      -21.034836   -4.072264   -3.088327
     22          8           0      -21.453573   -5.236127   -2.923975
     23          6           0      -19.855780   -3.910522   -4.011991
     24          7           0      -25.134238   -2.641032    0.497697
     25          6           0      -24.523584   -3.807703   -0.042451
     26          6           0      -25.287178   -5.050935    0.354019
     27          6           0      -25.937113   -4.558226    1.645535
     28          6           0      -25.952522   -3.042288    1.509851
     29          6           0      -26.332210   -5.496626   -0.723255
     30          6           0      -25.113998   -4.915048    2.903487
     31          6           0      -25.319204   -6.265615    3.535424
     32          7           0      -26.206174   -0.218767    1.251792
     33          6           0      -26.894641   -0.854057    2.213830
     34          6           0      -27.777077    0.073355    2.858078
     35          6           0      -27.462477    1.311515    2.339607
     36          6           0      -26.458321    1.092905    1.383665
     37          6           0      -28.718159   -0.333541    3.937771
     38          6           0      -27.777608    2.673222    2.429013
     39          8           0      -28.550273    3.279681    3.145655
     40          6           0      -26.812133    3.370971    1.360114
     41          6           0      -27.662853    4.125363    0.400741
     42          8           0      -28.432722    3.667256   -0.408098
     43          8           0      -27.374760    5.430148    0.421110
     44          6           0      -28.138664    6.302049   -0.552287
     45          1           0      -21.721414    1.354638   -2.815961
     46          1           0      -23.182237   -4.795206   -1.257229
     47          1           0      -27.482231   -2.594225    3.053569
     48          1           0      -25.434820    4.072719   -1.590567
     49          1           0      -22.548342    3.374981   -1.675446
     50          1           0      -22.589889    3.508987   -4.026853
     51          1           0      -24.276712    4.195945   -3.744342
     52          1           0      -23.948295    2.486879   -4.004181
     53          1           0      -23.213847    4.248272    0.474279
     54          1           0      -24.765566    5.060559    0.652859
     55          1           0      -23.360433    5.762772   -1.903801
     56          1           0      -22.562351    6.311110   -0.441080
     57          1           0      -20.678462   -1.110527   -4.774766
     58          1           0      -19.406711   -1.308579   -3.413514
     59          1           0      -20.264916    0.170835   -3.608686
     60          1           0      -19.478860   -4.889922   -4.306639
     61          1           0      -19.078973   -3.492348   -3.370361
     62          1           0      -19.995062   -3.276684   -4.887355
     63          1           0      -24.612982   -5.891978    0.518258
     64          1           0      -26.958655   -4.913524    1.779313
     65          1           0      -27.199464   -4.837492   -0.725090
     66          1           0      -26.637277   -6.528959   -0.549966
     67          1           0      -25.802686   -5.447258   -1.674072
     68          1           0      -25.205397   -4.172201    3.694888
     69          1           0      -24.051505   -4.812605    2.682329
     70          1           0      -24.353125   -6.769026    3.511898
     71          1           0      -25.927091   -6.790072    2.798024
     72          1           0      -25.800508   -6.240850    4.513227
     73          1           0      -28.283444   -0.130104    4.915638
     74          1           0      -29.170117   -1.324560    3.886182
     75          1           0      -29.561196    0.351830    3.848563
     76          1           0      -26.153545    4.057463    1.892673
     77          1           0      -28.045981    5.837614   -1.534272
     78          1           0      -27.726143    7.307085   -0.644567
     79          1           0      -29.178281    6.331470   -0.225309
     80         12           0       25.348413   -0.484318    0.135162
     81          6           0       23.955337    2.616446    0.965369
     82          6           0       25.947097    0.641535   -3.035743
     83          6           0       26.332194   -3.538598   -0.667799
     84          6           0       24.491019   -1.589967    3.424362
     85          7           0       24.932233    1.425426   -0.909564
     86          6           0       24.423791    2.597298   -0.394883
     87          6           0       24.626998    3.739816   -1.372797
     88          6           0       24.998501    2.995478   -2.715863
     89          6           0       25.402810    1.598879   -2.132086
     90          6           0       23.840506    2.898335   -3.700918
     91          6           0       25.621287    4.795751   -0.765946
     92          6           0       26.054097    5.890723   -1.780062
     93          1           0       25.053299    6.253398   -2.857473
     94          7           0       26.035601   -1.296132   -1.548058
     95          6           0       26.122913   -0.714537   -2.806608
     96          6           0       26.595991   -1.674388   -3.819558
     97          6           0       26.740952   -2.892727   -3.087219
     98          6           0       26.352791   -2.601231   -1.709715
     99          6           0       26.869758   -1.300741   -5.228162
    100          6           0       27.191794   -4.216991   -3.647604
    101          8           0       27.336539   -5.236743   -2.917905
    102          6           0       27.569162   -4.364407   -5.096720
    103          7           0       25.452888   -2.307140    1.262109
    104          6           0       25.906837   -3.402308    0.652135
    105          6           0       25.766091   -4.667188    1.608373
    106          6           0       25.114169   -4.029842    2.958829
    107          6           0       24.994715   -2.566263    2.531758
    108          6           0       24.861541   -5.746612    0.884128
    109          6           0       26.036206   -4.136933    4.247833
    110          6           0       25.920710   -5.461756    5.055144
    111          7           0       24.380703    0.252674    1.820663
    112          6           0       24.194549   -0.246201    3.136985
    113          6           0       23.561988    0.837613    4.009037
    114          6           0       23.380968    1.948333    3.191088
    115          6           0       23.974045    1.560652    1.885779
    116          6           0       23.236849    0.766958    5.468214
    117          6           0       22.943882    3.322667    3.114653
    118          8           0       22.431641    4.077010    3.947702
    119          6           0       23.467483    3.887454    1.702208
    120          6           0       22.403163    4.648934    0.945771
    121          8           0       21.603114    4.136123    0.210773
    122          8           0       22.619997    6.043132    1.025760
    123          6           0       21.972858    6.884964    0.008286
    124          1           0       26.027327    1.130118   -4.009413
    125          1           0       26.643590   -4.548491   -0.943321
    126          1           0       24.109019   -1.888519    4.402929
    127          1           0       23.671320    4.251447   -1.479556
    128          1           0       25.871579    3.382089   -3.242562
    129          1           0       24.199056    3.360241   -4.620677
    130          1           0       22.960696    3.350802   -3.243992
    131          1           0       23.666367    1.880346   -4.048634
    132          1           0       26.337165    4.147311   -0.261787
    133          1           0       25.073165    5.268448    0.048359
    134          1           0       26.967321    5.478690   -2.209518
    135          1           0       26.274517    6.799225   -1.219762
    136          1           0       26.129435   -1.887204   -5.772027
    137          1           0       27.898293   -1.492784   -5.532504
    138          1           0       26.695493   -0.274725   -5.554758
    139          1           0       28.441564   -3.744546   -5.298977
    140          1           0       26.628140   -4.034814   -5.538872
    141          1           0       27.738976   -5.379993   -5.453207
    142          1           0       26.818673   -4.923956    1.733912
    143          1           0       24.062239   -4.239152    3.157679
    144          1           0       24.485267   -5.440381   -0.091806
    145          1           0       23.990097   -5.971557    1.499600
    146          1           0       25.520645   -6.592084    0.689221
    147          1           0       25.997700   -3.236618    4.860399
    148          1           0       27.060065   -4.125924    3.875489
    149          1           0       26.927294   -5.872535    5.125141
    150          1           0       25.191060   -6.104113    4.561934
    151          1           0       25.569086   -5.291424    6.072992
    152          1           0       23.977654    1.387515    5.972882
    153          1           0       23.269211   -0.267406    5.812613
    154          1           0       22.278021    1.168071    5.795970
    155          1           0       24.323132    4.521539    1.932560
    156          1           0       20.936897    6.967895    0.335854
    157          1           0       22.152135    6.489883   -0.991854
    158          1           0       22.491087    7.843131    0.035485
 ---------------------------------------------------------------------

 SCF Done:  E(RCAM-B3LYP) =  -4069.84646771     A.U. after   17 cycles

 Excitation energies and oscillator strengths:

 Excited State   1:      Singlet-A      1.6534 eV  749.87 nm  f=0.3902  <S**2>=0.000
     309 -> 316       -0.16013
     311 -> 313        0.69080
     309 <- 316       -0.10388
 This state for optimization and/or second-order correction.
 Total Energy, E(TD-HF/TD-DFT) =  -4069.78570580
 Copying the excited state density for this state as the 1-particle RhoCI density.

 Excited State   2:      Singlet-A      1.7141 eV  723.31 nm  f=0.3844  <S**2>=0.000
     310 -> 315       -0.19945
     312 -> 314        0.68037
     310 <- 315       -0.11163

 Excited State   3:      Singlet-A      2.2510 eV  550.79 nm  f=0.1079  <S**2>=0.000
     309 -> 313        0.63838
     311 -> 316        0.28835

 Excited State   4:      Singlet-A      2.2903 eV  541.35 nm  f=0.0346  <S**2>=0.000
     310 -> 314        0.58797
     312 -> 315        0.38617

 Excited State   5:      Singlet-A      2.9046 eV  426.85 nm  f=0.0000  <S**2>=0.000
     312 -> 313        0.70711

 The electronic state is 1-A.
 Alpha  occ. eigenvalues --  -46.88080 -46.87505 -19.24919 -19.23988 -19.20311
 Alpha  occ. eigenvalues --  -19.19378 -19.19193 -19.18742 -19.18555 -19.18400
 Alpha  occ. eigenvalues --  -14.42722 -14.42160 -14.41743 -14.41568 -14.39961
 Alpha  occ. eigenvalues --  -14.39886 -14.38868 -14.38853 -10.39431 -10.38531
 Alpha  occ. eigenvalues --  -10.35544 -10.35255 -10.35215 -10.34943 -10.32294
 Alpha  occ. eigenvalues --  -10.32057 -10.31771 -10.31360 -10.30925 -10.30764
 Alpha  occ. eigenvalues --  -10.30620 -10.30567 -10.30375 -10.30366 -10.30324
 Alpha  occ. eigenvalues --  -10.30122 -10.30012 -10.29630 -10.29564 -10.29486
 Alpha  occ. eigenvalues --  -10.29473 -10.29269 -10.29235 -10.29114 -10.28995
 Alpha  occ. eigenvalues --  -10.28983 -10.28603 -10.28552 -10.28482 -10.28306
 Alpha  occ. eigenvalues --  -10.28200 -10.28149 -10.28099 -10.28060 -10.27790
 Alpha  occ. eigenvalues --  -10.27760 -10.27748 -10.27717 -10.27621 -10.27584
 Alpha  occ. eigenvalues --  -10.27458 -10.27371 -10.27370 -10.27171 -10.27120
 Alpha  occ. eigenvalues --  -10.26913 -10.26766 -10.26673 -10.26628 -10.26534
 Alpha  occ. eigenvalues --  -10.26450 -10.26443 -10.26354 -10.26230 -10.26168
 Alpha  occ. eigenvalues --  -10.25996 -10.25835 -10.25775 -10.25740 -10.25579
 Alpha  occ. eigenvalues --  -10.25577 -10.25529 -10.25406 -10.25160 -10.25102
 Alpha  occ. eigenvalues --  -10.25019  -3.16762  -3.16285  -1.91667  -1.91203
 Alpha  occ. eigenvalues --   -1.91187  -1.91093  -1.90756  -1.90584  -1.16914
 Alpha  occ. eigenvalues --   -1.15487  -1.10441  -1.09125  -1.08281  -1.07814
 Alpha  occ. eigenvalues --   -1.07786  -1.07144  -1.05443  -1.04338  -1.03925
 Alpha  occ. eigenvalues --   -1.03476  -1.03103  -1.02807  -1.01963  -1.01385
 Alpha  occ. eigenvalues --   -0.93337  -0.91616  -0.89085  -0.88923  -0.88782
 Alpha  occ. eigenvalues --   -0.88665  -0.88586  -0.87909  -0.87837  -0.87573
 Alpha  occ. eigenvalues --   -0.87175  -0.86735  -0.86571  -0.86331  -0.84330
 Alpha  occ. eigenvalues --   -0.84257  -0.83972  -0.82947  -0.82532  -0.82200
 Alpha  occ. eigenvalues --   -0.81939  -0.81584  -0.81217  -0.80765  -0.80639
 Alpha  occ. eigenvalues --   -0.80011  -0.78972  -0.78389  -0.77559  -0.77427
 Alpha  occ. eigenvalues --   -0.77220  -0.76986  -0.76214  -0.75772  -0.75205
 Alpha  occ. eigenvalues --   -0.74553  -0.73223  -0.72076  -0.71813  -0.71479
 Alpha  occ. eigenvalues --   -0.69449  -0.69420  -0.68960  -0.68623  -0.68320
 Alpha  occ. eigenvalues --   -0.68285  -0.67073  -0.66085  -0.65803  -0.65519
 Alpha  occ. eigenvalues --   -0.65138  -0.64957  -0.64626  -0.64189  -0.63953
 Alpha  occ. eigenvalues --   -0.63774  -0.62087  -0.61275  -0.60645  -0.60255
 Alpha  occ. eigenvalues --   -0.59995  -0.59503  -0.59120  -0.58884  -0.58705
 Alpha  occ. eigenvalues --   -0.58329  -0.58022  -0.57806  -0.57521  -0.56782
 Alpha  occ. eigenvalues --   -0.56554  -0.56160  -0.56086  -0.55957  -0.55027
 Alpha  occ. eigenvalues --   -0.54759  -0.54530  -0.54251  -0.54248  -0.53963
 Alpha  occ. eigenvalues --   -0.53690  -0.53468  -0.53354  -0.53254  -0.52940
 Alpha  occ. eigenvalues --   -0.52718  -0.52519  -0.52290  -0.52218  -0.51909
 Alpha  occ. eigenvalues --   -0.51767  -0.51756  -0.51672  -0.51447  -0.51330
 Alpha  occ. eigenvalues --   -0.51165  -0.50840  -0.50490  -0.50375  -0.50254
 Alpha  occ. eigenvalues --   -0.50071  -0.49988  -0.49906  -0.49736  -0.49543
 Alpha  occ. eigenvalues --   -0.49436  -0.49329  -0.49277  -0.49012  -0.48948
 Alpha  occ. eigenvalues --   -0.48890  -0.48764  -0.48512  -0.48264  -0.48115
 Alpha  occ. eigenvalues --   -0.48086  -0.48062  -0.47744  -0.47504  -0.47393
 Alpha  occ. eigenvalues --   -0.47124  -0.46930  -0.46885  -0.46523  -0.46459
 Alpha  occ. eigenvalues --   -0.46188  -0.46083  -0.46036  -0.45857  -0.45739
 Alpha  occ. eigenvalues --   -0.45602  -0.45502  -0.45277  -0.45214  -0.45168
 Alpha  occ. eigenvalues --   -0.44863  -0.44698  -0.44657  -0.44230  -0.44185
 Alpha  occ. eigenvalues --   -0.43999  -0.43755  -0.43717  -0.43559  -0.43475
 Alpha  occ. eigenvalues --   -0.43339  -0.43129  -0.43078  -0.42902  -0.42850
 Alpha  occ. eigenvalues --   -0.42558  -0.42348  -0.42108  -0.42008  -0.41811
 Alpha  occ. eigenvalues --   -0.41629  -0.41556  -0.41522  -0.41292  -0.41127
 Alpha  occ. eigenvalues --   -0.40917  -0.40881  -0.40642  -0.40415  -0.40338
 Alpha  occ. eigenvalues --   -0.40193  -0.40046  -0.39825  -0.39233  -0.39081
 Alpha  occ. eigenvalues --   -0.38506  -0.38441  -0.38227  -0.38064  -0.37994
 Alpha  occ. eigenvalues --   -0.37480  -0.36937  -0.36667  -0.36658  -0.36570
 Alpha  occ. eigenvalues --   -0.36282  -0.35900  -0.34544  -0.34220  -0.34151
 Alpha  occ. eigenvalues --   -0.34012  -0.33280  -0.33183  -0.31463  -0.31321
 Alpha  occ. eigenvalues --   -0.31248  -0.30937  -0.30653  -0.30519  -0.30496
 Alpha  occ. eigenvalues --   -0.30479  -0.30036  -0.29099  -0.24610  -0.23991
 Alpha  occ. eigenvalues --   -0.21118  -0.20434
 Alpha virt. eigenvalues --   -0.09072  -0.07893  -0.02145  -0.01548  -0.00218
 Alpha virt. eigenvalues --    0.00405   0.02164   0.02356   0.03253   0.03412
 Alpha virt. eigenvalues --    0.04482   0.04656   0.04948   0.05361   0.05870

 Mulliken charges:
               1
     1  Mg   0.828533
     2  C    0.007433
     3  C   -0.059520
     4  C   -0.069223
     5  C   -0.093603
     6  N   -0.267915
     7  C   -0.051173
     8  C    0.020241
     9  C   -0.103975
    10  C    0.038335
    11  C    0.063725
    12  C    0.034960
    13  C   -0.056568
    14  H    0.031800
    15  N   -0.358585
    16  C    0.139220
    17  C   -0.203018
    18  C   -0.035938
    19  C    0.110414
    20  C    0.139555
    21  C    0.019208
    22  O   -0.225616
    23  C    0.056035
    24  N   -0.391535
    25  C    0.083631
    26  C   -0.019355
    27  C   -0.020639
    28  C    0.118484
    29  C    0.088226
    30  C   -0.004944
    31  C    0.053337
    32  N   -0.339579
    33  C    0.089641
    34  C   -0.168131
    35  C    0.069277
    36  C    0.103922
    37  C    0.107993
    38  C    0.017657
    39  O   -0.153786
    40  C   -0.052424
    41  C    0.180646
    42  O   -0.217059
    43  O   -0.331555
    44  C    0.179206
    45  H   -0.027500
    46  H   -0.006593
    47  H   -0.026950
    48  H    0.017569
    49  H    0.009472
    50  H    0.020291
    51  H    0.021738
    52  H    0.015385
    53  H    0.010981
    54  H    0.033012
    55  H    0.030009
    56  H    0.029343
    57  H    0.042909
    58  H    0.027721
    59  H    0.001106
    60  H    0.024412
    61  H    0.024873
    62  H    0.039973
    63  H    0.000241
    64  H   -0.003830
    65  H    0.020442
    66  H    0.019230
    67  H    0.019154
    68  H   -0.002517
    69  H   -0.003862
    70  H    0.012717
    71  H   -0.002494
    72  H    0.028755
    73  H    0.038347
    74  H    0.023660
    75  H    0.027410
    76  H    0.043199
    77  H    0.041473
    78  H    0.041637
    79  H    0.051355
    80  Mg   0.842082
    81  C   -0.020606
    82  C   -0.090072
    83  C   -0.079621
    84  C   -0.078347
    85  N   -0.250705
    86  C   -0.044681
    87  C   -0.012993
    88  C   -0.082154
    89  C   -0.014504
    90  C    0.091557
    91  C    0.015930
    92  C   -0.044468
    93  H    0.032140
    94  N   -0.411436
    95  C    0.200964
    96  C   -0.144011
    97  C   -0.033954
    98  C    0.153133
    99  C    0.122188
   100  C   -0.007218
   101  O   -0.241916
   102  C    0.080574
   103  N   -0.275394
   104  C    0.019562
   105  C   -0.035733
   106  C    0.002842
   107  C    0.012051
   108  C    0.060820
   109  C    0.002609
   110  C    0.023785
   111  N   -0.368244
   112  C    0.111836
   113  C   -0.177374
   114  C    0.032693
   115  C    0.112099
   116  C    0.110966
   117  C    0.072014
   118  O   -0.179451
   119  C   -0.071623
   120  C    0.225339
   121  O   -0.190699
   122  O   -0.375625
   123  C    0.183811
   124  H   -0.034859
   125  H   -0.005880
   126  H   -0.023966
   127  H    0.008520
   128  H    0.003681
   129  H    0.006443
   130  H    0.036696
   131  H    0.014641
   132  H    0.016684
   133  H    0.015043
   134  H    0.036680
   135  H    0.035926
   136  H    0.032161
   137  H    0.035707
   138  H    0.012025
   139  H    0.044602
   140  H    0.019925
   141  H    0.028114
   142  H    0.024707
   143  H    0.018529
   144  H    0.031721
   145  H    0.016256
   146  H    0.027680
   147  H    0.011363
   148  H   -0.004931
   149  H    0.019987
   150  H    0.018630
   151  H    0.014663
   152  H    0.037882
   153  H    0.005624
   154  H    0.037450
   155  H    0.063013
   156  H    0.049860
   157  H    0.033277
   158  H    0.033980
 Sum of Mulliken charges =  -0.00000

 Dipole moment (field-independent basis, Debye):
    X=              6.4502    Y=              2.0648    Z=             -4.1222  Tot=              7.9285
 Quadrupole moment (field-independent basis, Debye-Ang):
   XX=           -551.2914   YY=           -510.5158   ZZ=           -487.8080
   XY=             12.2500   XZ=            -65.3906   YZ=            -56.1278

 Normal termination of Gaussian 16 at Thu Sep  2 09:53:39 2021.
