 Gaussian 16, Revision A.03,
 Gaussian 16:  ES64L-G16RevA.03 25-Dec-2016

 -----------------------------------
 #p cam-b3lyp/Def2SVP td=(nstates=5)
 -----------------------------------

 --------------------------------
 TDDFT excited states in gaussian
 --------------------------------
 Symbolic Z-matrix:
 Charge =  0 Multiplicity = 1

                         Standard orientation:
 ---------------------------------------------------------------------
 Center     Atomic      Atomic             Coordinates (Angstroms)
 Number     Number       Type             X           Y           Z
 ---------------------------------------------------------------------
      1         12           0       28.746041    0.210052   -0.476744
      2          6           0       26.847748   -1.897264    1.660991
      3          6           0       28.516454    2.620949    2.101410
      4          6           0       30.165002    2.373977   -2.463781
      5          6           0       28.568326   -2.228660   -2.950140
      6          7           0       27.762628    0.352133    1.681093
      7          6           0       27.148077   -0.704920    2.306440
      8          6           0       26.789130   -0.416720    3.754344
      9          6           0       27.232535    1.107664    3.816718
     10          6           0       27.917545    1.385362    2.469752
     11          6           0       26.060011    2.002707    4.206976
     12          6           0       27.588922   -1.330473    4.708761
     13          6           0       26.887360   -1.846535    6.022539
     14          1           0       25.653630   -1.071548    6.542267
     15          7           0       29.346203    2.207163   -0.202638
     16          6           0       29.084100    3.027042    0.895364
     17          6           0       29.674385    4.348377    0.628998
     18          6           0       30.251459    4.250139   -0.679068
     19          6           0       29.952975    2.876640   -1.127874
     20          6           0       29.556256    5.460231    1.528061
     21          6           0       30.996967    5.319629   -1.471005
     22          8           0       31.356847    5.114777   -2.641164
     23          6           0       31.465080    6.558089   -0.813431
     24          7           0       29.198681    0.125206   -2.468539
     25          6           0       29.880100    1.121908   -3.039632
     26          6           0       30.151468    0.824080   -4.550107
     27          6           0       29.817093   -0.699359   -4.629229
     28          6           0       29.147062   -0.981628   -3.321143
     29          6           0       29.369806    1.756469   -5.544147
     30          6           0       31.214089   -1.423504   -4.725301
     31          6           0       31.927829   -1.941159   -3.429161
     32          7           0       27.996677   -1.707956   -0.629080
     33          6           0       27.993913   -2.578314   -1.734149
     34          6           0       27.240150   -3.800842   -1.360465
     35          6           0       26.749650   -3.528590   -0.088730
     36          6           0       27.218379   -2.312373    0.361054
     37          6           0       26.900961   -4.790461   -2.368447
     38          6           0       25.825986   -4.062861    0.908990
     39          8           0       25.161934   -5.091366    0.846444
     40          6           0       25.821237   -3.001446    2.106987
     41          6           0       24.453536   -2.488900    2.364705
     42          8           0       23.962828   -1.465574    1.896592
     43          8           0       23.799290   -3.358379    3.257819
     44          6           0       22.424301   -3.145396    3.649435
     45          1           0       28.707664    3.322131    2.916903
     46          1           0       30.658155    3.041457   -3.174049
     47          1           0       28.619161   -2.929110   -3.785996
     48          1           0       25.724020   -0.535442    3.954886
     49          1           0       27.898059    1.187728    4.675800
     50          1           0       26.233213    2.633396    5.078241
     51          1           0       25.109653    1.499503    4.385201
     52          1           0       25.937746    2.719458    3.393842
     53          1           0       28.519246   -0.851865    5.014355
     54          1           0       27.838694   -2.148389    4.032052
     55          1           0       27.571544   -1.779275    6.867733
     56          1           0       26.804330   -2.925492    5.892011
     57          1           0       30.569504    5.828119    1.690865
     58          1           0       28.909679    5.214420    2.369896
     59          1           0       28.929004    6.121873    0.929829
     60          1           0       30.662062    7.258034   -0.580509
     61          1           0       32.135567    7.092407   -1.486251
     62          1           0       31.864117    6.281707    0.162096
     63          1           0       31.211020    1.079509   -4.566243
     64          1           0       29.247355   -0.944373   -5.525945
     65          1           0       30.008378    2.580523   -5.862640
     66          1           0       28.445625    2.041663   -5.042539
     67          1           0       29.118885    1.131874   -6.401318
     68          1           0       31.861609   -0.865239   -5.401734
     69          1           0       30.951774   -2.398666   -5.136683
     70          1           0       32.964492   -1.641148   -3.579440
     71          1           0       31.901624   -3.027276   -3.332073
     72          1           0       31.600612   -1.496300   -2.490034
     73          1           0       26.484510   -4.274814   -3.232827
     74          1           0       26.117976   -5.414143   -1.935915
     75          1           0       27.725972   -5.483855   -2.529471
     76          1           0       26.150505   -3.591891    2.962569
     77          1           0       21.712593   -3.727277    3.064289
     78          1           0       22.215497   -2.087416    3.808832
     79          1           0       22.456630   -3.486675    4.684520
     80         12           0      -28.629920    0.385958    0.206636
     81          6           0      -26.154716   -2.031222   -0.145524
     82          6           0      -26.141285    2.657247    1.026159
     83          6           0      -30.783615    2.887827    0.040929
     84          6           0      -30.943640   -1.830367   -1.102231
     85          7           0      -26.407915    0.370900    0.259243
     86          6           0      -25.621481   -0.762060    0.216615
     87          6           0      -24.192395   -0.493201    0.585034
     88          6           0      -24.310182    0.916877    1.315171
     89          6           0      -25.673028    1.387383    0.824733
     90          6           0      -23.988634    1.096693    2.874456
     91          6           0      -23.147001   -0.573341   -0.621921
     92          6           0      -23.642135   -0.155158   -2.038398
     93          1           0      -22.647045    0.660730   -2.828158
     94          7           0      -28.472319    2.511375    0.377771
     95          6           0      -27.341467    3.253755    0.740078
     96          6           0      -27.612149    4.665243    0.731638
     97          6           0      -28.987949    4.773943    0.417884
     98          6           0      -29.496904    3.382584    0.230695
     99          6           0      -26.580969    5.651364    1.282698
    100          6           0      -29.702625    6.143013    0.354514
    101          8           0      -29.090265    7.208560    0.478565
    102          6           0      -31.163957    6.099398    0.194074
    103          7           0      -30.545124    0.473464   -0.566517
    104          6           0      -31.307899    1.584722   -0.249087
    105          6           0      -32.809347    1.392796   -0.556539
    106          6           0      -32.735684   -0.076383   -1.143286
    107          6           0      -31.342329   -0.496074   -0.983812
    108          6           0      -33.809924    1.533863    0.546813
    109          6           0      -33.138461   -0.150915   -2.702338
    110          6           0      -34.090529   -1.288968   -2.962884
    111          7           0      -28.660849   -1.629045   -0.323524
    112          6           0      -29.686709   -2.395918   -0.844118
    113          6           0      -29.202052   -3.768624   -1.115406
    114          6           0      -27.792717   -3.669207   -0.845785
    115          6           0      -27.548719   -2.369912   -0.385791
    116          6           0      -29.861577   -4.900161   -1.793271
    117          6           0      -26.472232   -4.332228   -0.895651
    118          8           0      -26.180142   -5.427718   -1.316332
    119          6           0      -25.382778   -3.322154   -0.411219
    120          6           0      -24.635488   -3.882496    0.715318
    121          8           0      -23.438797   -4.154578    0.814902
    122          8           0      -25.595004   -4.356711    1.647877
    123          6           0      -25.040886   -4.915510    2.899678
    124          1           0      -25.378929    3.264730    1.519375
    125          1           0      -31.617453    3.585532    0.141615
    126          1           0      -31.764073   -2.468412   -1.435478
    127          1           0      -23.832930   -1.252159    1.279832
    128          1           0      -23.555130    1.481998    0.768117
    129          1           0      -23.594442    0.216636    3.382292
    130          1           0      -24.862837    1.340353    3.478054
    131          1           0      -23.151933    1.786199    2.990076
    132          1           0      -22.682853   -1.558235   -0.661574
    133          1           0      -22.314671    0.071527   -0.340113
    134          1           0      -24.587901    0.383539   -1.972324
    135          1           0      -23.836456   -1.044089   -2.637884
    136          1           0      -26.612517    6.632539    0.807935
    137          1           0      -25.580339    5.289711    1.047405
    138          1           0      -26.811813    5.757349    2.342951
    139          1           0      -31.601853    5.722504    1.117877
    140          1           0      -31.421256    5.487185   -0.670842
    141          1           0      -31.459904    7.136931    0.039285
    142          1           0      -33.042596    2.004852   -1.428106
    143          1           0      -33.294803   -0.649681   -0.403842
    144          1           0      -34.748770    1.152489    0.144950
    145          1           0      -33.974483    2.601544    0.692126
    146          1           0      -33.458727    1.030201    1.448197
    147          1           0      -32.203602   -0.237935   -3.255870
    148          1           0      -33.535739    0.757646   -3.156639
    149          1           0      -33.557846   -2.042407   -3.542630
    150          1           0      -34.864737   -1.025771   -3.684366
    151          1           0      -34.362145   -1.765965   -2.021405
    152          1           0      -30.889903   -4.728107   -2.114605
    153          1           0      -29.910468   -5.700273   -1.055487
    154          1           0      -29.273915   -4.945433   -2.709950
    155          1           0      -24.741890   -3.176897   -1.280538
    156          1           0      -25.681943   -4.455950    3.652847
    157          1           0      -24.003426   -4.739261    3.183919
    158          1           0      -25.372173   -5.954112    2.899828
 ---------------------------------------------------------------------

 SCF Done:  E(RCAM-B3LYP) =  -4069.80878177     A.U. after   19 cycles

 Excitation energies and oscillator strengths:

 Excited State   1:      Singlet-A      1.7179 eV  721.74 nm  f=0.3674  <S**2>=0.000
     309 -> 315       -0.18175
     311 -> 313        0.68359
     309 <- 315       -0.10499
 This state for optimization and/or second-order correction.
 Total Energy, E(TD-HF/TD-DFT) =  -4069.74565158
 Copying the excited state density for this state as the 1-particle RhoCI density.

 Excited State   2:      Singlet-A      1.7491 eV  708.83 nm  f=0.3774  <S**2>=0.000
     310 -> 316       -0.18984
     312 -> 314        0.68131
     310 <- 316       -0.10804

 Excited State   3:      Singlet-A      2.2043 eV  562.48 nm  f=0.0884  <S**2>=0.000
     309 -> 313        0.62966
     311 -> 315        0.30514

 Excited State   4:      Singlet-A      2.2728 eV  545.50 nm  f=0.0723  <S**2>=0.000
     310 -> 314        0.62313
     312 -> 316        0.32197

 Excited State   5:      Singlet-A      3.1259 eV  396.63 nm  f=0.0000  <S**2>=0.000
     312 -> 313        0.70711

 The electronic state is 1-A.
 Alpha  occ. eigenvalues --  -46.89105 -46.88488 -19.24341 -19.23962 -19.20537
 Alpha  occ. eigenvalues --  -19.19865 -19.19301 -19.19025 -19.18820 -19.18719
 Alpha  occ. eigenvalues --  -14.42235 -14.42206 -14.42107 -14.41267 -14.39667
 Alpha  occ. eigenvalues --  -14.39644 -14.39184 -14.38900 -10.39731 -10.39464
 Alpha  occ. eigenvalues --  -10.35357 -10.35269 -10.35117 -10.35106 -10.31623
 Alpha  occ. eigenvalues --  -10.31297 -10.31182 -10.31166 -10.30990 -10.30752
 Alpha  occ. eigenvalues --  -10.30679 -10.30633 -10.30434 -10.30371 -10.30297
 Alpha  occ. eigenvalues --  -10.30198 -10.30193 -10.30079 -10.29353 -10.29217
 Alpha  occ. eigenvalues --  -10.29170 -10.29011 -10.28958 -10.28854 -10.28677
 Alpha  occ. eigenvalues --  -10.28541 -10.28427 -10.28412 -10.28340 -10.28218
 Alpha  occ. eigenvalues --  -10.28206 -10.28160 -10.28075 -10.28023 -10.27672
 Alpha  occ. eigenvalues --  -10.27565 -10.27536 -10.27429 -10.27376 -10.27299
 Alpha  occ. eigenvalues --  -10.27264 -10.27222 -10.27162 -10.27137 -10.27127
 Alpha  occ. eigenvalues --  -10.27123 -10.27024 -10.26967 -10.26905 -10.26793
 Alpha  occ. eigenvalues --  -10.26729 -10.26489 -10.26412 -10.26353 -10.26216
 Alpha  occ. eigenvalues --  -10.26055 -10.26022 -10.25961 -10.25753 -10.25734
 Alpha  occ. eigenvalues --  -10.25386 -10.25321 -10.25293 -10.25262 -10.25076
 Alpha  occ. eigenvalues --  -10.24678  -3.17630  -3.17031  -1.92514  -1.92101
 Alpha  occ. eigenvalues --   -1.91938  -1.91924  -1.91498  -1.91319  -1.14817
 Alpha  occ. eigenvalues --   -1.14636  -1.10360  -1.09640  -1.09373  -1.09187
 Alpha  occ. eigenvalues --   -1.07228  -1.06899  -1.05072  -1.04741  -1.04023
 Alpha  occ. eigenvalues --   -1.03717  -1.03184  -1.03075  -1.02343  -1.01356
 Alpha  occ. eigenvalues --   -0.92463  -0.91961  -0.89864  -0.89656  -0.89221
 Alpha  occ. eigenvalues --   -0.88640  -0.88367  -0.87985  -0.87668  -0.87315
 Alpha  occ. eigenvalues --   -0.86879  -0.86717  -0.86185  -0.86165  -0.84832
 Alpha  occ. eigenvalues --   -0.84455  -0.84113  -0.83280  -0.82721  -0.82625
 Alpha  occ. eigenvalues --   -0.82385  -0.81974  -0.80843  -0.80812  -0.80420
 Alpha  occ. eigenvalues --   -0.80151  -0.78926  -0.78320  -0.77502  -0.77085
 Alpha  occ. eigenvalues --   -0.76846  -0.76835  -0.76216  -0.75766  -0.75748
 Alpha  occ. eigenvalues --   -0.74759  -0.72644  -0.72139  -0.72106  -0.71282
 Alpha  occ. eigenvalues --   -0.69425  -0.69363  -0.69215  -0.68890  -0.68088
 Alpha  occ. eigenvalues --   -0.67819  -0.66828  -0.66686  -0.66413  -0.64982
 Alpha  occ. eigenvalues --   -0.64902  -0.64659  -0.64508  -0.64439  -0.64163
 Alpha  occ. eigenvalues --   -0.63999  -0.62542  -0.61512  -0.60308  -0.60277
 Alpha  occ. eigenvalues --   -0.59378  -0.59342  -0.59022  -0.58942  -0.58286
 Alpha  occ. eigenvalues --   -0.58040  -0.57852  -0.57527  -0.57250  -0.57144
 Alpha  occ. eigenvalues --   -0.56324  -0.56256  -0.55824  -0.55469  -0.55349
 Alpha  occ. eigenvalues --   -0.55308  -0.55099  -0.54609  -0.54255  -0.53935
 Alpha  occ. eigenvalues --   -0.53890  -0.53828  -0.53302  -0.53130  -0.52907
 Alpha  occ. eigenvalues --   -0.52745  -0.52715  -0.52625  -0.52304  -0.52175
 Alpha  occ. eigenvalues --   -0.51982  -0.51787  -0.51616  -0.51477  -0.51283
 Alpha  occ. eigenvalues --   -0.51110  -0.50850  -0.50741  -0.50584  -0.50472
 Alpha  occ. eigenvalues --   -0.50277  -0.49881  -0.49761  -0.49633  -0.49552
 Alpha  occ. eigenvalues --   -0.49536  -0.49271  -0.49002  -0.48884  -0.48822
 Alpha  occ. eigenvalues --   -0.48563  -0.48502  -0.48363  -0.48298  -0.48171
 Alpha  occ. eigenvalues --   -0.48057  -0.47739  -0.47571  -0.47338  -0.47252
 Alpha  occ. eigenvalues --   -0.46927  -0.46916  -0.46655  -0.46502  -0.46273
 Alpha  occ. eigenvalues --   -0.46208  -0.46081  -0.45970  -0.45730  -0.45387
 Alpha  occ. eigenvalues --   -0.45368  -0.45120  -0.44995  -0.44991  -0.44976
 Alpha  occ. eigenvalues --   -0.44691  -0.44646  -0.44590  -0.44230  -0.44209
 Alpha  occ. eigenvalues --   -0.44025  -0.43927  -0.43907  -0.43640  -0.43420
 Alpha  occ. eigenvalues --   -0.43395  -0.43292  -0.43220  -0.43109  -0.42934
 Alpha  occ. eigenvalues --   -0.42749  -0.42530  -0.42479  -0.42131  -0.41963
 Alpha  occ. eigenvalues --   -0.41927  -0.41710  -0.41684  -0.41670  -0.41279
 Alpha  occ. eigenvalues --   -0.41222  -0.40997  -0.40640  -0.40458  -0.40321
 Alpha  occ. eigenvalues --   -0.39993  -0.39829  -0.39348  -0.39104  -0.38554
 Alpha  occ. eigenvalues --   -0.38510  -0.37976  -0.37725  -0.37433  -0.37400
 Alpha  occ. eigenvalues --   -0.37088  -0.36896  -0.36611  -0.36559  -0.36097
 Alpha  occ. eigenvalues --   -0.35658  -0.35654  -0.35154  -0.34798  -0.34151
 Alpha  occ. eigenvalues --   -0.34012  -0.33320  -0.33270  -0.31273  -0.31206
 Alpha  occ. eigenvalues --   -0.31173  -0.30937  -0.30812  -0.30799  -0.30131
 Alpha  occ. eigenvalues --   -0.29958  -0.29656  -0.29319  -0.24096  -0.23856
 Alpha  occ. eigenvalues --   -0.21215  -0.20759
 Alpha virt. eigenvalues --   -0.08666  -0.08119  -0.02247  -0.01681   0.00261
 Alpha virt. eigenvalues --    0.00632   0.01713   0.02208   0.02528   0.03353
 Alpha virt. eigenvalues --    0.04086   0.04853   0.04950   0.05112   0.05756

 Mulliken charges:
               1
     1  Mg   0.821076
     2  C    0.030444
     3  C   -0.107819
     4  C   -0.061732
     5  C   -0.079823
     6  N   -0.200748
     7  C   -0.088538
     8  C   -0.039362
     9  C   -0.030700
    10  C    0.038622
    11  C    0.062997
    12  C    0.035478
    13  C   -0.045782
    14  H    0.027979
    15  N   -0.333884
    16  C    0.142457
    17  C   -0.171143
    18  C   -0.048868
    19  C    0.118330
    20  C    0.141182
    21  C    0.013175
    22  O   -0.220260
    23  C    0.057288
    24  N   -0.336867
    25  C    0.016403
    26  C   -0.060066
    27  C    0.004145
    28  C    0.025628
    29  C    0.091680
    30  C   -0.015101
    31  C    0.015171
    32  N   -0.395340
    33  C    0.152197
    34  C   -0.185235
    35  C    0.030599
    36  C    0.122614
    37  C    0.129679
    38  C    0.041165
    39  O   -0.160932
    40  C   -0.039275
    41  C    0.232539
    42  O   -0.216959
    43  O   -0.361704
    44  C    0.186986
    45  H   -0.014580
    46  H   -0.010698
    47  H   -0.032460
    48  H    0.024581
    49  H    0.002103
    50  H    0.002996
    51  H    0.024010
    52  H    0.005982
    53  H    0.006709
    54  H    0.011621
    55  H    0.020917
    56  H    0.030081
    57  H    0.040051
    58  H    0.014428
    59  H    0.038058
    60  H    0.028240
    61  H    0.036993
    62  H    0.029774
    63  H    0.014461
    64  H    0.008531
    65  H    0.034312
    66  H    0.027509
    67  H    0.007527
    68  H    0.020648
    69  H    0.002248
    70  H    0.010449
    71  H    0.021418
    72  H    0.027514
    73  H    0.036516
    74  H    0.019146
    75  H    0.021702
    76  H    0.045234
    77  H    0.053700
    78  H    0.030221
    79  H    0.022364
    80  Mg   0.819806
    81  C   -0.024966
    82  C   -0.097604
    83  C   -0.086994
    84  C   -0.094177
    85  N   -0.283877
    86  C   -0.030051
    87  C   -0.040817
    88  C    0.001984
    89  C    0.000851
    90  C    0.064166
    91  C    0.029201
    92  C   -0.076365
    93  H    0.023204
    94  N   -0.359622
    95  C    0.167022
    96  C   -0.136598
    97  C   -0.064268
    98  C    0.184923
    99  C    0.126753
   100  C    0.000333
   101  O   -0.204526
   102  C    0.054788
   103  N   -0.295304
   104  C   -0.001581
   105  C   -0.034005
   106  C   -0.063443
   107  C    0.012398
   108  C    0.107194
   109  C    0.036503
   110  C    0.030423
   111  N   -0.342665
   112  C    0.151458
   113  C   -0.189586
   114  C   -0.004847
   115  C    0.088727
   116  C    0.130650
   117  C    0.030290
   118  O   -0.149170
   119  C    0.028497
   120  C    0.222586
   121  O   -0.208317
   122  O   -0.379727
   123  C    0.180159
   124  H   -0.029643
   125  H   -0.042318
   126  H   -0.043969
   127  H    0.010510
   128  H    0.006344
   129  H    0.011238
   130  H    0.026793
   131  H    0.022148
   132  H    0.028668
   133  H    0.010455
   134  H    0.047600
   135  H    0.030616
   136  H    0.035823
   137  H    0.016227
   138  H    0.041128
   139  H    0.048730
   140  H    0.044990
   141  H    0.024314
   142  H    0.004673
   143  H    0.008066
   144  H    0.019791
   145  H    0.014482
   146  H    0.025109
   147  H    0.015651
   148  H    0.007061
   149  H    0.005825
   150  H    0.014912
   151  H    0.023374
   152  H   -0.003578
   153  H    0.043721
   154  H    0.053195
   155  H    0.038613
   156  H    0.018947
   157  H    0.058645
   158  H    0.038451
 Sum of Mulliken charges =  -0.00000

 Dipole moment (field-independent basis, Debye):
    X=             -2.5798    Y=              3.8995    Z=              5.2156  Tot=              7.0046
 Quadrupole moment (field-independent basis, Debye-Ang):
   XX=            -96.2948   YY=           -570.2757   ZZ=           -474.3237
   XY=             56.9531   XZ=             13.5838   YZ=              9.4806

 Normal termination of Gaussian 16 at Wed Sep 15 06:54:16 2021.
