 Gaussian 16, Revision A.03,
 Gaussian 16:  ES64L-G16RevA.03 25-Dec-2016

 ----------------------------------------------------------
 #p cam-b3lyp/Def2SVP td=(nstates=5) density=(transition=1)
 ----------------------------------------------------------

 --------------------------------
 TDDFT excited states in gaussian
 --------------------------------
 Symbolic Z-matrix:
 Charge =  0 Multiplicity = 1

                         Standard orientation:
 ---------------------------------------------------------------------
 Center     Atomic      Atomic             Coordinates (Angstroms)
 Number     Number       Type             X           Y           Z
 ---------------------------------------------------------------------
      1         12           0       20.842979    0.227546    0.292298
      2          6           0       17.864421   -1.444505    0.340306
      3          6           0       22.411837   -2.899716   -0.356963
      4          6           0       23.746879    1.886379   -0.156642
      5          6           0       19.113818    3.238057    0.002539
      6          7           0       20.110715   -1.955798   -0.361636
      7          6           0       18.867433   -2.390294   -0.012094
      8          6           0       18.744288   -3.862315   -0.293051
      9          6           0       20.238171   -4.340978   -0.555235
     10          6           0       21.034903   -3.005574   -0.413448
     11          6           0       20.633547   -5.637880    0.050773
     12          6           0       17.673024   -4.382718   -1.364012
     13          6           0       17.348812   -3.496799   -2.530203
     14          1           0       17.363352   -4.137756   -3.910875
     15          7           0       22.819257   -0.446998    0.049876
     16          6           0       23.258337   -1.716667   -0.164380
     17          6           0       24.680031   -1.774264   -0.334948
     18          6           0       25.111996   -0.359557   -0.157982
     19          6           0       23.868389    0.436843   -0.071780
     20          6           0       25.520608   -2.936548   -0.572653
     21          6           0       26.523421    0.204863   -0.082732
     22          8           0       27.455823   -0.477677   -0.320359
     23          6           0       26.900932    1.636397    0.179981
     24          7           0       21.330094    2.217782   -0.154443
     25          6           0       22.599810    2.648510   -0.103029
     26          6           0       22.688905    4.213977   -0.500980
     27          6           0       21.207743    4.652041   -0.060845
     28          6           0       20.521607    3.308530   -0.129955
     29          6           0       23.794355    5.016388    0.190975
     30          6           0       20.645623    5.800966   -0.917366
     31          6           0       19.982496    7.017291   -0.260364
     32          7           0       18.881510    0.798175    0.079383
     33          6           0       18.286735    2.051945    0.011721
     34          6           0       16.881521    1.966292    0.109806
     35          6           0       16.624002    0.618323    0.297486
     36          6           0       17.883815   -0.078534    0.273554
     37          6           0       15.889787    3.088304    0.103744
     38          6           0       15.689343   -0.398006    0.549220
     39          8           0       14.470672   -0.276991    0.656338
     40          6           0       16.393691   -1.778428    0.418110
     41          6           0       15.973496   -2.501685    1.689190
     42          8           0       15.461865   -3.641216    1.710977
     43          8           0       16.392166   -1.740019    2.754633
     44          6           0       16.370504   -2.252862    4.146395
     45          1           0       22.813619   -3.863407   -0.676652
     46          1           0       24.646579    2.400339   -0.501025
     47          1           0       18.583443    4.192019   -0.017348
     48          1           0       18.343786   -4.348961    0.597014
     49          1           0       20.311720   -4.509008   -1.629304
     50          1           0       21.581078   -5.594981    0.587712
     51          1           0       20.585407   -6.459214   -0.664223
     52          1           0       19.921030   -5.900342    0.832837
     53          1           0       16.684247   -4.582237   -0.950795
     54          1           0       18.068409   -5.263375   -1.871153
     55          1           0       17.844147   -2.526492   -2.518425
     56          1           0       16.282948   -3.274810   -2.468208
     57          1           0       25.062596   -3.802310   -0.095363
     58          1           0       26.541126   -2.830501   -0.206624
     59          1           0       25.548139   -3.085503   -1.652679
     60          1           0       26.049728    1.841325    0.829694
     61          1           0       26.867503    2.255883   -0.715700
     62          1           0       27.858602    1.817763    0.668186
     63          1           0       22.739569    4.237296   -1.589976
     64          1           0       21.039561    4.963046    0.969923
     65          1           0       23.308586    5.638649    0.943083
     66          1           0       24.441582    5.486514   -0.548844
     67          1           0       24.496926    4.391386    0.741414
     68          1           0       19.916188    5.354066   -1.593397
     69          1           0       21.433680    6.124151   -1.597693
     70          1           0       20.295118    8.014152   -0.571598
     71          1           0       19.969918    6.958611    0.828771
     72          1           0       18.928435    6.830654   -0.463350
     73          1           0       15.014522    2.926864    0.733451
     74          1           0       15.556096    3.246690   -0.922025
     75          1           0       16.297082    4.025622    0.485002
     76          1           0       15.949033   -2.188055   -0.488037
     77          1           0       17.239966   -1.937230    4.722771
     78          1           0       16.345588   -3.341903    4.104800
     79          1           0       15.543701   -2.014568    4.814339
     80         12           0      -20.030942    0.832574    0.547221
     81          6           0      -20.031230   -2.696659    0.169110
     82          6           0      -16.946673    0.856783   -1.081834
     83          6           0      -20.627319    3.997923   -0.131783
     84          6           0      -23.402318    0.454527    1.923765
     85          7           0      -18.748669   -0.793249   -0.592202
     86          6           0      -18.842552   -2.124195   -0.349545
     87          6           0      -17.578278   -2.813049   -0.831156
     88          6           0      -16.490013   -1.753047   -0.659990
     89          6           0      -17.437013   -0.459483   -0.841331
     90          6           0      -15.757159   -1.668296    0.680190
     91          6           0      -17.807982   -3.385043   -2.297750
     92          6           0      -17.292605   -4.761856   -2.451706
     93          1           0      -16.548139   -5.103312   -3.757135
     94          7           0      -18.957396    2.292884   -0.528594
     95          6           0      -17.654469    2.114807   -1.056480
     96          6           0      -17.255813    3.391444   -1.593549
     97          6           0      -18.230706    4.374865   -1.278434
     98          6           0      -19.356419    3.603304   -0.640989
     99          6           0      -15.923885    3.547768   -2.320503
    100          6           0      -18.184170    5.803440   -1.653352
    101          8           0      -17.219575    6.216511   -2.285062
    102          6           0      -19.246448    6.828723   -1.427732
    103          7           0      -21.897676    2.039709    0.796214
    104          6           0      -21.714095    3.360262    0.598214
    105          6           0      -22.926993    4.160270    1.106850
    106          6           0      -23.791269    3.047057    1.927801
    107          6           0      -22.990087    1.763939    1.586862
    108          6           0      -22.556776    5.499438    1.889882
    109          6           0      -25.310450    2.981302    1.575870
    110          6           0      -25.778952    1.874553    0.570651
    111          7           0      -21.403710   -0.697020    0.966386
    112          6           0      -22.688586   -0.683940    1.580214
    113          6           0      -23.084827   -2.122889    1.906089
    114          6           0      -22.080059   -2.871977    1.314869
    115          6           0      -21.092700   -1.966240    0.784872
    116          6           0      -24.300529   -2.730342    2.632240
    117          6           0      -21.606227   -4.203038    1.104258
    118          8           0      -22.053373   -5.281200    1.498871
    119          6           0      -20.396461   -4.066240    0.250445
    120          6           0      -20.878950   -4.591187   -1.121134
    121          8           0      -21.558427   -3.990660   -1.950982
    122          8           0      -20.453613   -5.944679   -1.225182
    123          6           0      -20.874700   -6.691187   -2.340418
    124          1           0      -15.940616    0.930525   -1.500318
    125          1           0      -20.652703    5.083208   -0.248126
    126          1           0      -24.326479    0.239981    2.463184
    127          1           0      -17.259349   -3.630355   -0.184493
    128          1           0      -15.644855   -1.713026   -1.346204
    129          1           0      -15.836442   -2.572550    1.282942
    130          1           0      -15.958747   -0.725614    1.189516
    131          1           0      -14.713418   -1.624986    0.366853
    132          1           0      -17.259349   -2.760773   -3.003091
    133          1           0      -18.824540   -3.262910   -2.671789
    134          1           0      -18.202217   -5.349224   -2.331604
    135          1           0      -16.605289   -4.962299   -1.629942
    136          1           0      -15.171183    4.060681   -1.722105
    137          1           0      -16.105730    4.026768   -3.281469
    138          1           0      -15.502821    2.569306   -2.552078
    139          1           0      -19.315510    7.015860   -0.355857
    140          1           0      -20.237552    6.579334   -1.808679
    141          1           0      -18.924819    7.817358   -1.752972
    142          1           0      -23.470325    4.384763    0.189222
    143          1           0      -23.632693    3.204785    2.994074
    144          1           0      -21.573292    5.866320    1.596513
    145          1           0      -22.672211    5.529241    2.973993
    146          1           0      -23.396824    6.151239    1.644874
    147          1           0      -25.694754    3.934886    1.214719
    148          1           0      -25.756168    2.749642    2.542919
    149          1           0      -26.595304    2.457610    0.143726
    150          1           0      -26.174122    0.943853    0.978349
    151          1           0      -24.977674    1.728845   -0.154086
    152          1           0      -23.986710   -3.325463    3.489114
    153          1           0      -24.559323   -3.453464    1.859381
    154          1           0      -25.041777   -1.939988    2.748510
    155          1           0      -19.611765   -4.723927    0.624518
    156          1           0      -20.525350   -7.724340   -2.354469
    157          1           0      -20.484035   -6.195982   -3.228485
    158          1           0      -21.963956   -6.669795   -2.296037
 ---------------------------------------------------------------------

 SCF Done:  E(RCAM-B3LYP) =  -4069.71111234     A.U. after   19 cycles

 Excitation energies and oscillator strengths:

 Excited State   1:      Singlet-A      1.6347 eV  758.44 nm  f=0.3935  <S**2>=0.000
     309 -> 316        0.16910
     311 -> 313        0.68872
     309 <- 316        0.10871
 This state for optimization and/or second-order correction.
 Total Energy, E(TD-HF/TD-DFT) =  -4069.65103728
 Copying the excited state density for this state as the 1-particle RhoCI density.

 Excited State   2:      Singlet-A      1.6843 eV  736.14 nm  f=0.3505  <S**2>=0.000
     310 -> 315       -0.19721
     312 -> 314        0.68014
     310 <- 315       -0.11211

 Excited State   3:      Singlet-A      2.1488 eV  576.98 nm  f=0.1472  <S**2>=0.000
     309 -> 313        0.65208
     311 -> 316       -0.25547

 Excited State   4:      Singlet-A      2.1915 eV  565.75 nm  f=0.0565  <S**2>=0.000
     310 -> 314        0.61457
     312 -> 315        0.33938

 Excited State   5:      Singlet-A      2.8533 eV  434.53 nm  f=0.0000  <S**2>=0.000
     312 -> 313        0.70710

 The electronic state is 1-A.
 Alpha  occ. eigenvalues --  -46.91293 -46.89970 -19.26247 -19.24701 -19.21394
 Alpha  occ. eigenvalues --  -19.20349 -19.18904 -19.18500 -19.17566 -19.17260
 Alpha  occ. eigenvalues --  -14.42603 -14.42400 -14.42057 -14.41933 -14.40235
 Alpha  occ. eigenvalues --  -14.40076 -14.39753 -14.39682 -10.40584 -10.40501
 Alpha  occ. eigenvalues --  -10.34553 -10.34299 -10.34119 -10.33598 -10.32847
 Alpha  occ. eigenvalues --  -10.32114 -10.31823 -10.31628 -10.31420 -10.31393
 Alpha  occ. eigenvalues --  -10.31297 -10.31044 -10.31033 -10.30966 -10.30947
 Alpha  occ. eigenvalues --  -10.30823 -10.30781 -10.30718 -10.30199 -10.30072
 Alpha  occ. eigenvalues --  -10.29458 -10.29411 -10.29384 -10.28916 -10.28878
 Alpha  occ. eigenvalues --  -10.28775 -10.28515 -10.28486 -10.28456 -10.28400
 Alpha  occ. eigenvalues --  -10.28361 -10.28316 -10.28222 -10.28187 -10.28138
 Alpha  occ. eigenvalues --  -10.27992 -10.27982 -10.27899 -10.27825 -10.27656
 Alpha  occ. eigenvalues --  -10.27599 -10.27546 -10.27540 -10.27533 -10.27346
 Alpha  occ. eigenvalues --  -10.27253 -10.27157 -10.27102 -10.27086 -10.26810
 Alpha  occ. eigenvalues --  -10.26799 -10.26776 -10.26754 -10.26714 -10.26365
 Alpha  occ. eigenvalues --  -10.26348 -10.26242 -10.26222 -10.26090 -10.25764
 Alpha  occ. eigenvalues --  -10.25663 -10.25536 -10.25261 -10.25185 -10.25103
 Alpha  occ. eigenvalues --  -10.24969  -3.19492  -3.18442  -1.94334  -1.94000
 Alpha  occ. eigenvalues --   -1.93748  -1.93300  -1.92934  -1.92717  -1.15811
 Alpha  occ. eigenvalues --   -1.15706  -1.11437  -1.09592  -1.09380  -1.09350
 Alpha  occ. eigenvalues --   -1.08642  -1.07278  -1.05192  -1.04388  -1.04193
 Alpha  occ. eigenvalues --   -1.03441  -1.02961  -1.02828  -1.02180  -1.01267
 Alpha  occ. eigenvalues --   -0.94370  -0.93717  -0.89866  -0.89158  -0.88763
 Alpha  occ. eigenvalues --   -0.88714  -0.88430  -0.87967  -0.87793  -0.87278
 Alpha  occ. eigenvalues --   -0.87258  -0.86840  -0.85913  -0.85562  -0.84768
 Alpha  occ. eigenvalues --   -0.84578  -0.84022  -0.83654  -0.83127  -0.82694
 Alpha  occ. eigenvalues --   -0.82204  -0.81634  -0.81011  -0.80848  -0.80617
 Alpha  occ. eigenvalues --   -0.80264  -0.78543  -0.78028  -0.77834  -0.77262
 Alpha  occ. eigenvalues --   -0.77021  -0.76866  -0.76724  -0.75993  -0.75504
 Alpha  occ. eigenvalues --   -0.75197  -0.73614  -0.72738  -0.71830  -0.71782
 Alpha  occ. eigenvalues --   -0.70058  -0.69910  -0.69418  -0.68703  -0.68433
 Alpha  occ. eigenvalues --   -0.67306  -0.66857  -0.66597  -0.66300  -0.65522
 Alpha  occ. eigenvalues --   -0.65331  -0.64961  -0.64744  -0.64702  -0.64534
 Alpha  occ. eigenvalues --   -0.64430  -0.63624  -0.62203  -0.60310  -0.59920
 Alpha  occ. eigenvalues --   -0.59758  -0.59423  -0.59261  -0.58917  -0.58890
 Alpha  occ. eigenvalues --   -0.58251  -0.58093  -0.57653  -0.57248  -0.57027
 Alpha  occ. eigenvalues --   -0.56559  -0.56190  -0.55949  -0.55827  -0.55630
 Alpha  occ. eigenvalues --   -0.55357  -0.55141  -0.54939  -0.54548  -0.54493
 Alpha  occ. eigenvalues --   -0.54002  -0.53666  -0.53385  -0.53303  -0.53211
 Alpha  occ. eigenvalues --   -0.53022  -0.52630  -0.52538  -0.52169  -0.52106
 Alpha  occ. eigenvalues --   -0.51953  -0.51874  -0.51833  -0.51659  -0.51379
 Alpha  occ. eigenvalues --   -0.51379  -0.51295  -0.51108  -0.50721  -0.50621
 Alpha  occ. eigenvalues --   -0.50541  -0.50175  -0.50010  -0.49958  -0.49743
 Alpha  occ. eigenvalues --   -0.49491  -0.49392  -0.49217  -0.49212  -0.49026
 Alpha  occ. eigenvalues --   -0.48939  -0.48467  -0.48257  -0.48257  -0.47900
 Alpha  occ. eigenvalues --   -0.47746  -0.47588  -0.47459  -0.47334  -0.47251
 Alpha  occ. eigenvalues --   -0.47158  -0.47111  -0.46929  -0.46838  -0.46442
 Alpha  occ. eigenvalues --   -0.46171  -0.46083  -0.45935  -0.45889  -0.45858
 Alpha  occ. eigenvalues --   -0.45644  -0.45558  -0.45424  -0.45346  -0.45289
 Alpha  occ. eigenvalues --   -0.45132  -0.45048  -0.44912  -0.44559  -0.44439
 Alpha  occ. eigenvalues --   -0.44182  -0.44126  -0.44027  -0.43781  -0.43465
 Alpha  occ. eigenvalues --   -0.43411  -0.43295  -0.43099  -0.42992  -0.42736
 Alpha  occ. eigenvalues --   -0.42664  -0.42402  -0.42320  -0.42105  -0.42030
 Alpha  occ. eigenvalues --   -0.41971  -0.41755  -0.41588  -0.41511  -0.41313
 Alpha  occ. eigenvalues --   -0.41289  -0.40999  -0.40962  -0.40590  -0.40419
 Alpha  occ. eigenvalues --   -0.40257  -0.40071  -0.39164  -0.39059  -0.38702
 Alpha  occ. eigenvalues --   -0.38545  -0.38260  -0.38013  -0.37912  -0.37624
 Alpha  occ. eigenvalues --   -0.37395  -0.36910  -0.36504  -0.36314  -0.36176
 Alpha  occ. eigenvalues --   -0.35758  -0.35630  -0.35205  -0.34811  -0.34206
 Alpha  occ. eigenvalues --   -0.33891  -0.33336  -0.33109  -0.31595  -0.31453
 Alpha  occ. eigenvalues --   -0.30921  -0.30799  -0.30556  -0.30532  -0.30206
 Alpha  occ. eigenvalues --   -0.29572  -0.29468  -0.28376  -0.24487  -0.24039
 Alpha  occ. eigenvalues --   -0.21744  -0.21027
 Alpha virt. eigenvalues --   -0.09690  -0.08520  -0.02605  -0.01983  -0.00593
 Alpha virt. eigenvalues --    0.00119   0.00145   0.00974   0.02180   0.02668
 Alpha virt. eigenvalues --    0.04543   0.04718   0.04889   0.05179   0.05887

 Mulliken charges:
               1
     1  Mg  12.003242
     2  C    6.005407
     3  C    5.977474
     4  C    5.977392
     5  C    6.020745
     6  N    6.992797
     7  C    5.972129
     8  C    6.010503
     9  C    5.984617
    10  C    6.039505
    11  C    5.998855
    12  C    6.000812
    13  C    6.003174
    14  H    0.988624
    15  N    6.992999
    16  C    6.050472
    17  C    6.023849
    18  C    6.007238
    19  C    6.047458
    20  C    5.993711
    21  C    6.010908
    22  O    8.020452
    23  C    6.000186
    24  N    7.004007
    25  C    6.030888
    26  C    5.989665
    27  C    6.013025
    28  C    5.960491
    29  C    5.999534
    30  C    6.001945
    31  C    5.998636
    32  N    7.004377
    33  C    5.959611
    34  C    5.976591
    35  C    5.990612
    36  C    5.971013
    37  C    6.003702
    38  C    5.984494
    39  O    7.964059
    40  C    6.000951
    41  C    5.993948
    42  O    7.988640
    43  O    8.005399
    44  C    6.005700
    45  H    1.008805
    46  H    1.006701
    47  H    0.992395
    48  H    1.001509
    49  H    1.005788
    50  H    0.994051
    51  H    1.004242
    52  H    1.009610
    53  H    1.002973
    54  H    0.989900
    55  H    1.004516
    56  H    1.003912
    57  H    1.020255
    58  H    1.016903
    59  H    1.023606
    60  H    1.004799
    61  H    1.012521
    62  H    1.013562
    63  H    1.004528
    64  H    0.995845
    65  H    1.008545
    66  H    1.001188
    67  H    0.992964
    68  H    1.003119
    69  H    0.989329
    70  H    0.994996
    71  H    0.998889
    72  H    1.005122
    73  H    0.985533
    74  H    0.980805
    75  H    0.980734
    76  H    0.991347
    77  H    0.992518
    78  H    0.992987
    79  H    0.995670
    80  Mg  12.000042
    81  C    6.000386
    82  C    5.999722
    83  C    5.999692
    84  C    6.000336
    85  N    7.000075
    86  C    5.999563
    87  C    6.000034
    88  C    5.999963
    89  C    6.000429
    90  C    5.999907
    91  C    6.000078
    92  C    5.999986
    93  H    0.999958
    94  N    6.999781
    95  C    6.000774
    96  C    6.000220
    97  C    6.000193
    98  C    6.000552
    99  C    5.999871
   100  C    6.000182
   101  O    8.000390
   102  C    5.999934
   103  N    7.000046
   104  C    6.000451
   105  C    5.999834
   106  C    6.000222
   107  C    5.999424
   108  C    5.999971
   109  C    6.000003
   110  C    6.000174
   111  N    7.000084
   112  C    5.999200
   113  C    5.999646
   114  C    5.999877
   115  C    5.999568
   116  C    6.000016
   117  C    5.999704
   118  O    7.999511
   119  C    6.000040
   120  C    5.999981
   121  O    7.999897
   122  O    7.999990
   123  C    6.000055
   124  H    1.000292
   125  H    1.000026
   126  H    0.999756
   127  H    1.000039
   128  H    1.000112
   129  H    1.000234
   130  H    0.999988
   131  H    1.000188
   132  H    0.999848
   133  H    0.999980
   134  H    1.000017
   135  H    1.000024
   136  H    1.000443
   137  H    1.000254
   138  H    1.000334
   139  H    1.000162
   140  H    1.000104
   141  H    1.000183
   142  H    0.999965
   143  H    0.999892
   144  H    0.999922
   145  H    1.000069
   146  H    1.000006
   147  H    0.999793
   148  H    0.999942
   149  H    0.999783
   150  H    1.000012
   151  H    0.999993
   152  H    0.999712
   153  H    0.999755
   154  H    0.999715
   155  H    0.999898
   156  H    0.999919
   157  H    0.999929
   158  H    0.999949
 Sum of Mulliken charges = 624.00000

 Dipole moment (field-independent basis, Debye):
    X=             10.9322    Y=             -2.6241    Z=             -0.7526  Tot=             11.2679
 Quadrupole moment (field-independent basis, Debye-Ang):
   XX=            444.4391   YY=             -1.8860   ZZ=             -1.6038
   XY=            -60.3848   XZ=            -12.2948   YZ=              1.4539

 Normal termination of Gaussian 16 at Wed Sep 22 01:28:35 2021.
