 Gaussian 16, Revision A.03,
 Gaussian 16:  ES64L-G16RevA.03 25-Dec-2016

 -----------------------------------
 #p cam-b3lyp/Def2SVP td=(nstates=5)
 -----------------------------------

 --------------------------------
 TDDFT excited states in gaussian
 --------------------------------
 Symbolic Z-matrix:
 Charge =  0 Multiplicity = 1

                         Standard orientation:
 ---------------------------------------------------------------------
 Center     Atomic      Atomic             Coordinates (Angstroms)
 Number     Number       Type             X           Y           Z
 ---------------------------------------------------------------------
      1         12           0       19.356746    0.340009    0.508050
      2          6           0       17.307200   -1.580666   -1.642837
      3          6           0       20.413698    2.159430   -2.227683
      4          6           0       21.525258    1.966972    2.540824
      5          6           0       18.415819   -1.672874    3.219575
      6          7           0       18.929561    0.148613   -1.655950
      7          6           0       17.904825   -0.548800   -2.291224
      8          6           0       17.803469   -0.159685   -3.822802
      9          6           0       18.996122    0.820667   -3.980919
     10          6           0       19.538569    1.039863   -2.550847
     11          6           0       20.161000    0.420361   -4.961707
     12          6           0       16.383887    0.309330   -4.344831
     13          6           0       15.799888   -0.525779   -5.443878
     14          1           0       14.984556    0.254315   -6.549851
     15          7           0       20.730649    1.808750    0.155652
     16          6           0       20.995465    2.497983   -1.010357
     17          6           0       22.055364    3.464846   -0.770585
     18          6           0       22.415095    3.451626    0.606809
     19          6           0       21.522780    2.382769    1.189074
     20          6           0       22.565677    4.465591   -1.826880
     21          6           0       23.414678    4.314197    1.370552
     22          8           0       23.570079    4.264475    2.573362
     23          6           0       24.294916    5.453415    0.710740
     24          7           0       19.964566    0.097757    2.592612
     25          6           0       20.859178    0.885412    3.174977
     26          6           0       21.048313    0.539175    4.694997
     27          6           0       19.895071   -0.510405    4.949252
     28          6           0       19.353431   -0.708540    3.501269
     29          6           0       22.508162    0.107617    5.017564
     30          6           0       18.892335   -0.021287    5.975517
     31          6           0       18.441594   -1.092912    6.966565
     32          7           0       18.235752   -1.388267    0.817489
     33          6           0       17.856577   -2.041128    1.974707
     34          6           0       17.062230   -3.166240    1.587868
     35          6           0       16.770186   -3.028540    0.208203
     36          6           0       17.519878   -1.911819   -0.255769
     37          6           0       16.554486   -4.225957    2.490407
     38          6           0       15.967170   -3.565705   -0.904144
     39          8           0       15.274838   -4.572466   -1.022487
     40          6           0       16.312112   -2.515987   -2.215161
     41          6           0       16.823715   -3.272316   -3.315216
     42          8           0       17.988485   -3.303553   -3.648541
     43          8           0       15.799160   -3.853836   -4.027320
     44          6           0       16.286992   -4.696836   -5.147172
     45          1           0       20.681775    2.838607   -3.039894
     46          1           0       22.238626    2.423291    3.229513
     47          1           0       18.109943   -2.191639    4.131210
     48          1           0       18.161149   -1.046740   -4.344473
     49          1           0       18.650037    1.793945   -4.328980
     50          1           0       20.449956    1.330815   -5.487686
     51          1           0       19.790984   -0.347911   -5.640195
     52          1           0       21.047647    0.021998   -4.468091
     53          1           0       16.507617    1.350292   -4.643798
     54          1           0       15.699643    0.233884   -3.499544
     55          1           0       15.108058   -1.256031   -5.022058
     56          1           0       16.668222   -1.032633   -5.863876
     57          1           0       22.248714    5.442572   -1.463724
     58          1           0       22.000808    4.325683   -2.748842
     59          1           0       23.645979    4.492122   -1.974824
     60          1           0       23.619651    6.159133    0.225720
     61          1           0       25.149044    5.061324    0.157834
     62          1           0       24.863649    5.869295    1.541878
     63          1           0       20.828473    1.373139    5.361236
     64          1           0       20.395203   -1.435470    5.236675
     65          1           0       22.473052   -0.833421    5.567221
     66          1           0       23.083925    0.878005    5.531119
     67          1           0       23.049015   -0.071857    4.089833
     68          1           0       18.008425    0.414968    5.511392
     69          1           0       19.236772    0.826893    6.569207
     70          1           0       18.783104   -2.083369    6.665610
     71          1           0       17.351532   -1.090540    6.941087
     72          1           0       18.697668   -0.842846    7.996246
     73          1           0       16.822957   -4.158036    3.544596
     74          1           0       16.723843   -5.170146    1.971386
     75          1           0       15.502264   -3.961790    2.598652
     76          1           0       15.393770   -2.009217   -2.513059
     77          1           0       16.921592   -5.494427   -4.760234
     78          1           0       16.770232   -4.015330   -5.847215
     79          1           0       15.483025   -5.208523   -5.674804
     80         12           0      -19.432111   -0.540098   -0.311680
     81          6           0      -18.549501    2.835936   -0.728322
     82          6           0      -16.148915   -1.392164   -0.874491
     83          6           0      -20.188659   -3.551513    0.830496
     84          6           0      -22.729111    0.496636    0.508575
     85          7           0      -17.552130    0.605493   -0.493319
     86          6           0      -17.409801    2.008514   -0.649458
     87          6           0      -16.092833    2.393763   -1.185371
     88          6           0      -15.360981    0.989096   -1.319941
     89          6           0      -16.423162   -0.016808   -0.905202
     90          6           0      -14.707889    0.789930   -2.709122
     91          6           0      -15.266511    3.241595   -0.267058
     92          6           0      -15.354984    2.924546    1.233213
     93          1           0      -14.098552    3.062394    2.178498
     94          7           0      -18.341529   -2.292814   -0.074972
     95          6           0      -17.066152   -2.442025   -0.480943
     96          6           0      -16.704398   -3.830666   -0.343931
     97          6           0      -17.875717   -4.505914    0.079270
     98          6           0      -18.897596   -3.465243    0.276293
     99          6           0      -15.336845   -4.414239   -0.577401
    100          6           0      -18.008786   -6.014080    0.288399
    101          8           0      -17.065431   -6.758238    0.104620
    102          6           0      -19.193563   -6.758450    0.829091
    103          7           0      -21.107137   -1.346601    0.778682
    104          6           0      -21.203693   -2.673583    1.102955
    105          6           0      -22.666329   -3.061336    1.498980
    106          6           0      -23.337512   -1.664971    1.670188
    107          6           0      -22.353685   -0.784404    0.931344
    108          6           0      -23.433213   -3.914837    0.460164
    109          6           0      -23.365775   -1.075722    3.158944
    110          6           0      -24.652761   -0.500516    3.628467
    111          7           0      -20.477230    1.189568   -0.230296
    112          6           0      -21.791035    1.403360   -0.077241
    113          6           0      -22.158281    2.772786   -0.601342
    114          6           0      -20.874615    3.325069   -0.910583
    115          6           0      -19.881455    2.378697   -0.530206
    116          6           0      -23.514550    3.450289   -0.734723
    117          6           0      -20.231964    4.550514   -1.288728
    118          8           0      -20.701577    5.646447   -1.551294
    119          6           0      -18.679103    4.258371   -1.211523
    120          6           0      -18.125806    5.110765   -0.088401
    121          8           0      -18.326976    4.996973    1.075459
    122          8           0      -17.231211    6.004889   -0.637006
    123          6           0      -16.406508    6.698573    0.357475
    124          1           0      -15.160205   -1.669263   -1.245631
    125          1           0      -20.508156   -4.572865    1.044136
    126          1           0      -23.791151    0.712261    0.642767
    127          1           0      -16.261333    2.931115   -2.118618
    128          1           0      -14.610930    0.765645   -0.561331
    129          1           0      -13.717073    0.445859   -2.411942
    130          1           0      -14.712678    1.761140   -3.204054
    131          1           0      -15.179178   -0.000975   -3.292949
    132          1           0      -15.341937    4.311126   -0.465101
    133          1           0      -14.190405    3.172913   -0.427879
    134          1           0      -15.740978    1.905644    1.279013
    135          1           0      -16.168821    3.575559    1.552998
    136          1           0      -15.054740   -5.087238    0.232963
    137          1           0      -14.615581   -3.613093   -0.738327
    138          1           0      -15.449984   -4.988265   -1.497384
    139          1           0      -19.441545   -6.552425    1.869823
    140          1           0      -18.803391   -7.775967    0.856507
    141          1           0      -20.021334   -6.820424    0.121844
    142          1           0      -22.617268   -3.632150    2.426181
    143          1           0      -24.326833   -1.601005    1.216403
    144          1           0      -24.237075   -3.309774    0.041258
    145          1           0      -23.660988   -4.909774    0.842331
    146          1           0      -22.763817   -4.127425   -0.372624
    147          1           0      -22.571087   -0.344608    3.305621
    148          1           0      -23.115671   -1.935497    3.780739
    149          1           0      -25.014532   -0.959473    4.548332
    150          1           0      -25.445789   -0.539765    2.881340
    151          1           0      -24.554772    0.554372    3.883378
    152          1           0      -23.460590    4.363686   -0.142335
    153          1           0      -24.280037    2.708439   -0.503838
    154          1           0      -23.570177    3.784493   -1.770652
    155          1           0      -18.173206    4.456399   -2.156222
    156          1           0      -16.228053    6.103700    1.253127
    157          1           0      -16.995216    7.583442    0.599607
    158          1           0      -15.540601    7.073011   -0.187838
 ---------------------------------------------------------------------

 SCF Done:  E(RCAM-B3LYP) =  -4069.80124497     A.U. after   18 cycles

 Excitation energies and oscillator strengths:

 Excited State   1:      Singlet-A      1.6651 eV  744.60 nm  f=0.3723  <S**2>=0.000
     309 -> 315        0.17250
     312 -> 313        0.68782
     309 <- 315        0.10779
 This state for optimization and/or second-order correction.
 Total Energy, E(TD-HF/TD-DFT) =  -4069.74005322
 Copying the excited state density for this state as the 1-particle RhoCI density.

 Excited State   2:      Singlet-A      1.7837 eV  695.11 nm  f=0.3749  <S**2>=0.000
     310 -> 316       -0.17650
     311 -> 314        0.68528
     310 <- 316       -0.10146

 Excited State   3:      Singlet-A      2.2587 eV  548.93 nm  f=0.1144  <S**2>=0.000
     310 -> 314        0.63962
     311 -> 316        0.28422

 Excited State   4:      Singlet-A      2.2662 eV  547.10 nm  f=0.1008  <S**2>=0.000
     309 -> 313        0.62917
     312 -> 315       -0.31014

 Excited State   5:      Singlet-A      3.1690 eV  391.24 nm  f=0.0000  <S**2>=0.000
     311 -> 313        0.70710

 The electronic state is 1-A.
 Alpha  occ. eigenvalues --  -46.88568 -46.88227 -19.24596 -19.24327 -19.20418
 Alpha  occ. eigenvalues --  -19.19878 -19.19380 -19.19219 -19.19113 -19.18233
 Alpha  occ. eigenvalues --  -14.42362 -14.42265 -14.41873 -14.41756 -14.40335
 Alpha  occ. eigenvalues --  -14.39582 -14.39520 -14.38715 -10.39235 -10.38317
 Alpha  occ. eigenvalues --  -10.36396 -10.35989 -10.34981 -10.34589 -10.32513
 Alpha  occ. eigenvalues --  -10.31971 -10.31429 -10.31265 -10.31263 -10.31196
 Alpha  occ. eigenvalues --  -10.31122 -10.30934 -10.30804 -10.30644 -10.30569
 Alpha  occ. eigenvalues --  -10.30456 -10.30181 -10.30165 -10.29936 -10.29803
 Alpha  occ. eigenvalues --  -10.29304 -10.28859 -10.28704 -10.28702 -10.28649
 Alpha  occ. eigenvalues --  -10.28504 -10.28495 -10.28490 -10.28322 -10.28276
 Alpha  occ. eigenvalues --  -10.28112 -10.28036 -10.28021 -10.27990 -10.27808
 Alpha  occ. eigenvalues --  -10.27802 -10.27778 -10.27730 -10.27660 -10.27603
 Alpha  occ. eigenvalues --  -10.27422 -10.27359 -10.27119 -10.27028 -10.26901
 Alpha  occ. eigenvalues --  -10.26774 -10.26737 -10.26715 -10.26610 -10.26550
 Alpha  occ. eigenvalues --  -10.26495 -10.26491 -10.26474 -10.26379 -10.26329
 Alpha  occ. eigenvalues --  -10.26244 -10.25990 -10.25974 -10.25816 -10.25495
 Alpha  occ. eigenvalues --  -10.25474 -10.25360 -10.25283 -10.25138 -10.25117
 Alpha  occ. eigenvalues --  -10.24871  -3.17213  -3.16757  -1.92074  -1.91673
 Alpha  occ. eigenvalues --   -1.91665  -1.91531  -1.91207  -1.91064  -1.17256
 Alpha  occ. eigenvalues --   -1.15871  -1.11508  -1.10393  -1.09940  -1.09259
 Alpha  occ. eigenvalues --   -1.08952  -1.07428  -1.04570  -1.04082  -1.03981
 Alpha  occ. eigenvalues --   -1.03325  -1.02615  -1.02464  -1.01959  -1.00937
 Alpha  occ. eigenvalues --   -0.93172  -0.91846  -0.89856  -0.89419  -0.89133
 Alpha  occ. eigenvalues --   -0.88433  -0.88375  -0.88039  -0.87513  -0.87217
 Alpha  occ. eigenvalues --   -0.86890  -0.86322  -0.85793  -0.85605  -0.84733
 Alpha  occ. eigenvalues --   -0.84377  -0.84158  -0.83637  -0.82702  -0.82503
 Alpha  occ. eigenvalues --   -0.81678  -0.81035  -0.80863  -0.80716  -0.80502
 Alpha  occ. eigenvalues --   -0.80097  -0.78431  -0.77936  -0.77495  -0.76937
 Alpha  occ. eigenvalues --   -0.76835  -0.76452  -0.76036  -0.75762  -0.75122
 Alpha  occ. eigenvalues --   -0.74716  -0.72692  -0.72242  -0.71679  -0.71299
 Alpha  occ. eigenvalues --   -0.69618  -0.69054  -0.68845  -0.68799  -0.68674
 Alpha  occ. eigenvalues --   -0.67422  -0.67237  -0.67073  -0.65855  -0.65627
 Alpha  occ. eigenvalues --   -0.65068  -0.64800  -0.64585  -0.64528  -0.64367
 Alpha  occ. eigenvalues --   -0.64350  -0.62092  -0.61145  -0.60034  -0.59994
 Alpha  occ. eigenvalues --   -0.59404  -0.59166  -0.59056  -0.58930  -0.58797
 Alpha  occ. eigenvalues --   -0.58125  -0.58023  -0.57808  -0.57368  -0.57004
 Alpha  occ. eigenvalues --   -0.56549  -0.56093  -0.55944  -0.55765  -0.55407
 Alpha  occ. eigenvalues --   -0.55090  -0.54736  -0.54593  -0.54241  -0.54063
 Alpha  occ. eigenvalues --   -0.53694  -0.53241  -0.53207  -0.53038  -0.53032
 Alpha  occ. eigenvalues --   -0.52841  -0.52553  -0.52359  -0.52272  -0.52127
 Alpha  occ. eigenvalues --   -0.52114  -0.51696  -0.51607  -0.51412  -0.51408
 Alpha  occ. eigenvalues --   -0.51149  -0.51018  -0.50917  -0.50913  -0.50587
 Alpha  occ. eigenvalues --   -0.50143  -0.50119  -0.49594  -0.49576  -0.49515
 Alpha  occ. eigenvalues --   -0.49465  -0.49395  -0.49240  -0.48926  -0.48756
 Alpha  occ. eigenvalues --   -0.48647  -0.48585  -0.48543  -0.48353  -0.48065
 Alpha  occ. eigenvalues --   -0.48003  -0.47735  -0.47542  -0.47493  -0.47186
 Alpha  occ. eigenvalues --   -0.47093  -0.46892  -0.46779  -0.46769  -0.46422
 Alpha  occ. eigenvalues --   -0.46367  -0.46215  -0.45996  -0.45991  -0.45869
 Alpha  occ. eigenvalues --   -0.45526  -0.45492  -0.45217  -0.45141  -0.44845
 Alpha  occ. eigenvalues --   -0.44678  -0.44663  -0.44469  -0.44360  -0.44038
 Alpha  occ. eigenvalues --   -0.43994  -0.43931  -0.43892  -0.43589  -0.43566
 Alpha  occ. eigenvalues --   -0.43286  -0.43218  -0.43194  -0.42961  -0.42793
 Alpha  occ. eigenvalues --   -0.42510  -0.42407  -0.42368  -0.42293  -0.42186
 Alpha  occ. eigenvalues --   -0.42115  -0.41994  -0.41889  -0.41507  -0.41174
 Alpha  occ. eigenvalues --   -0.41107  -0.40761  -0.40562  -0.40388  -0.40283
 Alpha  occ. eigenvalues --   -0.40025  -0.39812  -0.39674  -0.39431  -0.39143
 Alpha  occ. eigenvalues --   -0.38684  -0.38443  -0.37867  -0.37661  -0.37322
 Alpha  occ. eigenvalues --   -0.37172  -0.37026  -0.36865  -0.36432  -0.36246
 Alpha  occ. eigenvalues --   -0.35912  -0.35754  -0.35095  -0.34285  -0.34217
 Alpha  occ. eigenvalues --   -0.33843  -0.33081  -0.33012  -0.31655  -0.31480
 Alpha  occ. eigenvalues --   -0.31366  -0.31091  -0.30644  -0.30522  -0.30228
 Alpha  occ. eigenvalues --   -0.29890  -0.29642  -0.28657  -0.24297  -0.24062
 Alpha  occ. eigenvalues --   -0.21312  -0.21035
 Alpha virt. eigenvalues --   -0.08767  -0.08515  -0.01777  -0.01774   0.00046
 Alpha virt. eigenvalues --    0.00229   0.01392   0.02103   0.02537   0.02964
 Alpha virt. eigenvalues --    0.04539   0.05064   0.05399   0.05442   0.05901

 Mulliken charges:
               1
     1  Mg   0.816309
     2  C    0.025803
     3  C   -0.086837
     4  C   -0.055837
     5  C   -0.058747
     6  N   -0.312782
     7  C   -0.055428
     8  C   -0.012781
     9  C   -0.109545
    10  C    0.087964
    11  C    0.070620
    12  C    0.093574
    13  C   -0.080243
    14  H    0.012889
    15  N   -0.426203
    16  C    0.167061
    17  C   -0.153125
    18  C   -0.007868
    19  C    0.162608
    20  C    0.112420
    21  C   -0.007693
    22  O   -0.188104
    23  C    0.041591
    24  N   -0.245187
    25  C    0.014702
    26  C   -0.075040
    27  C   -0.009804
    28  C   -0.002064
    29  C    0.065588
    30  C    0.045615
    31  C    0.000081
    32  N   -0.378397
    33  C    0.150645
    34  C   -0.188281
    35  C    0.001876
    36  C    0.131835
    37  C    0.134316
    38  C    0.077221
    39  O   -0.163543
    40  C   -0.091588
    41  C    0.202890
    42  O   -0.222080
    43  O   -0.341850
    44  C    0.191513
    45  H   -0.034389
    46  H   -0.007056
    47  H   -0.044510
    48  H    0.030921
    49  H    0.006495
    50  H    0.015307
    51  H    0.021328
    52  H    0.028732
    53  H    0.014482
    54  H    0.009610
    55  H    0.043789
    56  H    0.030093
    57  H    0.030516
    58  H    0.009715
    59  H    0.043669
    60  H    0.041095
    61  H    0.033013
    62  H    0.021256
    63  H    0.014103
    64  H    0.009834
    65  H    0.013107
    66  H    0.028863
    67  H    0.019982
    68  H    0.006104
    69  H    0.004045
    70  H    0.022178
    71  H    0.008840
    72  H    0.018151
    73  H   -0.003089
    74  H    0.047730
    75  H    0.022309
    76  H    0.051775
    77  H    0.042354
    78  H    0.032261
    79  H    0.033292
    80  Mg   0.832769
    81  C   -0.065611
    82  C   -0.081982
    83  C   -0.051855
    84  C   -0.084154
    85  N   -0.298296
    86  C   -0.025804
    87  C    0.018480
    88  C   -0.084322
    89  C    0.035860
    90  C    0.085076
    91  C    0.008041
    92  C   -0.055352
    93  H    0.025497
    94  N   -0.351579
    95  C    0.137582
    96  C   -0.183527
    97  C   -0.001199
    98  C    0.138296
    99  C    0.160166
   100  C   -0.032195
   101  O   -0.207935
   102  C    0.057935
   103  N   -0.289652
   104  C    0.015924
   105  C   -0.027182
   106  C   -0.062472
   107  C    0.016101
   108  C    0.089639
   109  C    0.056715
   110  C    0.010169
   111  N   -0.344924
   112  C    0.137326
   113  C   -0.195369
   114  C   -0.004421
   115  C    0.133846
   116  C    0.146232
   117  C    0.051117
   118  O   -0.169774
   119  C    0.007126
   120  C    0.187074
   121  O   -0.181062
   122  O   -0.345678
   123  C    0.175669
   124  H   -0.026681
   125  H   -0.055779
   126  H   -0.024828
   127  H    0.014621
   128  H    0.028516
   129  H    0.016142
   130  H    0.023417
   131  H    0.024315
   132  H   -0.006961
   133  H   -0.001123
   134  H    0.031164
   135  H    0.037541
   136  H    0.042194
   137  H   -0.001119
   138  H    0.032112
   139  H    0.043733
   140  H    0.018274
   141  H    0.031558
   142  H    0.006930
   143  H    0.007263
   144  H    0.018868
   145  H    0.023720
   146  H    0.006591
   147  H    0.033382
   148  H   -0.000393
   149  H    0.016104
   150  H    0.005052
   151  H    0.013745
   152  H    0.046438
   153  H    0.016161
   154  H    0.034331
   155  H    0.034120
   156  H    0.056377
   157  H    0.035390
   158  H    0.036527
 Sum of Mulliken charges =  -0.00000

 Dipole moment (field-independent basis, Debye):
    X=              0.6147    Y=              2.9510    Z=             -1.4727  Tot=              3.3549
 Quadrupole moment (field-independent basis, Debye-Ang):
   XX=           -379.3312   YY=           -552.3252   ZZ=           -483.6483
   XY=            140.1606   XZ=            -16.1096   YZ=            -15.3556

 Normal termination of Gaussian 16 at Thu Sep 16 07:53:28 2021.
