 Gaussian 16, Revision A.03,
 Gaussian 16:  ES64L-G16RevA.03 25-Dec-2016

 ----------------------------------------------------------
 #p cam-b3lyp/Def2SVP td=(nstates=5) density=(transition=1)
 ----------------------------------------------------------

 --------------------------------
 TDDFT excited states in gaussian
 --------------------------------
 Symbolic Z-matrix:
 Charge =  0 Multiplicity = 1

                         Standard orientation:
 ---------------------------------------------------------------------
 Center     Atomic      Atomic             Coordinates (Angstroms)
 Number     Number       Type             X           Y           Z
 ---------------------------------------------------------------------
      1         12           0       -0.505010    0.027823   -0.266996
      2          6           0        2.858038    0.121759    0.253662
      3          6           0       -0.352174   -3.394848    0.272641
      4          6           0       -3.859644   -0.001832   -0.401699
      5          6           0       -0.641012    3.541843   -0.129392
      6          7           0        1.059104   -1.422756    0.468762
      7          6           0        2.366802   -1.106864    0.555458
      8          6           0        3.194746   -2.238410    1.044833
      9          6           0        2.172987   -3.482272    0.668909
     10          6           0        0.838372   -2.740463    0.445194
     11          6           0        2.669204   -4.327787   -0.540995
     12          6           0        3.417437   -2.101434    2.542634
     13          6           0        2.152957   -1.967041    3.511532
     14          1           0        2.131718   -2.684302    4.855587
     15          7           0       -1.911014   -1.470039   -0.090768
     16          6           0       -1.647539   -2.860578   -0.005555
     17          6           0       -2.890629   -3.532561   -0.188075
     18          6           0       -3.926099   -2.617580   -0.332839
     19          6           0       -3.290530   -1.289203   -0.326159
     20          6           0       -2.889068   -5.047690   -0.174923
     21          6           0       -5.406595   -2.906044   -0.404588
     22          8           0       -5.727864   -4.118681   -0.337394
     23          6           0       -6.453594   -1.942960   -0.331806
     24          7           0       -2.033387    1.576356   -0.044826
     25          6           0       -3.356666    1.288770   -0.207718
     26          6           0       -4.222398    2.569266   -0.133289
     27          6           0       -3.145017    3.702037   -0.043483
     28          6           0       -1.854976    2.900925    0.005628
     29          6           0       -5.183880    2.716943   -1.293160
     30          6           0       -3.388654    4.641582    1.254759
     31          6           0       -3.192335    6.138453    0.988642
     32          7           0        0.823793    1.631588    0.000833
     33          6           0        0.687261    2.972737   -0.164448
     34          6           0        2.013766    3.520848   -0.247113
     35          6           0        2.968356    2.451716   -0.132183
     36          6           0        2.174732    1.330243    0.043619
     37          6           0        2.351647    4.970713   -0.176422
     38          6           0        4.333882    2.048804   -0.027090
     39          8           0        5.300184    2.814639   -0.132516
     40          6           0        4.307617    0.546535    0.185908
     41          6           0        5.063849   -0.099496   -0.914342
     42          8           0        6.223295    0.213506   -1.100582
     43          8           0        4.382418   -1.075893   -1.574553
     44          6           0        5.126865   -1.737165   -2.648067
     45          1           0       -0.270697   -4.478443    0.165843
     46          1           0       -4.914289   -0.041288   -0.681486
     47          1           0       -0.584625    4.624827   -0.260011
     48          1           0        4.187145   -2.374264    0.614845
     49          1           0        2.181464   -4.241841    1.451711
     50          1           0        2.792524   -5.368143   -0.242304
     51          1           0        3.652142   -3.941806   -0.812396
     52          1           0        2.035846   -4.270989   -1.427235
     53          1           0        4.129243   -1.287979    2.684573
     54          1           0        4.064061   -2.952928    2.754277
     55          1           0        1.199130   -2.286790    3.091712
     56          1           0        2.173885   -0.903883    3.749253
     57          1           0       -2.951059   -5.326935    0.877043
     58          1           0       -1.935485   -5.402444   -0.563986
     59          1           0       -3.682774   -5.538358   -0.739082
     60          1           0       -7.354670   -2.357383    0.121418
     61          1           0       -6.636038   -1.423866   -1.273622
     62          1           0       -6.121549   -1.233868    0.425292
     63          1           0       -4.746932    2.455174    0.816011
     64          1           0       -3.116340    4.249215   -0.985558
     65          1           0       -5.209410    1.856070   -1.960719
     66          1           0       -5.197116    3.617718   -1.906187
     67          1           0       -6.153712    2.606076   -0.807269
     68          1           0       -2.744032    4.401783    2.100436
     69          1           0       -4.376191    4.489906    1.690131
     70          1           0       -4.173854    6.611723    0.988122
     71          1           0       -2.808626    6.255691   -0.025052
     72          1           0       -2.553999    6.622394    1.728012
     73          1           0        2.080632    5.593362   -1.028191
     74          1           0        3.429213    5.002845   -0.011069
     75          1           0        1.859595    5.466338    0.660511
     76          1           0        4.822758    0.366430    1.129913
     77          1           0        6.033310   -2.158673   -2.212620
     78          1           0        5.334270   -1.085993   -3.497370
     79          1           0        4.504621   -2.481528   -3.144677
 ---------------------------------------------------------------------

 SCF Done:  E(RCAM-B3LYP) =  -2034.90434701     A.U. after   17 cycles

 Excitation energies and oscillator strengths:

 Excited State   1:      Singlet-A      1.7418 eV  711.81 nm  f=0.3919  <S**2>=0.000
     155 ->158        -0.17705
     156 ->157         0.68525
     155 <-158        -0.10394
 This state for optimization and/or second-order correction.
 Total Energy, E(TD-HF/TD-DFT) =  -2034.84033663
 Copying the excited state density for this state as the 1-particle RhoCI density.

 Excited State   2:      Singlet-A      2.2176 eV  559.09 nm  f=0.1292  <S**2>=0.000
     155 ->157         0.65048
     156 ->158         0.25330

 Excited State   3:      Singlet-A      3.1804 eV  389.84 nm  f=0.0011  <S**2>=0.000
     153 ->157        -0.27716
     154 ->157         0.63251

 Excited State   4:      Singlet-A      3.3433 eV  370.84 nm  f=0.0037  <S**2>=0.000
     151 ->157        -0.13611
     152 ->157        -0.20278
     153 ->157         0.55530
     154 ->157         0.20480
     156 ->158        -0.19326

 Excited State   5:      Singlet-A      3.3909 eV  365.64 nm  f=0.0018  <S**2>=0.000
     151 ->157         0.50596
     151 ->158         0.19279
     151 ->159         0.26541
     151 ->161         0.25890
     153 ->157         0.15379

 The electronic state is 1-A.
 Alpha  occ. eigenvalues --  -46.89120 -19.26405 -19.19490 -19.18290 -19.18174
 Alpha  occ. eigenvalues --  -14.42091 -14.42073 -14.39801 -14.38617 -10.39479
 Alpha  occ. eigenvalues --  -10.34848 -10.34461 -10.32755 -10.31691 -10.31229
 Alpha  occ. eigenvalues --  -10.31199 -10.30531 -10.30399 -10.30223 -10.29212
 Alpha  occ. eigenvalues --  -10.29058 -10.28572 -10.28469 -10.28386 -10.28354
 Alpha  occ. eigenvalues --  -10.28290 -10.28219 -10.28034 -10.27743 -10.27411
 Alpha  occ. eigenvalues --  -10.27372 -10.27305 -10.27241 -10.27187 -10.27006
 Alpha  occ. eigenvalues --  -10.26784 -10.26556 -10.26478 -10.26353 -10.25628
 Alpha  occ. eigenvalues --  -10.25566 -10.24983 -10.24563  -3.17573  -1.92449
 Alpha  occ. eigenvalues --   -1.92048  -1.91855  -1.17429  -1.09065  -1.08409
 Alpha  occ. eigenvalues --   -1.08005  -1.04996  -1.04554  -1.02743  -1.01527
 Alpha  occ. eigenvalues --   -0.94084  -0.89294  -0.89057  -0.88762  -0.87804
 Alpha  occ. eigenvalues --   -0.86338  -0.85858  -0.85112  -0.84141  -0.83364
 Alpha  occ. eigenvalues --   -0.82816  -0.81471  -0.80912  -0.78638  -0.78005
 Alpha  occ. eigenvalues --   -0.77072  -0.76177  -0.74971  -0.72526  -0.72138
 Alpha  occ. eigenvalues --   -0.70162  -0.69135  -0.68857  -0.67143  -0.66573
 Alpha  occ. eigenvalues --   -0.65350  -0.65229  -0.64404  -0.63839  -0.60255
 Alpha  occ. eigenvalues --   -0.59748  -0.59353  -0.58840  -0.58400  -0.58035
 Alpha  occ. eigenvalues --   -0.56856  -0.56600  -0.55818  -0.55172  -0.54533
 Alpha  occ. eigenvalues --   -0.54265  -0.53768  -0.53497  -0.53087  -0.52498
 Alpha  occ. eigenvalues --   -0.51901  -0.51838  -0.51446  -0.51093  -0.50933
 Alpha  occ. eigenvalues --   -0.50344  -0.49613  -0.49483  -0.49130  -0.48766
 Alpha  occ. eigenvalues --   -0.48698  -0.48489  -0.48172  -0.47641  -0.47109
 Alpha  occ. eigenvalues --   -0.46737  -0.46442  -0.46419  -0.46066  -0.45749
 Alpha  occ. eigenvalues --   -0.45654  -0.45246  -0.44872  -0.44671  -0.44633
 Alpha  occ. eigenvalues --   -0.44553  -0.43746  -0.43561  -0.42825  -0.42452
 Alpha  occ. eigenvalues --   -0.42317  -0.42259  -0.41918  -0.41797  -0.41287
 Alpha  occ. eigenvalues --   -0.41164  -0.40973  -0.40494  -0.39540  -0.39206
 Alpha  occ. eigenvalues --   -0.38692  -0.37842  -0.37706  -0.37532  -0.36901
 Alpha  occ. eigenvalues --   -0.35981  -0.34707  -0.34006  -0.33118  -0.31792
 Alpha  occ. eigenvalues --   -0.30890  -0.30455  -0.30112  -0.29000  -0.24309
 Alpha  occ. eigenvalues --   -0.21679
 Alpha virt. eigenvalues --   -0.09152  -0.01894   0.00138   0.01331   0.02003
 Alpha virt. eigenvalues --    0.04976   0.05499   0.06073   0.06956   0.08373
 Alpha virt. eigenvalues --    0.08428   0.08697   0.09019   0.09656   0.10366

 Mulliken charges:
               1
     1  Mg  11.998002
     2  C    6.013365
     3  C    5.978787
     4  C    5.982258
     5  C    6.019504
     6  N    7.001443
     7  C    5.969561
     8  C    6.014890
     9  C    5.985914
    10  C    6.030576
    11  C    5.996953
    12  C    6.006644
    13  C    6.002206
    14  H    0.992771
    15  N    6.988875
    16  C    6.051031
    17  C    6.018497
    18  C    6.009135
    19  C    6.045593
    20  C    5.995863
    21  C    6.013754
    22  O    8.021876
    23  C    5.994097
    24  N    7.004911
    25  C    6.030724
    26  C    5.990325
    27  C    6.011701
    28  C    5.967114
    29  C    5.999545
    30  C    6.003275
    31  C    6.001251
    32  N    7.002721
    33  C    5.960784
    34  C    5.965769
    35  C    5.997600
    36  C    5.968347
    37  C    6.004059
    38  C    5.983435
    39  O    7.970742
    40  C    5.998218
    41  C    5.994854
    42  O    7.995904
    43  O    7.999935
    44  C    6.002302
    45  H    1.008980
    46  H    1.008361
    47  H    0.995814
    48  H    0.999067
    49  H    1.003641
    50  H    1.001112
    51  H    1.014383
    52  H    0.997051
    53  H    1.006391
    54  H    0.991249
    55  H    0.984504
    56  H    1.008207
    57  H    1.021271
    58  H    1.019156
    59  H    1.016469
    60  H    1.013294
    61  H    1.012058
    62  H    1.007428
    63  H    1.000838
    64  H    0.999908
    65  H    0.995978
    66  H    1.010295
    67  H    1.000552
    68  H    1.000988
    69  H    0.989643
    70  H    0.994701
    71  H    1.002240
    72  H    1.002402
    73  H    0.974253
    74  H    0.985879
    75  H    0.974645
    76  H    0.990625
    77  H    0.995452
    78  H    0.998048
    79  H    0.990006
 Sum of Mulliken charges = 312.00000

 Dipole moment (field-independent basis, Debye):
    X=             -7.8555    Y=             -7.5434    Z=             -0.2541  Tot=             10.8938
 Quadrupole moment (field-independent basis, Debye-Ang):
   XX=              6.3547   YY=             -0.3063   ZZ=             -1.0817
   XY=              3.9224   XZ=              2.6545   YZ=              1.2298

 Normal termination of Gaussian 16 at Fri Oct  8 17:26:50 2021.
