 Gaussian 16, Revision A.03,
 Gaussian 16:  ES64L-G16RevA.03 25-Dec-2016

 -----------------------------------
 #p cam-b3lyp/Def2SVP td=(nstates=5)
 -----------------------------------

 --------------------------------
 TDDFT excited states in gaussian
 --------------------------------
 Symbolic Z-matrix:
 Charge =  0 Multiplicity = 1

                         Standard orientation:
 ---------------------------------------------------------------------
 Center     Atomic      Atomic             Coordinates (Angstroms)
 Number     Number       Type             X           Y           Z
 ---------------------------------------------------------------------
      1         12           0      -11.631308    0.159093   -0.398476
      2          6           0       -8.597036   -1.422775    0.115744
      3          6           0      -13.263921   -2.823117    0.237727
      4          6           0      -14.512794    1.901334   -0.160844
      5          6           0       -9.789282    3.153773   -0.675011
      6          7           0      -10.997029   -1.834795    0.401762
      7          6           0       -9.727050   -2.242571    0.326306
      8          6           0       -9.610954   -3.721210    0.809872
      9          6           0      -11.109470   -4.235572    0.576787
     10          6           0      -11.871516   -2.881442    0.309827
     11          6           0      -11.208809   -5.329201   -0.513907
     12          6           0       -9.262899   -3.769716    2.280219
     13          6           0       -8.256999   -4.837626    2.680648
     14          1           0       -8.356363   -5.639107    4.033010
     15          7           0      -13.660616   -0.467017   -0.177911
     16          6           0      -14.136193   -1.683120    0.140963
     17          6           0      -15.559715   -1.591594    0.177989
     18          6           0      -15.970088   -0.254990   -0.111783
     19          6           0      -14.703378    0.481561   -0.203360
     20          6           0      -16.414346   -2.799498    0.291531
     21          6           0      -17.381289    0.213110   -0.069236
     22          8           0      -18.285644   -0.582313    0.124066
     23          6           0      -17.748147    1.668830   -0.331680
     24          7           0      -12.088104    2.323853   -0.506409
     25          6           0      -13.374082    2.724330   -0.301134
     26          6           0      -13.441279    4.204653   -0.109474
     27          6           0      -11.896288    4.594359   -0.272246
     28          6           0      -11.161738    3.311549   -0.573267
     29          6           0      -14.416794    4.934541   -1.051670
     30          6           0      -11.249326    5.402053    0.938544
     31          6           0      -10.486057    6.723046    0.683563
     32          7           0       -9.655053    0.767955   -0.331860
     33          6           0       -9.067464    1.977815   -0.529923
     34          6           0       -7.701710    1.814485   -0.765660
     35          6           0       -7.421238    0.472126   -0.551589
     36          6           0       -8.621456   -0.104685   -0.219708
     37          6           0       -6.711257    2.978919   -1.060419
     38          6           0       -6.438982   -0.507965   -0.544197
     39          8           0       -5.227677   -0.364600   -0.668050
     40          6           0       -7.107921   -1.880889   -0.052568
     41          6           0       -7.076464   -2.877641   -1.061234
     42          8           0       -7.757642   -3.017962   -2.079764
     43          8           0       -6.076533   -3.769771   -0.686398
     44          6           0       -5.767938   -4.928895   -1.506186
     45          1           0      -13.778474   -3.785035    0.281807
     46          1           0      -15.355986    2.593887   -0.108151
     47          1           0       -9.323775    4.124335   -0.859361
     48          1           0       -8.837790   -4.206496    0.214855
     49          1           0      -11.605849   -4.582279    1.482575
     50          1           0      -10.254243   -5.489030   -1.014879
     51          1           0      -11.967909   -5.046629   -1.244002
     52          1           0      -11.568499   -6.238465   -0.032831
     53          1           0      -10.085307   -3.842363    2.992175
     54          1           0       -8.921762   -2.760129    2.509193
     55          1           0       -7.271560   -4.381707    2.586517
     56          1           0       -8.357725   -5.539121    1.852498
     57          1           0      -16.688047   -2.995451   -0.745022
     58          1           0      -17.284276   -2.616859    0.922666
     59          1           0      -15.891478   -3.657566    0.714079
     60          1           0      -17.547383    2.194639    0.601888
     61          1           0      -18.833703    1.684174   -0.425690
     62          1           0      -17.193081    2.060265   -1.184097
     63          1           0      -13.775790    4.243758    0.926687
     64          1           0      -11.747108    5.311924   -1.079079
     65          1           0      -15.272289    5.212975   -0.435392
     66          1           0      -14.714674    4.328507   -1.907917
     67          1           0      -13.959187    5.861603   -1.396143
     68          1           0      -10.536626    4.748099    1.440835
     69          1           0      -11.986831    5.727833    1.672396
     70          1           0       -9.483164    6.323329    0.534016
     71          1           0      -10.486739    7.340353    1.580980
     72          1           0      -10.637075    7.273231   -0.245100
     73          1           0       -6.538370    3.525854   -0.134437
     74          1           0       -7.065120    3.748097   -1.747166
     75          1           0       -5.755213    2.595559   -1.418028
     76          1           0       -6.585545   -2.150521    0.865452
     77          1           0       -4.705589   -5.134097   -1.377890
     78          1           0       -6.085386   -4.859948   -2.546994
     79          1           0       -6.255906   -5.790367   -1.050057
     80         12           0       10.741300    0.859705   -0.215545
     81          6           0       11.930105   -2.359305   -0.608162
     82          6           0        7.672421   -0.474792    0.591564
     83          6           0        9.719824    3.992853    0.753567
     84          6           0       13.869192    2.111661   -0.922716
     85          7           0        9.958311   -1.159990    0.163114
     86          6           0       10.638090   -2.322623   -0.142292
     87          6           0        9.774709   -3.561549    0.080076
     88          6           0        8.336599   -2.923067    0.128101
     89          6           0        8.674645   -1.456238    0.351098
     90          6           0        7.357556   -3.228357   -1.094397
     91          6           0       10.148931   -4.458894    1.302644
     92          6           0       10.174984   -5.949915    1.040459
     93          1           0        9.038500   -6.675657    1.743672
     94          7           0        8.963699    1.599723    0.565810
     95          6           0        7.835529    0.918035    0.794332
     96          6           0        6.774284    1.808565    1.231297
     97          6           0        7.244111    3.108366    1.319276
     98          6           0        8.710753    2.961013    0.924830
     99          6           0        5.317699    1.279451    1.639302
    100          6           0        6.416017    4.391504    1.666129
    101          8           0        5.201072    4.259373    1.987157
    102          6           0        7.027216    5.740180    1.677575
    103          7           0       11.754450    2.820325    0.142353
    104          6           0       11.101923    3.939128    0.358834
    105          6           0       11.928461    5.170537    0.052400
    106          6           0       13.334077    4.659804   -0.413405
    107          6           0       12.991137    3.095327   -0.490013
    108          6           0       11.293153    6.363131   -0.731378
    109          6           0       14.600467    4.932690    0.448949
    110          6           0       15.891539    4.753312   -0.322638
    111          7           0       12.580373    0.035176   -0.671709
    112          6           0       13.785905    0.682264   -1.028963
    113          6           0       14.724705   -0.328193   -1.434040
    114          6           0       14.046249   -1.566602   -1.325605
    115          6           0       12.786860   -1.251865   -0.822756
    116          6           0       16.071900   -0.097779   -2.102475
    117          6           0       14.209638   -2.917144   -1.545725
    118          8           0       15.126180   -3.631660   -1.848189
    119          6           0       12.853414   -3.553555   -0.938745
    120          6           0       13.277835   -4.082285    0.430511
    121          8           0       13.409330   -3.415854    1.439054
    122          8           0       13.496360   -5.442440    0.282214
    123          6           0       14.019771   -6.135472    1.454983
    124          1           0        6.637791   -0.816881    0.659734
    125          1           0        9.325174    4.962202    1.064127
    126          1           0       14.860242    2.369164   -1.302110
    127          1           0        9.818051   -4.155973   -0.832087
    128          1           0        7.910482   -3.192588    1.095163
    129          1           0        6.677177   -2.378250   -1.045579
    130          1           0        6.695565   -4.080141   -0.936443
    131          1           0        7.816372   -3.338899   -2.076834
    132          1           0        9.372911   -4.220022    2.030137
    133          1           0       11.016226   -4.157681    1.889794
    134          1           0       11.141652   -6.320943    1.381798
    135          1           0       10.074467   -6.189667   -0.018269
    136          1           0        5.187699    0.197214    1.597542
    137          1           0        4.554715    1.733844    1.006374
    138          1           0        5.078227    1.452355    2.687605
    139          1           0        7.422086    5.968826    0.688180
    140          1           0        7.709583    5.865084    2.518437
    141          1           0        6.171586    6.413395    1.712766
    142          1           0       12.279781    5.728577    0.920554
    143          1           0       13.507800    4.827489   -1.476590
    144          1           0       10.218839    6.174036   -0.741196
    145          1           0       11.743946    6.538902   -1.708781
    146          1           0       11.401753    7.330091   -0.239948
    147          1           0       14.513974    4.285463    1.321608
    148          1           0       14.456219    5.947135    0.820551
    149          1           0       16.621303    5.447259    0.095223
    150          1           0       15.828645    4.957630   -1.392126
    151          1           0       16.300979    3.767176   -0.103409
    152          1           0       16.524730   -1.003111   -2.506826
    153          1           0       16.724982    0.376215   -1.370877
    154          1           0       15.987087    0.605446   -2.931034
    155          1           0       12.401667   -4.262900   -1.632864
    156          1           0       15.022329   -5.768782    1.675867
    157          1           0       14.002055   -7.217384    1.328156
    158          1           0       13.418635   -5.877209    2.326327
 ---------------------------------------------------------------------

 SCF Done:  E(RCAM-B3LYP) =  -4069.78770881     A.U. after   18 cycles

 Excitation energies and oscillator strengths:

 Excited State   1:      Singlet-A      1.6986 eV  729.91 nm  f=0.4370  <S**2>=0.000
     309 -> 315       -0.18491
     311 -> 313        0.68449
     309 <- 315       -0.10991
 This state for optimization and/or second-order correction.
 Total Energy, E(TD-HF/TD-DFT) =  -4069.72528567
 Copying the excited state density for this state as the 1-particle RhoCI density.

 Excited State   2:      Singlet-A      1.8677 eV  663.83 nm  f=0.3576  <S**2>=0.000
     310 -> 316        0.14284
     312 -> 314        0.68768

 Excited State   3:      Singlet-A      2.2279 eV  556.51 nm  f=0.0935  <S**2>=0.000
     309 -> 313        0.63653
     311 -> 315        0.29371

 Excited State   4:      Singlet-A      2.2645 eV  547.50 nm  f=0.1303  <S**2>=0.000
     310 -> 314        0.64649
     312 -> 316       -0.24700
     312 -> 318       -0.10267

 Excited State   5:      Singlet-A      2.9057 eV  426.69 nm  f=0.0000  <S**2>=0.000
     312 -> 313        0.70696

 The electronic state is 1-A.
 Alpha  occ. eigenvalues --  -46.89721 -46.89316 -19.24695 -19.24457 -19.20242
 Alpha  occ. eigenvalues --  -19.20120 -19.19807 -19.19282 -19.18384 -19.17644
 Alpha  occ. eigenvalues --  -14.42383 -14.42230 -14.42051 -14.41962 -14.40462
 Alpha  occ. eigenvalues --  -14.39837 -14.39232 -14.38408 -10.39672 -10.39022
 Alpha  occ. eigenvalues --  -10.36928 -10.35267 -10.34651 -10.33325 -10.32993
 Alpha  occ. eigenvalues --  -10.32342 -10.31650 -10.31634 -10.31578 -10.31428
 Alpha  occ. eigenvalues --  -10.31339 -10.31173 -10.31090 -10.30990 -10.30934
 Alpha  occ. eigenvalues --  -10.30276 -10.29807 -10.29719 -10.29694 -10.29469
 Alpha  occ. eigenvalues --  -10.29065 -10.28871 -10.28759 -10.28534 -10.28365
 Alpha  occ. eigenvalues --  -10.28359 -10.28343 -10.28320 -10.28307 -10.28278
 Alpha  occ. eigenvalues --  -10.28229 -10.28212 -10.28211 -10.27997 -10.27973
 Alpha  occ. eigenvalues --  -10.27844 -10.27831 -10.27792 -10.27431 -10.27403
 Alpha  occ. eigenvalues --  -10.27336 -10.27151 -10.27116 -10.27070 -10.27045
 Alpha  occ. eigenvalues --  -10.26886 -10.26873 -10.26855 -10.26843 -10.26820
 Alpha  occ. eigenvalues --  -10.26799 -10.26703 -10.26636 -10.26610 -10.26552
 Alpha  occ. eigenvalues --  -10.26361 -10.26102 -10.26059 -10.25920 -10.25889
 Alpha  occ. eigenvalues --  -10.25866 -10.25748 -10.25228 -10.24937 -10.24882
 Alpha  occ. eigenvalues --  -10.23021  -3.18043  -3.17755  -1.92956  -1.92639
 Alpha  occ. eigenvalues --   -1.92493  -1.92336  -1.92216  -1.92058  -1.15801
 Alpha  occ. eigenvalues --   -1.15398  -1.10070  -1.10018  -1.09727  -1.09040
 Alpha  occ. eigenvalues --   -1.07842  -1.07577  -1.05543  -1.04500  -1.04118
 Alpha  occ. eigenvalues --   -1.03893  -1.03761  -1.03106  -1.02644  -1.02466
 Alpha  occ. eigenvalues --   -0.93935  -0.91483  -0.89511  -0.89191  -0.89115
 Alpha  occ. eigenvalues --   -0.88433  -0.88411  -0.87928  -0.87886  -0.86975
 Alpha  occ. eigenvalues --   -0.86911  -0.86532  -0.86227  -0.85744  -0.85467
 Alpha  occ. eigenvalues --   -0.84676  -0.84425  -0.83559  -0.83122  -0.83088
 Alpha  occ. eigenvalues --   -0.82292  -0.81981  -0.81520  -0.80833  -0.80630
 Alpha  occ. eigenvalues --   -0.80147  -0.78214  -0.77654  -0.77555  -0.77077
 Alpha  occ. eigenvalues --   -0.76646  -0.76605  -0.76553  -0.75247  -0.75213
 Alpha  occ. eigenvalues --   -0.75061  -0.73548  -0.72428  -0.72311  -0.71614
 Alpha  occ. eigenvalues --   -0.69861  -0.69656  -0.69292  -0.69032  -0.68162
 Alpha  occ. eigenvalues --   -0.67828  -0.67459  -0.67271  -0.66217  -0.65954
 Alpha  occ. eigenvalues --   -0.65529  -0.65524  -0.65410  -0.64900  -0.64595
 Alpha  occ. eigenvalues --   -0.63966  -0.62757  -0.61632  -0.60542  -0.59927
 Alpha  occ. eigenvalues --   -0.59884  -0.59391  -0.59171  -0.59140  -0.58943
 Alpha  occ. eigenvalues --   -0.58380  -0.58222  -0.58033  -0.57767  -0.57311
 Alpha  occ. eigenvalues --   -0.56393  -0.56351  -0.56198  -0.55497  -0.55413
 Alpha  occ. eigenvalues --   -0.54965  -0.54916  -0.54423  -0.54116  -0.53836
 Alpha  occ. eigenvalues --   -0.53649  -0.53583  -0.53440  -0.53266  -0.53077
 Alpha  occ. eigenvalues --   -0.52692  -0.52633  -0.52372  -0.52127  -0.52120
 Alpha  occ. eigenvalues --   -0.51937  -0.51873  -0.51544  -0.51525  -0.51357
 Alpha  occ. eigenvalues --   -0.50952  -0.50729  -0.50439  -0.50414  -0.50178
 Alpha  occ. eigenvalues --   -0.50062  -0.50061  -0.49921  -0.49724  -0.49629
 Alpha  occ. eigenvalues --   -0.49480  -0.49362  -0.49065  -0.49026  -0.48949
 Alpha  occ. eigenvalues --   -0.48624  -0.48470  -0.48427  -0.48334  -0.48153
 Alpha  occ. eigenvalues --   -0.47566  -0.47507  -0.47276  -0.47078  -0.46917
 Alpha  occ. eigenvalues --   -0.46786  -0.46744  -0.46645  -0.46458  -0.46162
 Alpha  occ. eigenvalues --   -0.46109  -0.46045  -0.46005  -0.45877  -0.45852
 Alpha  occ. eigenvalues --   -0.45517  -0.45335  -0.45136  -0.45120  -0.45115
 Alpha  occ. eigenvalues --   -0.44968  -0.44791  -0.44742  -0.44584  -0.44558
 Alpha  occ. eigenvalues --   -0.44179  -0.43942  -0.43864  -0.43654  -0.43511
 Alpha  occ. eigenvalues --   -0.43429  -0.43340  -0.43205  -0.42993  -0.42907
 Alpha  occ. eigenvalues --   -0.42612  -0.42471  -0.42390  -0.42235  -0.42106
 Alpha  occ. eigenvalues --   -0.42094  -0.41965  -0.41964  -0.41873  -0.41523
 Alpha  occ. eigenvalues --   -0.41476  -0.41106  -0.40694  -0.40339  -0.40278
 Alpha  occ. eigenvalues --   -0.40084  -0.39785  -0.39770  -0.39202  -0.38891
 Alpha  occ. eigenvalues --   -0.38329  -0.38249  -0.38003  -0.37971  -0.37413
 Alpha  occ. eigenvalues --   -0.37307  -0.37265  -0.36412  -0.36333  -0.36253
 Alpha  occ. eigenvalues --   -0.35709  -0.35263  -0.34972  -0.34399  -0.34339
 Alpha  occ. eigenvalues --   -0.34221  -0.33653  -0.32994  -0.32338  -0.31864
 Alpha  occ. eigenvalues --   -0.31782  -0.31243  -0.30774  -0.30749  -0.30532
 Alpha  occ. eigenvalues --   -0.29585  -0.29479  -0.29023  -0.24587  -0.23983
 Alpha  occ. eigenvalues --   -0.21580  -0.21405
 Alpha virt. eigenvalues --   -0.09218  -0.08359  -0.02307  -0.01705  -0.00215
 Alpha virt. eigenvalues --    0.00208   0.01892   0.02075   0.02301   0.02480
 Alpha virt. eigenvalues --    0.04006   0.04599   0.05253   0.05469   0.05909

 Mulliken charges:
               1
     1  Mg   0.803433
     2  C   -0.053465
     3  C   -0.077677
     4  C   -0.031474
     5  C   -0.113854
     6  N   -0.266391
     7  C   -0.028613
     8  C   -0.077990
     9  C   -0.056761
    10  C    0.065574
    11  C    0.083065
    12  C    0.065143
    13  C   -0.060425
    14  H    0.028900
    15  N   -0.375697
    16  C    0.137256
    17  C   -0.161460
    18  C   -0.018955
    19  C    0.178073
    20  C    0.123840
    21  C   -0.042885
    22  O   -0.205003
    23  C    0.068015
    24  N   -0.281954
    25  C   -0.040103
    26  C   -0.032400
    27  C   -0.000410
    28  C    0.029913
    29  C    0.073836
    30  C   -0.008503
    31  C   -0.012571
    32  N   -0.343838
    33  C    0.184317
    34  C   -0.180485
    35  C    0.103193
    36  C    0.131975
    37  C    0.117934
    38  C   -0.022225
    39  O   -0.171297
    40  C   -0.002613
    41  C    0.227946
    42  O   -0.227801
    43  O   -0.357626
    44  C    0.177960
    45  H   -0.025147
    46  H   -0.050631
    47  H   -0.029473
    48  H    0.015986
    49  H    0.020278
    50  H    0.026849
    51  H    0.012910
    52  H    0.013847
    53  H    0.013135
    54  H    0.002868
    55  H    0.032604
    56  H    0.023500
    57  H    0.036649
    58  H    0.042156
    59  H    0.002286
    60  H    0.036938
    61  H    0.025021
    62  H    0.043434
    63  H    0.026574
    64  H   -0.001295
    65  H    0.020712
    66  H    0.031733
    67  H    0.017641
    68  H    0.019651
    69  H    0.006284
    70  H    0.003162
    71  H    0.024600
    72  H    0.019007
    73  H    0.024844
    74  H    0.016572
    75  H    0.037796
    76  H    0.052371
    77  H    0.038212
    78  H    0.051806
    79  H    0.019223
    80  Mg   0.828955
    81  C   -0.030284
    82  C   -0.118079
    83  C   -0.096166
    84  C   -0.030634
    85  N   -0.261115
    86  C   -0.046118
    87  C   -0.037669
    88  C   -0.022788
    89  C    0.032229
    90  C    0.082754
    91  C    0.069540
    92  C   -0.053041
    93  H    0.008396
    94  N   -0.381739
    95  C    0.167475
    96  C   -0.136913
    97  C   -0.024761
    98  C    0.115671
    99  C    0.116936
   100  C    0.007407
   101  O   -0.226056
   102  C    0.070447
   103  N   -0.264436
   104  C    0.101648
   105  C   -0.027316
   106  C   -0.054130
   107  C    0.007703
   108  C    0.065037
   109  C    0.060339
   110  C    0.025702
   111  N   -0.347619
   112  C    0.034420
   113  C   -0.140466
   114  C    0.052284
   115  C    0.114910
   116  C    0.104390
   117  C   -0.012431
   118  O   -0.157581
   119  C   -0.046247
   120  C    0.232169
   121  O   -0.211989
   122  O   -0.335446
   123  C    0.185562
   124  H   -0.025361
   125  H   -0.042886
   126  H   -0.041302
   127  H   -0.000756
   128  H    0.006216
   129  H    0.005534
   130  H    0.021745
   131  H    0.031682
   132  H   -0.003984
   133  H    0.028791
   134  H    0.025500
   135  H    0.027196
   136  H   -0.002362
   137  H    0.042154
   138  H    0.035896
   139  H    0.040726
   140  H    0.068492
   141  H    0.028097
   142  H    0.010085
   143  H    0.006620
   144  H    0.011477
   145  H    0.019269
   146  H    0.006741
   147  H    0.016808
   148  H    0.001192
   149  H    0.007604
   150  H    0.022057
   151  H    0.031325
   152  H    0.034061
   153  H    0.015972
   154  H    0.019294
   155  H    0.024785
   156  H    0.038130
   157  H    0.041548
   158  H    0.026704
 Sum of Mulliken charges =  -0.00000

 Dipole moment (field-independent basis, Debye):
    X=             -2.4980    Y=              5.9452    Z=              0.0428  Tot=              6.4488
 Quadrupole moment (field-independent basis, Debye-Ang):
   XX=           -608.7567   YY=           -443.9399   ZZ=           -519.9679
   XY=             30.7830   XZ=              1.9407   YZ=            -13.3756

 Normal termination of Gaussian 16 at Wed Sep  1 08:10:15 2021.
