 Gaussian 16, Revision A.03,
 Gaussian 16:  ES64L-G16RevA.03 25-Dec-2016

 -----------------------------------
 #p cam-b3lyp/Def2SVP td=(nstates=5)
 -----------------------------------

 --------------------------------
 TDDFT excited states in gaussian
 --------------------------------
 Symbolic Z-matrix:
 Charge =  0 Multiplicity = 1

                         Standard orientation:
 ---------------------------------------------------------------------
 Center     Atomic      Atomic             Coordinates (Angstroms)
 Number     Number       Type             X           Y           Z
 ---------------------------------------------------------------------
      1         12           0       24.909622   -0.908197    0.082629
      2          6           0       26.423497    2.219739   -0.601632
      3          6           0       23.569758    0.632512    2.919806
      4          6           0       23.342252   -3.700220    0.808911
      5          6           0       26.973075   -2.395818   -2.287830
      6          7           0       24.988749    1.189669    0.984695
      7          6           0       25.534107    2.325064    0.466436
      8          6           0       25.352864    3.602591    1.303979
      9          6           0       24.503240    2.955096    2.511314
     10          6           0       24.376843    1.518435    2.098739
     11          6           0       25.205532    3.046402    3.923622
     12          6           0       24.574184    4.726258    0.545259
     13          6           0       25.185046    6.047035    0.093397
     14          1           0       24.377067    7.337941    0.108604
     15          7           0       23.562071   -1.469540    1.601853
     16          6           0       23.185630   -0.717975    2.724356
     17          6           0       22.387104   -1.576698    3.570239
     18          6           0       22.170053   -2.783220    2.909316
     19          6           0       22.993611   -2.670178    1.689761
     20          6           0       21.772704   -0.993090    4.796566
     21          6           0       21.397986   -4.037073    3.318523
     22          8           0       21.315012   -5.064019    2.637962
     23          6           0       20.584069   -3.952096    4.549287
     24          7           0       25.172159   -2.820603   -0.543538
     25          6           0       24.265168   -3.806848   -0.270705
     26          6           0       24.403103   -4.994994   -1.281988
     27          6           0       25.591744   -4.578499   -2.138563
     28          6           0       26.006936   -3.186977   -1.585202
     29          6           0       24.512406   -6.394064   -0.592171
     30          6           0       25.178828   -4.553948   -3.618104
     31          6           0       26.104389   -5.142369   -4.619963
     32          7           0       26.473627   -0.302556   -1.136618
     33          6           0       27.201188   -0.998387   -2.068702
     34          6           0       28.134243   -0.147588   -2.744898
     35          6           0       27.832421    1.228504   -2.290009
     36          6           0       26.787753    1.041093   -1.301410
     37          6           0       29.180020   -0.599737   -3.778461
     38          6           0       28.149396    2.675104   -2.395353
     39          8           0       28.876553    3.280275   -3.201192
     40          6           0       27.230215    3.354217   -1.298335
     41          6           0       28.278111    4.007375   -0.452368
     42          8           0       28.910841    3.530335    0.481900
     43          8           0       28.386210    5.274530   -0.744767
     44          6           0       29.477809    6.078045   -0.142795
     45          1           0       23.103040    1.274755    3.669139
     46          1           0       22.923114   -4.696774    0.960589
     47          1           0       27.561123   -2.867756   -3.077260
     48          1           0       26.338928    3.909015    1.655337
     49          1           0       23.477264    3.293035    2.660413
     50          1           0       26.269888    3.279571    3.935096
     51          1           0       25.111022    2.094685    4.445327
     52          1           0       24.690344    3.805082    4.513045
     53          1           0       23.750151    5.018546    1.196338
     54          1           0       24.162484    4.336688   -0.384914
     55          1           0       25.318343    5.845362   -0.969558
     56          1           0       26.090631    6.087168    0.698796
     57          1           0       20.684558   -1.018789    4.758104
     58          1           0       22.073254    0.046431    4.930000
     59          1           0       22.045910   -1.522270    5.708985
     60          1           0       19.968594   -3.053002    4.516333
     61          1           0       21.188141   -3.758949    5.435908
     62          1           0       19.892193   -4.781925    4.689906
     63          1           0       23.450792   -4.941472   -1.809313
     64          1           0       26.390400   -5.318516   -2.090097
     65          1           0       24.317276   -6.381300    0.480045
     66          1           0       25.490298   -6.862049   -0.699162
     67          1           0       23.891352   -7.115091   -1.123490
     68          1           0       25.066788   -3.487621   -3.810120
     69          1           0       24.247417   -5.074407   -3.839661
     70          1           0       26.273849   -4.340424   -5.338098
     71          1           0       25.690189   -6.068695   -5.017911
     72          1           0       27.106419   -5.358454   -4.248734
     73          1           0       30.108064   -0.839912   -3.260973
     74          1           0       29.311286    0.203338   -4.503520
     75          1           0       28.881786   -1.513028   -4.293763
     76          1           0       26.627037    4.099923   -1.815895
     77          1           0       29.443170    6.128922    0.944916
     78          1           0       29.545228    7.096205   -0.525574
     79          1           0       30.497532    5.755119   -0.350276
     80         12           0      -25.724544   -0.531644   -0.116864
     81          6           0      -24.219692    2.720131   -0.704546
     82          6           0      -26.104485    0.484496    3.075000
     83          6           0      -26.990162   -3.419975    0.391602
     84          6           0      -24.893118   -1.430356   -3.439200
     85          7           0      -25.206832    1.504597    1.061798
     86          6           0      -24.706924    2.658382    0.586690
     87          6           0      -24.771406    3.752806    1.669119
     88          6           0      -24.951309    2.784680    2.929634
     89          6           0      -25.502236    1.553855    2.342173
     90          6           0      -23.818116    2.694719    3.937974
     91          6           0      -25.943907    4.696094    1.349172
     92          6           0      -25.750317    6.123969    1.939367
     93          1           0      -24.361403    6.642300    2.536999
     94          7           0      -26.516447   -1.386040    1.529215
     95          6           0      -26.519208   -0.859622    2.806719
     96          6           0      -27.081430   -1.863872    3.704615
     97          6           0      -27.419445   -2.991420    2.916205
     98          6           0      -26.961999   -2.612393    1.549319
     99          6           0      -27.237289   -1.685114    5.149158
    100          6           0      -28.156044   -4.369550    3.333626
    101          8           0      -28.528035   -5.157925    2.508103
    102          6           0      -28.684044   -4.598757    4.761187
    103          7           0      -25.658279   -2.273707   -1.295514
    104          6           0      -26.407470   -3.295977   -0.890340
    105          6           0      -26.559847   -4.395955   -1.906265
    106          6           0      -26.248873   -3.586592   -3.188961
    107          6           0      -25.406144   -2.416615   -2.574046
    108          6           0      -25.542044   -5.614769   -1.714711
    109          6           0      -27.501689   -3.121184   -4.043431
    110          6           0      -28.804699   -3.972451   -4.037789
    111          7           0      -24.677116    0.349119   -1.710616
    112          6           0      -24.462891   -0.060067   -2.985539
    113          6           0      -23.922665    0.953939   -3.772341
    114          6           0      -23.776542    2.000865   -2.907665
    115          6           0      -24.254301    1.638604   -1.663731
    116          6           0      -23.646079    0.877731   -5.271359
    117          6           0      -23.322342    3.399368   -2.882665
    118          8           0      -22.695714    4.087050   -3.674796
    119          6           0      -23.691920    3.916227   -1.424110
    120          6           0      -22.496168    4.516388   -0.858811
    121          8           0      -21.526386    3.925443   -0.373197
    122          8           0      -22.516034    5.822417   -1.197513
    123          6           0      -21.221871    6.459724   -1.032996
    124          1           0      -26.056733    0.747925    4.133742
    125          1           0      -27.392411   -4.410340    0.612312
    126          1           0      -24.744827   -1.721392   -4.481024
    127          1           0      -23.812733    4.258173    1.786637
    128          1           0      -25.755570    3.221470    3.520072
    129          1           0      -24.092018    3.122164    4.902056
    130          1           0      -22.936539    3.212670    3.560756
    131          1           0      -23.452080    1.681916    4.106494
    132          1           0      -26.821024    4.307415    1.867044
    133          1           0      -26.204453    4.738643    0.291785
    134          1           0      -26.539042    6.377996    2.648251
    135          1           0      -26.108952    6.749332    1.121927
    136          1           0      -27.291995   -0.631646    5.422767
    137          1           0      -26.361686   -2.162887    5.588986
    138          1           0      -28.140103   -2.138746    5.558703
    139          1           0      -29.496252   -3.928832    5.043256
    140          1           0      -27.790107   -4.592139    5.385216
    141          1           0      -29.026712   -5.628381    4.867207
    142          1           0      -27.587349   -4.724320   -1.751518
    143          1           0      -25.606169   -4.122390   -3.887070
    144          1           0      -26.206208   -6.471277   -1.828103
    145          1           0      -25.066604   -5.655255   -0.734073
    146          1           0      -24.759195   -5.701281   -2.467247
    147          1           0      -27.178854   -2.957361   -5.070575
    148          1           0      -27.780398   -2.214365   -3.506384
    149          1           0      -29.442141   -3.685297   -3.201893
    150          1           0      -28.432440   -4.997507   -4.039643
    151          1           0      -29.363501   -3.876654   -4.968094
    152          1           0      -24.387632    0.173406   -5.649100
    153          1           0      -22.674272    0.445447   -5.507942
    154          1           0      -23.770475    1.875487   -5.691818
    155          1           0      -24.479495    4.659667   -1.553369
    156          1           0      -21.216482    7.509669   -1.324326
    157          1           0      -20.356938    5.913930   -1.410319
    158          1           0      -20.969833    6.537757    0.025152
 ---------------------------------------------------------------------

 SCF Done:  E(RCAM-B3LYP) =  -4069.78049491     A.U. after   17 cycles

 Excitation energies and oscillator strengths:

 Excited State   1:      Singlet-A      1.7572 eV  705.57 nm  f=0.3805  <S**2>=0.000
     309 -> 315       -0.18343
     312 -> 313        0.68375
     309 <- 315       -0.10474
 This state for optimization and/or second-order correction.
 Total Energy, E(TD-HF/TD-DFT) =  -4069.71591818
 Copying the excited state density for this state as the 1-particle RhoCI density.

 Excited State   2:      Singlet-A      1.8346 eV  675.81 nm  f=0.3722  <S**2>=0.000
     310 -> 316       -0.18806
     311 -> 314        0.68158
     310 <- 316       -0.10395

 Excited State   3:      Singlet-A      2.2202 eV  558.44 nm  f=0.1051  <S**2>=0.000
     309 -> 313        0.63626
     312 -> 315        0.29384

 Excited State   4:      Singlet-A      2.2402 eV  553.45 nm  f=0.1578  <S**2>=0.000
     310 -> 314        0.65518
     311 -> 316        0.25326

 Excited State   5:      Singlet-A      3.3151 eV  374.00 nm  f=0.0000  <S**2>=0.000
     311 -> 313        0.70710

 The electronic state is 1-A.
 Alpha  occ. eigenvalues --  -46.89373 -46.88511 -19.25289 -19.24903 -19.20537
 Alpha  occ. eigenvalues --  -19.19566 -19.18871 -19.18856 -19.18775 -19.18173
 Alpha  occ. eigenvalues --  -14.42567 -14.41887 -14.41493 -14.41141 -14.39965
 Alpha  occ. eigenvalues --  -14.39807 -14.38970 -14.38655 -10.38631 -10.38225
 Alpha  occ. eigenvalues --  -10.36989 -10.35959 -10.35425 -10.34828 -10.31931
 Alpha  occ. eigenvalues --  -10.31619 -10.31388 -10.31260 -10.31095 -10.30897
 Alpha  occ. eigenvalues --  -10.30807 -10.30745 -10.30727 -10.30632 -10.30540
 Alpha  occ. eigenvalues --  -10.30508 -10.29613 -10.29598 -10.29439 -10.29411
 Alpha  occ. eigenvalues --  -10.29215 -10.29020 -10.28843 -10.28751 -10.28719
 Alpha  occ. eigenvalues --  -10.28607 -10.28512 -10.28420 -10.28382 -10.28021
 Alpha  occ. eigenvalues --  -10.28014 -10.27979 -10.27935 -10.27862 -10.27848
 Alpha  occ. eigenvalues --  -10.27718 -10.27695 -10.27537 -10.27518 -10.27504
 Alpha  occ. eigenvalues --  -10.27494 -10.27379 -10.27307 -10.27273 -10.27139
 Alpha  occ. eigenvalues --  -10.27133 -10.27042 -10.26966 -10.26512 -10.26507
 Alpha  occ. eigenvalues --  -10.26483 -10.26389 -10.26224 -10.26097 -10.26000
 Alpha  occ. eigenvalues --  -10.25839 -10.25808 -10.25673 -10.25626 -10.25549
 Alpha  occ. eigenvalues --  -10.25480 -10.25380 -10.25234 -10.25207 -10.24845
 Alpha  occ. eigenvalues --  -10.23731  -3.17874  -3.17107  -1.92775  -1.92347
 Alpha  occ. eigenvalues --   -1.92159  -1.92008  -1.91564  -1.91411  -1.17781
 Alpha  occ. eigenvalues --   -1.16496  -1.12619  -1.10068  -1.09463  -1.08372
 Alpha  occ. eigenvalues --   -1.06645  -1.06473  -1.05794  -1.05458  -1.05213
 Alpha  occ. eigenvalues --   -1.04646  -1.03993  -1.03423  -1.02762  -1.01345
 Alpha  occ. eigenvalues --   -0.92355  -0.91829  -0.89561  -0.89180  -0.89027
 Alpha  occ. eigenvalues --   -0.88777  -0.88757  -0.88117  -0.87703  -0.87532
 Alpha  occ. eigenvalues --   -0.86914  -0.86743  -0.85599  -0.85094  -0.84381
 Alpha  occ. eigenvalues --   -0.84323  -0.83464  -0.83115  -0.82861  -0.82681
 Alpha  occ. eigenvalues --   -0.82390  -0.81950  -0.80813  -0.80739  -0.80501
 Alpha  occ. eigenvalues --   -0.80105  -0.78760  -0.78616  -0.77481  -0.76858
 Alpha  occ. eigenvalues --   -0.76848  -0.76646  -0.76176  -0.75722  -0.75272
 Alpha  occ. eigenvalues --   -0.75144  -0.72765  -0.72213  -0.71800  -0.71671
 Alpha  occ. eigenvalues --   -0.69671  -0.69210  -0.68771  -0.68186  -0.67596
 Alpha  occ. eigenvalues --   -0.67588  -0.66913  -0.66779  -0.65857  -0.65453
 Alpha  occ. eigenvalues --   -0.65267  -0.65080  -0.64849  -0.64676  -0.64187
 Alpha  occ. eigenvalues --   -0.63693  -0.62388  -0.61815  -0.60932  -0.60823
 Alpha  occ. eigenvalues --   -0.59516  -0.59496  -0.59251  -0.58967  -0.58482
 Alpha  occ. eigenvalues --   -0.58416  -0.57927  -0.57833  -0.57625  -0.57487
 Alpha  occ. eigenvalues --   -0.56683  -0.56547  -0.55625  -0.55487  -0.55197
 Alpha  occ. eigenvalues --   -0.54958  -0.54634  -0.54292  -0.54164  -0.54053
 Alpha  occ. eigenvalues --   -0.53825  -0.53795  -0.53619  -0.53540  -0.52967
 Alpha  occ. eigenvalues --   -0.52904  -0.52881  -0.52625  -0.52550  -0.52282
 Alpha  occ. eigenvalues --   -0.52123  -0.51684  -0.51407  -0.51301  -0.51167
 Alpha  occ. eigenvalues --   -0.50665  -0.50563  -0.50472  -0.50433  -0.50045
 Alpha  occ. eigenvalues --   -0.50011  -0.49867  -0.49725  -0.49719  -0.49397
 Alpha  occ. eigenvalues --   -0.49093  -0.49047  -0.48927  -0.48777  -0.48695
 Alpha  occ. eigenvalues --   -0.48621  -0.48483  -0.48305  -0.48174  -0.48018
 Alpha  occ. eigenvalues --   -0.47914  -0.47792  -0.47513  -0.47417  -0.47402
 Alpha  occ. eigenvalues --   -0.47056  -0.46744  -0.46617  -0.46303  -0.46217
 Alpha  occ. eigenvalues --   -0.46073  -0.45822  -0.45769  -0.45565  -0.45446
 Alpha  occ. eigenvalues --   -0.45435  -0.45155  -0.45011  -0.44944  -0.44656
 Alpha  occ. eigenvalues --   -0.44640  -0.44385  -0.44342  -0.44334  -0.44243
 Alpha  occ. eigenvalues --   -0.44071  -0.44003  -0.43909  -0.43814  -0.43317
 Alpha  occ. eigenvalues --   -0.43263  -0.43179  -0.43044  -0.42973  -0.42797
 Alpha  occ. eigenvalues --   -0.42666  -0.42488  -0.42404  -0.42267  -0.42085
 Alpha  occ. eigenvalues --   -0.41887  -0.41630  -0.41426  -0.41392  -0.41364
 Alpha  occ. eigenvalues --   -0.41219  -0.40812  -0.40412  -0.40405  -0.40055
 Alpha  occ. eigenvalues --   -0.39828  -0.39744  -0.39497  -0.39344  -0.38614
 Alpha  occ. eigenvalues --   -0.38427  -0.38262  -0.38092  -0.37907  -0.37458
 Alpha  occ. eigenvalues --   -0.37223  -0.36612  -0.36611  -0.36367  -0.35934
 Alpha  occ. eigenvalues --   -0.35831  -0.35659  -0.34436  -0.34182  -0.33735
 Alpha  occ. eigenvalues --   -0.33428  -0.33076  -0.32490  -0.31940  -0.31905
 Alpha  occ. eigenvalues --   -0.31766  -0.31534  -0.30618  -0.30588  -0.30377
 Alpha  occ. eigenvalues --   -0.30299  -0.29488  -0.28700  -0.23900  -0.23385
 Alpha  occ. eigenvalues --   -0.21376  -0.21165
 Alpha virt. eigenvalues --   -0.08506  -0.08266  -0.01848  -0.01089  -0.00178
 Alpha virt. eigenvalues --    0.00556   0.02090   0.02411   0.02710   0.02732
 Alpha virt. eigenvalues --    0.04191   0.05256   0.05708   0.05782   0.05872

 Mulliken charges:
               1
     1  Mg   0.832105
     2  C    0.053311
     3  C   -0.082054
     4  C   -0.070460
     5  C   -0.080613
     6  N   -0.209686
     7  C   -0.071933
     8  C    0.011121
     9  C   -0.072285
    10  C   -0.024610
    11  C    0.046704
    12  C    0.028479
    13  C   -0.068375
    14  H    0.028061
    15  N   -0.362214
    16  C    0.170262
    17  C   -0.116448
    18  C   -0.038000
    19  C    0.148197
    20  C    0.098556
    21  C    0.036640
    22  O   -0.200893
    23  C    0.053966
    24  N   -0.348547
    25  C   -0.000968
    26  C   -0.010944
    27  C   -0.014557
    28  C    0.090623
    29  C    0.058949
    30  C    0.000423
    31  C    0.009594
    32  N   -0.370095
    33  C    0.134146
    34  C   -0.185254
    35  C   -0.007964
    36  C    0.094261
    37  C    0.119446
    38  C    0.044308
    39  O   -0.191193
    40  C   -0.048573
    41  C    0.168001
    42  O   -0.239957
    43  O   -0.278999
    44  C    0.189689
    45  H   -0.020168
    46  H   -0.008665
    47  H   -0.032247
    48  H    0.036448
    49  H    0.020274
    50  H    0.030097
    51  H    0.017473
    52  H    0.014708
    53  H    0.014819
    54  H    0.008478
    55  H    0.040753
    56  H    0.030035
    57  H    0.032448
    58  H    0.010812
    59  H    0.024868
    60  H    0.019508
    61  H    0.028223
    62  H    0.034466
    63  H    0.027696
    64  H    0.006904
    65  H    0.037039
    66  H    0.003323
    67  H    0.012712
    68  H    0.013032
    69  H    0.007202
    70  H    0.015203
    71  H    0.020898
    72  H    0.005593
    73  H    0.033354
    74  H    0.038395
    75  H    0.005118
    76  H    0.046528
    77  H    0.033286
    78  H    0.033835
    79  H    0.035330
    80  Mg   0.824263
    81  C    0.010018
    82  C   -0.058311
    83  C   -0.077487
    84  C   -0.071159
    85  N   -0.187778
    86  C   -0.104808
    87  C   -0.021623
    88  C   -0.036015
    89  C   -0.028544
    90  C    0.088092
    91  C    0.048999
    92  C   -0.037961
    93  H    0.035278
    94  N   -0.382875
    95  C    0.143300
    96  C   -0.137998
    97  C   -0.053154
    98  C    0.096501
    99  C    0.105624
   100  C    0.029683
   101  O   -0.167260
   102  C    0.040810
   103  N   -0.248123
   104  C    0.043860
   105  C   -0.049638
   106  C   -0.064519
   107  C    0.033773
   108  C    0.074633
   109  C    0.034656
   110  C    0.005243
   111  N   -0.317545
   112  C    0.075662
   113  C   -0.206292
   114  C    0.001042
   115  C    0.122216
   116  C    0.136335
   117  C    0.060794
   118  O   -0.161564
   119  C   -0.025057
   120  C    0.186372
   121  O   -0.243547
   122  O   -0.299414
   123  C    0.194953
   124  H   -0.035367
   125  H   -0.014022
   126  H   -0.022070
   127  H    0.018000
   128  H   -0.009346
   129  H    0.017778
   130  H    0.020680
   131  H    0.014754
   132  H    0.007800
   133  H    0.024759
   134  H    0.015710
   135  H    0.014662
   136  H    0.021424
   137  H    0.041735
   138  H    0.018442
   139  H    0.065196
   140  H    0.023176
   141  H    0.024010
   142  H    0.019514
   143  H   -0.009335
   144  H    0.020104
   145  H    0.023932
   146  H    0.021303
   147  H    0.012427
   148  H    0.003378
   149  H    0.029275
   150  H    0.014356
   151  H    0.015706
   152  H    0.005786
   153  H    0.029836
   154  H    0.032442
   155  H    0.043044
   156  H    0.030134
   157  H    0.042712
   158  H    0.006628
 Sum of Mulliken charges =  -0.00000

 Dipole moment (field-independent basis, Debye):
    X=             -7.8909    Y=             -0.6012    Z=              7.5997  Tot=             10.9719
 Quadrupole moment (field-independent basis, Debye-Ang):
   XX=           -520.9822   YY=           -499.2178   ZZ=           -477.7345
   XY=              3.7194   XZ=            -33.2111   YZ=             41.9503

 Normal termination of Gaussian 16 at Thu Sep  2 21:55:10 2021.
