 Gaussian 16, Revision A.03,
 Gaussian 16:  ES64L-G16RevA.03 25-Dec-2016

 -----------------------------------
 #p cam-b3lyp/Def2SVP td=(nstates=5)
 -----------------------------------

 --------------------------------
 TDDFT excited states in gaussian
 --------------------------------
 Symbolic Z-matrix:
 Charge =  0 Multiplicity = 1

                         Standard orientation:
 ---------------------------------------------------------------------
 Center     Atomic      Atomic             Coordinates (Angstroms)
 Number     Number       Type             X           Y           Z
 ---------------------------------------------------------------------
      1         12           0       24.149880    0.576870   -0.077025
      2          6           0       22.961676   -2.435176   -1.386506
      3          6           0       23.805799   -0.873975    3.096472
      4          6           0       24.734032    3.542384    1.359456
      5          6           0       23.433845    2.094486   -3.081594
      6          7           0       23.549057   -1.511586    0.798636
      7          6           0       23.058451   -2.496949    0.000641
      8          6           0       22.641393   -3.753013    0.863876
      9          6           0       22.688556   -3.117451    2.344064
     10          6           0       23.336178   -1.744595    2.096934
     11          6           0       21.204362   -2.876473    2.795837
     12          6           0       23.762590   -4.840787    0.680275
     13          6           0       23.653187   -6.131801    1.536503
     14          1           0       24.727229   -6.855482    2.292858
     15          7           0       24.442865    1.159239    1.910541
     16          6           0       24.303550    0.432980    3.105041
     17          6           0       24.580566    1.301888    4.170490
     18          6           0       25.032111    2.523038    3.688053
     19          6           0       24.754574    2.445786    2.263280
     20          6           0       24.561227    0.796325    5.575846
     21          6           0       25.538885    3.797696    4.440126
     22          8           0       25.929549    4.824361    3.894893
     23          6           0       25.797751    3.801753    5.949202
     24          7           0       23.970268    2.528731   -0.755931
     25          6           0       24.413219    3.561573   -0.004750
     26          6           0       24.548166    4.882169   -0.787811
     27          6           0       23.997674    4.450883   -2.175513
     28          6           0       23.893450    2.939775   -2.073114
     29          6           0       23.916976    6.126150   -0.078775
     30          6           0       24.772362    4.938658   -3.430393
     31          6           0       26.041185    4.257364   -3.724187
     32          7           0       23.452996   -0.009515   -1.915906
     33          6           0       23.218768    0.676428   -3.010534
     34          6           0       22.833871   -0.190049   -4.129331
     35          6           0       22.735898   -1.458977   -3.473962
     36          6           0       23.077479   -1.298069   -2.145403
     37          6           0       22.956084    0.048601   -5.561527
     38          6           0       22.440081   -2.858799   -3.724182
     39          8           0       22.214329   -3.445293   -4.758359
     40          6           0       22.513325   -3.508076   -2.336848
     41          6           0       21.202974   -4.212076   -1.969046
     42          8           0       20.214780   -3.646602   -1.578843
     43          8           0       21.321200   -5.556696   -2.228015
     44          6           0       20.092075   -6.309880   -1.888092
     45          1           0       23.819308   -1.376070    4.065215
     46          1           0       25.127992    4.484062    1.748058
     47          1           0       23.423605    2.777857   -3.932484
     48          1           0       21.626783   -4.089647    0.649410
     49          1           0       23.214530   -3.723758    3.082575
     50          1           0       20.855233   -1.844405    2.791383
     51          1           0       21.083429   -3.032554    3.868087
     52          1           0       20.472139   -3.461828    2.240051
     53          1           0       24.718819   -4.350852    0.861820
     54          1           0       23.791181   -5.088662   -0.381127
     55          1           0       23.134026   -6.832028    0.881434
     56          1           0       22.992845   -5.783460    2.329713
     57          1           0       24.258436   -0.243731    5.700022
     58          1           0       24.018130    1.521741    6.183130
     59          1           0       25.609382    0.833290    5.873943
     60          1           0       24.893534    3.706617    6.550501
     61          1           0       26.413823    4.628609    6.302927
     62          1           0       26.451099    2.951784    6.147039
     63          1           0       25.635578    4.946316   -0.760600
     64          1           0       22.977090    4.833578   -2.183176
     65          1           0       23.946248    6.014430    1.004584
     66          1           0       22.874378    6.221356   -0.383267
     67          1           0       24.452214    7.051308   -0.293560
     68          1           0       24.954203    5.982158   -3.175141
     69          1           0       24.103757    4.954570   -4.291316
     70          1           0       25.840297    3.338709   -4.275155
     71          1           0       26.614055    4.084430   -2.813345
     72          1           0       26.664609    4.835242   -4.407110
     73          1           0       23.745757    0.795035   -5.650478
     74          1           0       22.133338    0.511257   -6.106862
     75          1           0       23.198624   -0.912068   -6.014594
     76          1           0       23.331466   -4.228898   -2.352588
     77          1           0       19.976786   -7.120192   -2.607709
     78          1           0       19.148818   -5.787085   -2.047786
     79          1           0       20.174480   -6.767292   -0.902684
     80         12           0      -23.975386    0.643159    0.155506
     81          6           0      -21.646085   -1.846552    0.943124
     82          6           0      -26.310052   -1.761994   -0.511712
     83          6           0      -26.005604    3.032459   -0.898368
     84          6           0      -21.382557    3.042188    0.701697
     85          7           0      -23.931295   -1.572575    0.174370
     86          6           0      -22.920479   -2.411809    0.587447
     87          6           0      -23.439354   -3.828394    0.751806
     88          6           0      -24.832725   -3.784383    0.008531
     89          6           0      -25.057889   -2.234212   -0.023397
     90          6           0      -24.800053   -4.393849   -1.387250
     91          6           0      -23.375826   -4.251472    2.264699
     92          6           0      -24.083049   -5.603669    2.558165
     93          1           0      -24.095144   -6.622025    1.437117
     94          7           0      -25.833923    0.635229   -0.558828
     95          6           0      -26.626263   -0.461507   -0.873777
     96          6           0      -27.909988   -0.053592   -1.471138
     97          6           0      -27.812754    1.370387   -1.538330
     98          6           0      -26.505551    1.726392   -0.992771
     99          6           0      -28.986136   -1.012750   -1.818484
    100          6           0      -28.859183    2.306750   -2.085300
    101          8           0      -28.710424    3.560051   -2.064981
    102          6           0      -30.171415    1.790842   -2.610621
    103          7           0      -23.734357    2.768606   -0.011786
    104          6           0      -24.756497    3.485875   -0.478996
    105          6           0      -24.326582    5.007496   -0.663294
    106          6           0      -22.773519    5.007561   -0.170405
    107          6           0      -22.605463    3.528631    0.180660
    108          6           0      -24.538154    5.409342   -2.180415
    109          6           0      -22.491599    5.897370    1.114863
    110          6           0      -22.199716    7.401716    0.846549
    111          7           0      -21.952081    0.665211    0.631201
    112          6           0      -21.032090    1.701812    0.939921
    113          6           0      -19.710741    1.090277    1.403950
    114          6           0      -19.873910   -0.290401    1.352869
    115          6           0      -21.289617   -0.491907    0.951570
    116          6           0      -18.483974    1.806533    1.875044
    117          6           0      -19.274021   -1.578965    1.608644
    118          8           0      -18.147230   -1.906862    1.993635
    119          6           0      -20.464804   -2.657755    1.528716
    120          6           0      -20.101161   -3.870443    0.702898
    121          8           0      -20.236654   -3.938120   -0.488882
    122          8           0      -19.812259   -4.980888    1.527913
    123          6           0      -19.884400   -6.314435    0.912145
    124          1           0      -26.920963   -2.641126   -0.728728
    125          1           0      -26.674921    3.815052   -1.262140
    126          1           0      -20.520125    3.707023    0.784495
    127          1           0      -22.753580   -4.490056    0.224169
    128          1           0      -25.672276   -4.213999    0.556006
    129          1           0      -25.561718   -5.173420   -1.384173
    130          1           0      -23.780507   -4.715159   -1.599050
    131          1           0      -25.205551   -3.727650   -2.148355
    132          1           0      -23.660239   -3.321877    2.756729
    133          1           0      -22.314401   -4.354878    2.487537
    134          1           0      -25.094122   -5.297331    2.826623
    135          1           0      -23.586591   -6.063973    3.412301
    136          1           0      -29.045033   -0.913163   -2.902190
    137          1           0      -29.924925   -0.811830   -1.303028
    138          1           0      -28.828466   -2.079249   -1.652767
    139          1           0      -30.718211    1.321151   -1.794151
    140          1           0      -29.781546    1.122749   -3.379587
    141          1           0      -30.807124    2.512983   -3.122208
    142          1           0      -24.994002    5.478574    0.059377
    143          1           0      -22.001785    5.092975   -0.936590
    144          1           0      -24.901414    4.601931   -2.815974
    145          1           0      -23.593450    5.744886   -2.609095
    146          1           0      -25.333385    6.154187   -2.173843
    147          1           0      -21.791213    5.422765    1.801518
    148          1           0      -23.421041    5.890975    1.683322
    149          1           0      -22.917727    7.968585    1.438131
    150          1           0      -22.244700    7.575717   -0.228611
    151          1           0      -21.203567    7.691457    1.181818
    152          1           0      -18.444008    1.658757    2.954460
    153          1           0      -18.538595    2.863174    1.610298
    154          1           0      -17.518066    1.451422    1.516456
    155          1           0      -20.690481   -2.930663    2.559178
    156          1           0      -18.953573   -6.412276    0.354130
    157          1           0      -20.815714   -6.435056    0.358416
    158          1           0      -19.946662   -7.024338    1.736491
 ---------------------------------------------------------------------

 SCF Done:  E(RCAM-B3LYP) =  -4069.83710291     A.U. after   17 cycles

 Excitation energies and oscillator strengths:

 Excited State   1:      Singlet-A      1.7141 eV  723.31 nm  f=0.3849  <S**2>=0.000
     309 -> 315        0.19946
     312 -> 314        0.68037
     309 <- 315        0.11163
 This state for optimization and/or second-order correction.
 Total Energy, E(TD-HF/TD-DFT) =  -4069.77411031
 Copying the excited state density for this state as the 1-particle RhoCI density.

 Excited State   2:      Singlet-A      1.7450 eV  710.50 nm  f=0.3897  <S**2>=0.000
     310 -> 316       -0.18611
     311 -> 313        0.68384
     310 <- 316       -0.10700

 Excited State   3:      Singlet-A      2.2617 eV  548.19 nm  f=0.1153  <S**2>=0.000
     310 -> 313        0.64504
     311 -> 316        0.27672

 Excited State   4:      Singlet-A      2.2903 eV  541.35 nm  f=0.0346  <S**2>=0.000
     309 -> 314        0.58797
     312 -> 315       -0.38618

 Excited State   5:      Singlet-A      3.0814 eV  402.37 nm  f=0.0000  <S**2>=0.000
     312 -> 313        0.70711

 The electronic state is 1-A.
 Alpha  occ. eigenvalues --  -46.88687 -46.88058 -19.25764 -19.23964 -19.20392
 Alpha  occ. eigenvalues --  -19.20287 -19.19414 -19.19170 -19.18814 -19.18379
 Alpha  occ. eigenvalues --  -14.42224 -14.42137 -14.41546 -14.41041 -14.39939
 Alpha  occ. eigenvalues --  -14.39864 -14.39126 -14.39118 -10.39759 -10.39407
 Alpha  occ. eigenvalues --  -10.36149 -10.35521 -10.35234 -10.34489 -10.31791
 Alpha  occ. eigenvalues --  -10.31746 -10.31056 -10.30903 -10.30742 -10.30611
 Alpha  occ. eigenvalues --  -10.30598 -10.30555 -10.30353 -10.30344 -10.30339
 Alpha  occ. eigenvalues --  -10.30302 -10.30100 -10.29941 -10.29630 -10.29608
 Alpha  occ. eigenvalues --  -10.29598 -10.29464 -10.29213 -10.29092 -10.28678
 Alpha  occ. eigenvalues --  -10.28655 -10.28537 -10.28529 -10.28375 -10.28285
 Alpha  occ. eigenvalues --  -10.28178 -10.28127 -10.27942 -10.27726 -10.27718
 Alpha  occ. eigenvalues --  -10.27695 -10.27624 -10.27599 -10.27578 -10.27563
 Alpha  occ. eigenvalues --  -10.27486 -10.27405 -10.27254 -10.27150 -10.27080
 Alpha  occ. eigenvalues --  -10.27015 -10.26940 -10.26891 -10.26606 -10.26429
 Alpha  occ. eigenvalues --  -10.26423 -10.26332 -10.26207 -10.26173 -10.25973
 Alpha  occ. eigenvalues --  -10.25971 -10.25970 -10.25812 -10.25752 -10.25555
 Alpha  occ. eigenvalues --  -10.25386 -10.25269 -10.25252 -10.25138 -10.25111
 Alpha  occ. eigenvalues --  -10.24275  -3.17250  -3.16740  -1.92137  -1.91719
 Alpha  occ. eigenvalues --   -1.91645  -1.91537  -1.91181  -1.91071  -1.16811
 Alpha  occ. eigenvalues --   -1.15462  -1.10379  -1.10279  -1.09102  -1.08747
 Alpha  occ. eigenvalues --   -1.07793  -1.07762  -1.04951  -1.04316  -1.03763
 Alpha  occ. eigenvalues --   -1.03454  -1.03329  -1.02785  -1.02421  -1.01363
 Alpha  occ. eigenvalues --   -0.93802  -0.91593  -0.89416  -0.88901  -0.88564
 Alpha  occ. eigenvalues --   -0.88545  -0.88227  -0.87815  -0.87551  -0.87464
 Alpha  occ. eigenvalues --   -0.87202  -0.86713  -0.86309  -0.86180  -0.84235
 Alpha  occ. eigenvalues --   -0.84047  -0.83605  -0.82925  -0.82385  -0.82179
 Alpha  occ. eigenvalues --   -0.81918  -0.81519  -0.80906  -0.80743  -0.80392
 Alpha  occ. eigenvalues --   -0.79989  -0.78950  -0.78492  -0.77575  -0.77405
 Alpha  occ. eigenvalues --   -0.76964  -0.76564  -0.76133  -0.75749  -0.74842
 Alpha  occ. eigenvalues --   -0.74531  -0.72462  -0.72054  -0.71780  -0.71456
 Alpha  occ. eigenvalues --   -0.70032  -0.69398  -0.69143  -0.68602  -0.68336
 Alpha  occ. eigenvalues --   -0.68262  -0.67052  -0.66986  -0.65498  -0.65351
 Alpha  occ. eigenvalues --   -0.65116  -0.64808  -0.64421  -0.63991  -0.63930
 Alpha  occ. eigenvalues --   -0.63751  -0.62468  -0.61252  -0.60624  -0.60051
 Alpha  occ. eigenvalues --   -0.59481  -0.59428  -0.59358  -0.58683  -0.58613
 Alpha  occ. eigenvalues --   -0.58222  -0.57782  -0.57499  -0.57330  -0.56760
 Alpha  occ. eigenvalues --   -0.56533  -0.56138  -0.55934  -0.55708  -0.55485
 Alpha  occ. eigenvalues --   -0.55216  -0.54576  -0.54509  -0.54225  -0.53994
 Alpha  occ. eigenvalues --   -0.53940  -0.53669  -0.53231  -0.53229  -0.53119
 Alpha  occ. eigenvalues --   -0.52670  -0.52527  -0.52498  -0.52196  -0.52075
 Alpha  occ. eigenvalues --   -0.51887  -0.51735  -0.51425  -0.51142  -0.51111
 Alpha  occ. eigenvalues --   -0.50995  -0.50818  -0.50580  -0.50468  -0.50266
 Alpha  occ. eigenvalues --   -0.50050  -0.49902  -0.49609  -0.49521  -0.49435
 Alpha  occ. eigenvalues --   -0.49414  -0.49307  -0.49199  -0.48991  -0.48954
 Alpha  occ. eigenvalues --   -0.48868  -0.48801  -0.48490  -0.48477  -0.48093
 Alpha  occ. eigenvalues --   -0.48040  -0.47882  -0.47479  -0.47372  -0.47076
 Alpha  occ. eigenvalues --   -0.46863  -0.46639  -0.46166  -0.46096  -0.46061
 Alpha  occ. eigenvalues --   -0.45981  -0.45717  -0.45716  -0.45580  -0.45349
 Alpha  occ. eigenvalues --   -0.45192  -0.45145  -0.45056  -0.44949  -0.44841
 Alpha  occ. eigenvalues --   -0.44715  -0.44635  -0.44406  -0.44188  -0.44163
 Alpha  occ. eigenvalues --   -0.44059  -0.43977  -0.43835  -0.43647  -0.43453
 Alpha  occ. eigenvalues --   -0.43317  -0.43224  -0.43108  -0.43056  -0.42881
 Alpha  occ. eigenvalues --   -0.42880  -0.42553  -0.42536  -0.42384  -0.42372
 Alpha  occ. eigenvalues --   -0.42327  -0.42085  -0.41828  -0.41639  -0.41499
 Alpha  occ. eigenvalues --   -0.41270  -0.40895  -0.40751  -0.40317  -0.40233
 Alpha  occ. eigenvalues --   -0.40171  -0.39591  -0.39211  -0.39060  -0.38822
 Alpha  occ. eigenvalues --   -0.38484  -0.38455  -0.38206  -0.37972  -0.37827
 Alpha  occ. eigenvalues --   -0.37727  -0.37305  -0.36694  -0.36636  -0.36337
 Alpha  occ. eigenvalues --   -0.36258  -0.35878  -0.34906  -0.34520  -0.34249
 Alpha  occ. eigenvalues --   -0.34129  -0.33161  -0.33142  -0.31422  -0.31299
 Alpha  occ. eigenvalues --   -0.31071  -0.30915  -0.30787  -0.30498  -0.30474
 Alpha  occ. eigenvalues --   -0.30032  -0.30014  -0.29161  -0.23969  -0.23772
 Alpha  occ. eigenvalues --   -0.21054  -0.20412
 Alpha virt. eigenvalues --   -0.08364  -0.07871  -0.02123  -0.01309  -0.00196
 Alpha virt. eigenvalues --    0.00456   0.01919   0.02185   0.02577   0.03275
 Alpha virt. eigenvalues --    0.04506   0.04971   0.05170   0.05565   0.05893

 Mulliken charges:
               1
     1  Mg   0.838652
     2  C    0.003022
     3  C   -0.061075
     4  C   -0.104778
     5  C   -0.054725
     6  N   -0.218663
     7  C   -0.092758
     8  C   -0.042354
     9  C   -0.061306
    10  C    0.011016
    11  C    0.050356
    12  C    0.024666
    13  C   -0.040716
    14  H    0.041587
    15  N   -0.391187
    16  C    0.155147
    17  C   -0.142593
    18  C   -0.042413
    19  C    0.127194
    20  C    0.119217
    21  C    0.040018
    22  O   -0.203586
    23  C    0.039545
    24  N   -0.333288
    25  C    0.048239
    26  C   -0.057744
    27  C    0.015419
    28  C   -0.039454
    29  C    0.082143
    30  C    0.031339
    31  C    0.039686
    32  N   -0.320471
    33  C    0.146498
    34  C   -0.155197
    35  C   -0.024217
    36  C    0.123376
    37  C    0.118394
    38  C    0.036035
    39  O   -0.149043
    40  C   -0.004688
    41  C    0.202134
    42  O   -0.198415
    43  O   -0.329913
    44  C    0.164253
    45  H   -0.038349
    46  H   -0.000505
    47  H   -0.043699
    48  H    0.025044
    49  H    0.023749
    50  H    0.021454
    51  H    0.003562
    52  H    0.029340
    53  H    0.011261
    54  H    0.008505
    55  H    0.027385
    56  H    0.016241
    57  H    0.020649
    58  H    0.026120
    59  H    0.028269
    60  H    0.036712
    61  H    0.028200
    62  H    0.021098
    63  H    0.014631
    64  H    0.015021
    65  H    0.028225
    66  H    0.010061
    67  H    0.017411
    68  H   -0.003793
    69  H    0.009899
    70  H    0.011551
    71  H    0.012322
    72  H    0.011263
    73  H    0.009245
    74  H    0.018042
    75  H    0.040666
    76  H    0.048843
    77  H    0.031866
    78  H    0.052125
    79  H    0.038233
    80  Mg   0.842081
    81  C   -0.020543
    82  C   -0.090088
    83  C   -0.079633
    84  C   -0.078344
    85  N   -0.250689
    86  C   -0.044750
    87  C   -0.012965
    88  C   -0.082140
    89  C   -0.014525
    90  C    0.091553
    91  C    0.015919
    92  C   -0.044478
    93  H    0.032168
    94  N   -0.411439
    95  C    0.200976
    96  C   -0.144023
    97  C   -0.033971
    98  C    0.153123
    99  C    0.122199
   100  C   -0.007202
   101  O   -0.241935
   102  C    0.080569
   103  N   -0.275390
   104  C    0.019570
   105  C   -0.035745
   106  C    0.002848
   107  C    0.012036
   108  C    0.060821
   109  C    0.002616
   110  C    0.023785
   111  N   -0.368226
   112  C    0.111816
   113  C   -0.177359
   114  C    0.032709
   115  C    0.112105
   116  C    0.110965
   117  C    0.072019
   118  O   -0.179433
   119  C   -0.071629
   120  C    0.225344
   121  O   -0.190673
   122  O   -0.375634
   123  C    0.183809
   124  H   -0.034865
   125  H   -0.005894
   126  H   -0.023956
   127  H    0.008538
   128  H    0.003666
   129  H    0.006438
   130  H    0.036721
   131  H    0.014651
   132  H    0.016670
   133  H    0.015045
   134  H    0.036664
   135  H    0.035915
   136  H    0.032168
   137  H    0.035683
   138  H    0.012024
   139  H    0.044587
   140  H    0.019938
   141  H    0.028099
   142  H    0.024687
   143  H    0.018551
   144  H    0.031734
   145  H    0.016270
   146  H    0.027664
   147  H    0.011357
   148  H   -0.004950
   149  H    0.019963
   150  H    0.018642
   151  H    0.014665
   152  H    0.037863
   153  H    0.005627
   154  H    0.037483
   155  H    0.062998
   156  H    0.049897
   157  H    0.033277
   158  H    0.033964
 Sum of Mulliken charges =  -0.00000

 Dipole moment (field-independent basis, Debye):
    X=             -3.0211    Y=             -1.7496    Z=              4.5128  Tot=              5.7056
 Quadrupole moment (field-independent basis, Debye-Ang):
   XX=           -275.4048   YY=           -481.3240   ZZ=           -507.0834
   XY=             65.8253   XZ=             65.2608   YZ=            -23.7072

 Normal termination of Gaussian 16 at Tue Aug 31 21:25:08 2021.
