 Gaussian 16, Revision A.03,
 Gaussian 16:  ES64L-G16RevA.03 25-Dec-2016

 -----------------------------------
 #p cam-b3lyp/Def2SVP td=(nstates=5)
 -----------------------------------

 --------------------------------
 TDDFT excited states in gaussian
 --------------------------------
 Symbolic Z-matrix:
 Charge =  0 Multiplicity = 1

                         Standard orientation:
 ---------------------------------------------------------------------
 Center     Atomic      Atomic             Coordinates (Angstroms)
 Number     Number       Type             X           Y           Z
 ---------------------------------------------------------------------
      1         12           0       18.732245   -0.053260    0.137837
      2          6           0       15.352870   -0.796955    0.121094
      3          6           0       18.601756    0.494402   -3.274904
      4          6           0       21.783505    1.374893    0.350036
      5          6           0       18.565089   -0.327221    3.649909
      6          7           0       17.074222    0.132254   -1.357097
      7          6           0       15.871357   -0.403647   -1.131828
      8          6           0       14.976010   -0.259728   -2.401209
      9          6           0       16.089154   -0.111161   -3.542822
     10          6           0       17.392118    0.122869   -2.686572
     11          6           0       16.098926   -1.299988   -4.533833
     12          6           0       14.140056    0.997092   -2.317540
     13          6           0       12.707507    0.865317   -2.810539
     14          1           0       11.967523    2.011114   -3.598386
     15          7           0       20.077792    0.661504   -1.357947
     16          6           0       19.845006    0.881852   -2.663328
     17          6           0       21.055586    1.370939   -3.239046
     18          6           0       22.066520    1.472320   -2.235743
     19          6           0       21.356463    1.132765   -0.996402
     20          6           0       21.215240    1.517639   -4.707143
     21          6           0       23.424250    2.032009   -2.471826
     22          8           0       23.771362    2.344300   -3.598729
     23          6           0       24.439602    2.167424   -1.343419
     24          7           0       20.067324    0.384426    1.850289
     25          6           0       21.234008    1.045106    1.608195
     26          6           0       21.847957    1.516871    2.886126
     27          6           0       20.784887    0.961514    3.947644
     28          6           0       19.738059    0.218768    3.155015
     29          6           0       23.305836    1.071348    3.105666
     30          6           0       20.155266    2.041517    4.934615
     31          6           0       20.170100    1.811649    6.464177
     32          7           0       17.320893   -0.486763    1.587284
     33          6           0       17.414596   -0.629906    2.935980
     34          6           0       16.292759   -1.299955    3.425929
     35          6           0       15.414595   -1.433130    2.359386
     36          6           0       16.050995   -0.860295    1.286896
     37          6           0       16.066422   -1.665598    4.922212
     38          6           0       14.179413   -1.908438    1.942412
     39          8           0       13.275961   -2.370154    2.630703
     40          6           0       13.979467   -1.496181    0.404828
     41          6           0       13.892025   -2.630829   -0.441835
     42          8           0       14.763854   -3.398112   -0.856912
     43          8           0       12.547992   -2.752345   -0.781052
     44          6           0       12.093586   -3.825716   -1.648370
     45          1           0       18.607240    0.516911   -4.366443
     46          1           0       22.759737    1.810675    0.574631
     47          1           0       18.654243   -0.464021    4.729727
     48          1           0       14.339686   -1.142200   -2.461764
     49          1           0       16.031819    0.823384   -4.099946
     50          1           0       15.415709   -2.090595   -4.224205
     51          1           0       17.111489   -1.696271   -4.616258
     52          1           0       15.841540   -0.907422   -5.517304
     53          1           0       14.539429    1.901303   -2.777342
     54          1           0       14.201495    1.291597   -1.269895
     55          1           0       12.113746    0.558265   -1.949738
     56          1           0       12.790536   -0.005869   -3.460319
     57          1           0       21.730742    0.598014   -4.983365
     58          1           0       21.791117    2.407941   -4.960512
     59          1           0       20.265720    1.593615   -5.237102
     60          1           0       24.161247    3.073972   -0.805813
     61          1           0       25.383430    2.416252   -1.827959
     62          1           0       24.447931    1.272886   -0.720791
     63          1           0       21.772548    2.594301    2.742895
     64          1           0       21.252849    0.294292    4.671495
     65          1           0       23.915551    1.960953    2.944277
     66          1           0       23.603444    0.252100    2.450357
     67          1           0       23.440401    0.779484    4.146924
     68          1           0       19.105590    2.171102    4.671401
     69          1           0       20.644759    3.013319    4.866913
     70          1           0       19.219482    1.290177    6.575200
     71          1           0       20.111098    2.763206    6.990943
     72          1           0       20.860691    1.092212    6.903973
     73          1           0       15.822928   -0.753677    5.465885
     74          1           0       16.932079   -2.056543    5.457259
     75          1           0       15.236113   -2.363909    5.030926
     76          1           0       13.102266   -0.849282    0.385324
     77          1           0       11.076465   -4.070304   -1.343747
     78          1           0       12.759144   -4.687160   -1.709646
     79          1           0       11.972139   -3.408212   -2.647991
     80         12           0      -18.491414    0.658603    0.074169
     81          6           0      -15.892035   -1.807603   -0.513228
     82          6           0      -20.402828   -1.937915    1.058790
     83          6           0      -20.783022    2.837257    0.526702
     84          6           0      -16.363406    3.120057   -1.322148
     85          7           0      -18.114977   -1.712364    0.275056
     86          6           0      -16.987028   -2.414443    0.070924
     87          6           0      -17.168426   -3.866301    0.553393
     88          6           0      -18.767593   -3.873231    0.587244
     89          6           0      -19.115306   -2.448967    0.706112
     90          6           0      -19.506757   -4.746743   -0.412547
     91          6           0      -16.447800   -4.032629    1.902448
     92          6           0      -16.014562   -5.502290    2.180001
     93          1           0      -16.034278   -6.645578    1.063123
     94          7           0      -20.379963    0.505645    0.764581
     95          6           0      -21.057446   -0.664332    1.049729
     96          6           0      -22.430519   -0.313792    1.399905
     97          6           0      -22.537440    1.096849    1.323294
     98          6           0      -21.191000    1.524494    0.848410
     99          6           0      -23.466814   -1.286142    1.751439
    100          6           0      -23.780203    2.067027    1.684341
    101          8           0      -23.652802    3.259912    1.731203
    102          6           0      -25.088705    1.511782    2.274914
    103          7           0      -18.632461    2.646547   -0.601537
    104          6           0      -19.648127    3.365350   -0.130118
    105          6           0      -19.542521    4.842231   -0.400195
    106          6           0      -18.011281    4.942571   -0.605910
    107          6           0      -17.695174    3.463394   -1.017338
    108          6           0      -20.346356    5.334401   -1.692380
    109          6           0      -17.173120    5.478944    0.629428
    110          6           0      -17.822532    6.473830    1.634906
    111          7           0      -16.603753    0.687406   -0.847133
    112          6           0      -15.836470    1.709211   -1.300947
    113          6           0      -14.546484    1.289681   -1.615655
    114          6           0      -14.566797   -0.053649   -1.370463
    115          6           0      -15.808521   -0.412571   -0.884505
    116          6           0      -13.393206    2.185438   -2.059425
    117          6           0      -13.684494   -1.229551   -1.409567
    118          8           0      -12.582784   -1.429711   -1.898659
    119          6           0      -14.543986   -2.399074   -0.757950
    120          6           0      -14.506155   -3.527984   -1.671028
    121          8           0      -15.158995   -3.665354   -2.710472
    122          8           0      -13.440118   -4.278105   -1.322162
    123          6           0      -13.056307   -5.216901   -2.361120
    124          1           0      -21.065833   -2.794294    1.198962
    125          1           0      -21.602133    3.546868    0.656513
    126          1           0      -15.712282    3.930690   -1.655315
    127          1           0      -16.860258   -4.583604   -0.207375
    128          1           0      -19.036917   -4.328350    1.539383
    129          1           0      -20.024907   -5.574646    0.070448
    130          1           0      -18.810521   -5.148364   -1.148551
    131          1           0      -20.226914   -4.207076   -1.027596
    132          1           0      -17.174359   -3.813775    2.685272
    133          1           0      -15.617730   -3.342240    2.051141
    134          1           0      -16.487527   -5.899585    3.078664
    135          1           0      -15.023478   -5.360828    2.610867
    136          1           0      -23.038885   -2.215146    2.127577
    137          1           0      -24.023050   -1.452155    0.828706
    138          1           0      -24.150834   -0.945722    2.529136
    139          1           0      -24.973948    1.075865    3.267311
    140          1           0      -25.489852    0.870474    1.489811
    141          1           0      -25.836527    2.303657    2.324753
    142          1           0      -19.961632    5.281790    0.504606
    143          1           0      -17.733568    5.582602   -1.443014
    144          1           0      -20.845993    6.224410   -1.310511
    145          1           0      -21.094938    4.628397   -2.053652
    146          1           0      -19.736807    5.636558   -2.543142
    147          1           0      -16.237650    5.895481    0.258648
    148          1           0      -17.062622    4.560429    1.206091
    149          1           0      -18.360483    5.931287    2.411931
    150          1           0      -18.416176    7.125124    0.992471
    151          1           0      -17.087186    7.131913    2.096530
    152          1           0      -13.599486    3.147136   -1.589055
    153          1           0      -13.382631    2.372845   -3.132745
    154          1           0      -12.462341    1.742480   -1.705793
    155          1           0      -14.059540   -2.644263    0.188030
    156          1           0      -12.182383   -5.814350   -2.103051
    157          1           0      -13.015234   -4.829181   -3.379137
    158          1           0      -13.813668   -5.994269   -2.467847
 ---------------------------------------------------------------------

 SCF Done:  E(RCAM-B3LYP) =  -4069.76369745     A.U. after   18 cycles

 Excitation energies and oscillator strengths:

 Excited State   1:      Singlet-A      1.6990 eV  729.75 nm  f=0.4079  <S**2>=0.000
     309 -> 315       -0.18509
     311 -> 313        0.68485
     309 <- 315       -0.10997
 This state for optimization and/or second-order correction.
 Total Energy, E(TD-HF/TD-DFT) =  -4069.70126040
 Copying the excited state density for this state as the 1-particle RhoCI density.

 Excited State   2:      Singlet-A      1.8346 eV  675.83 nm  f=0.3702  <S**2>=0.000
     310 -> 316        0.18806
     312 -> 314        0.68156
     310 <- 316        0.10395

 Excited State   3:      Singlet-A      2.2279 eV  556.52 nm  f=0.1006  <S**2>=0.000
     309 -> 313        0.63672
     311 -> 315        0.29380

 Excited State   4:      Singlet-A      2.2402 eV  553.45 nm  f=0.1569  <S**2>=0.000
     310 -> 314        0.65517
     312 -> 316       -0.25325

 Excited State   5:      Singlet-A      3.0581 eV  405.43 nm  f=0.0000  <S**2>=0.000
     312 -> 313        0.70710

 The electronic state is 1-A.
 Alpha  occ. eigenvalues --  -46.89662 -46.89347 -19.24872 -19.24601 -19.20512
 Alpha  occ. eigenvalues --  -19.20157 -19.19216 -19.18842 -19.18745 -19.18330
 Alpha  occ. eigenvalues --  -14.42323 -14.41994 -14.41466 -14.41114 -14.39938
 Alpha  occ. eigenvalues --  -14.39779 -14.39173 -14.38628 -10.39587 -10.38195
 Alpha  occ. eigenvalues --  -10.36965 -10.35200 -10.34799 -10.34598 -10.31540
 Alpha  occ. eigenvalues --  -10.31516 -10.31365 -10.31282 -10.31232 -10.31116
 Alpha  occ. eigenvalues --  -10.30880 -10.30779 -10.30718 -10.30606 -10.30508
 Alpha  occ. eigenvalues --  -10.29747 -10.29587 -10.29570 -10.29413 -10.29413
 Alpha  occ. eigenvalues --  -10.29184 -10.28788 -10.28687 -10.28485 -10.28474
 Alpha  occ. eigenvalues --  -10.28394 -10.28315 -10.28302 -10.28292 -10.28144
 Alpha  occ. eigenvalues --  -10.28141 -10.27950 -10.27821 -10.27786 -10.27769
 Alpha  occ. eigenvalues --  -10.27734 -10.27691 -10.27509 -10.27488 -10.27466
 Alpha  occ. eigenvalues --  -10.27354 -10.27344 -10.27281 -10.27248 -10.27110
 Alpha  occ. eigenvalues --  -10.27109 -10.27014 -10.26837 -10.26775 -10.26578
 Alpha  occ. eigenvalues --  -10.26505 -10.26485 -10.26199 -10.26068 -10.26030
 Alpha  occ. eigenvalues --  -10.26009 -10.25976 -10.25879 -10.25818 -10.25526
 Alpha  occ. eigenvalues --  -10.25453 -10.25353 -10.25207 -10.24881 -10.24823
 Alpha  occ. eigenvalues --  -10.23703  -3.17985  -3.17847  -1.92898  -1.92748
 Alpha  occ. eigenvalues --   -1.92435  -1.92320  -1.92278  -1.92132  -1.16465
 Alpha  occ. eigenvalues --   -1.15711  -1.12595  -1.10002  -1.09965  -1.09434
 Alpha  occ. eigenvalues --   -1.07488  -1.06615  -1.05768  -1.05484  -1.05186
 Alpha  occ. eigenvalues --   -1.04619  -1.04057  -1.03837  -1.03396  -1.02585
 Alpha  occ. eigenvalues --   -0.93871  -0.92327  -0.89454  -0.89154  -0.89121
 Alpha  occ. eigenvalues --   -0.88728  -0.88383  -0.88092  -0.87869  -0.87505
 Alpha  occ. eigenvalues --   -0.86887  -0.86854  -0.86170  -0.85571  -0.85397
 Alpha  occ. eigenvalues --   -0.84619  -0.84353  -0.83086  -0.83025  -0.82364
 Alpha  occ. eigenvalues --   -0.82231  -0.81926  -0.81458  -0.80775  -0.80712
 Alpha  occ. eigenvalues --   -0.80077  -0.78589  -0.78160  -0.77590  -0.76820
 Alpha  occ. eigenvalues --   -0.76619  -0.76538  -0.76481  -0.75694  -0.75245
 Alpha  occ. eigenvalues --   -0.75154  -0.73490  -0.72738  -0.72367  -0.71644
 Alpha  occ. eigenvalues --   -0.69799  -0.69645  -0.69241  -0.68744  -0.68098
 Alpha  occ. eigenvalues --   -0.67560  -0.67393  -0.66752  -0.66161  -0.65890
 Alpha  occ. eigenvalues --   -0.65463  -0.65425  -0.65053  -0.64838  -0.64650
 Alpha  occ. eigenvalues --   -0.63666  -0.62676  -0.61786  -0.60797  -0.60476
 Alpha  occ. eigenvalues --   -0.59866  -0.59488  -0.59224  -0.59102  -0.59078
 Alpha  occ. eigenvalues --   -0.58389  -0.58162  -0.57974  -0.57898  -0.57459
 Alpha  occ. eigenvalues --   -0.56521  -0.56333  -0.56128  -0.55458  -0.55438
 Alpha  occ. eigenvalues --   -0.55170  -0.54854  -0.54609  -0.54348  -0.54024
 Alpha  occ. eigenvalues --   -0.53769  -0.53589  -0.53515  -0.53374  -0.52941
 Alpha  occ. eigenvalues --   -0.52853  -0.52633  -0.52316  -0.52254  -0.52065
 Alpha  occ. eigenvalues --   -0.52060  -0.51810  -0.51658  -0.51477  -0.51285
 Alpha  occ. eigenvalues --   -0.51273  -0.51142  -0.50639  -0.50444  -0.50362
 Alpha  occ. eigenvalues --   -0.50116  -0.50019  -0.49989  -0.49692  -0.49568
 Alpha  occ. eigenvalues --   -0.49416  -0.49068  -0.49004  -0.48968  -0.48902
 Alpha  occ. eigenvalues --   -0.48749  -0.48593  -0.48363  -0.48278  -0.48269
 Alpha  occ. eigenvalues --   -0.47887  -0.47516  -0.47485  -0.47375  -0.47030
 Alpha  occ. eigenvalues --   -0.46864  -0.46733  -0.46716  -0.46685  -0.46589
 Alpha  occ. eigenvalues --   -0.46191  -0.46107  -0.45936  -0.45800  -0.45741
 Alpha  occ. eigenvalues --   -0.45451  -0.45419  -0.45276  -0.45051  -0.44916
 Alpha  occ. eigenvalues --   -0.44675  -0.44629  -0.44494  -0.44359  -0.44308
 Alpha  occ. eigenvalues --   -0.44043  -0.43885  -0.43882  -0.43787  -0.43585
 Alpha  occ. eigenvalues --   -0.43369  -0.43290  -0.43235  -0.43138  -0.42946
 Alpha  occ. eigenvalues --   -0.42851  -0.42640  -0.42460  -0.42238  -0.42161
 Alpha  occ. eigenvalues --   -0.42057  -0.42030  -0.41899  -0.41814  -0.41425
 Alpha  occ. eigenvalues --   -0.41396  -0.41337  -0.41046  -0.40387  -0.40229
 Alpha  occ. eigenvalues --   -0.39718  -0.39702  -0.39316  -0.38584  -0.38263
 Alpha  occ. eigenvalues --   -0.38235  -0.38188  -0.38064  -0.37948  -0.37432
 Alpha  occ. eigenvalues --   -0.37349  -0.37242  -0.36584  -0.36239  -0.35903
 Alpha  occ. eigenvalues --   -0.35648  -0.35632  -0.34887  -0.34339  -0.34155
 Alpha  occ. eigenvalues --   -0.33705  -0.33594  -0.32463  -0.31915  -0.31803
 Alpha  occ. eigenvalues --   -0.31508  -0.31178  -0.30696  -0.30591  -0.30473
 Alpha  occ. eigenvalues --   -0.30348  -0.29460  -0.29422  -0.24528  -0.23358
 Alpha  occ. eigenvalues --   -0.21522  -0.21349
 Alpha virt. eigenvalues --   -0.09160  -0.08239  -0.02250  -0.01062  -0.00152
 Alpha virt. eigenvalues --    0.00583   0.02360   0.02438   0.02540   0.02760
 Alpha virt. eigenvalues --    0.04082   0.04222   0.04678   0.05534   0.05737

 Mulliken charges:
               1
     1  Mg   0.803411
     2  C   -0.053498
     3  C   -0.077638
     4  C   -0.031545
     5  C   -0.113929
     6  N   -0.266411
     7  C   -0.028565
     8  C   -0.077915
     9  C   -0.056791
    10  C    0.065574
    11  C    0.083060
    12  C    0.065122
    13  C   -0.060468
    14  H    0.029002
    15  N   -0.375685
    16  C    0.137209
    17  C   -0.161461
    18  C   -0.019000
    19  C    0.178074
    20  C    0.123850
    21  C   -0.042903
    22  O   -0.205057
    23  C    0.068035
    24  N   -0.281945
    25  C   -0.040118
    26  C   -0.032407
    27  C   -0.000399
    28  C    0.029927
    29  C    0.073867
    30  C   -0.008448
    31  C   -0.012548
    32  N   -0.343843
    33  C    0.184310
    34  C   -0.180482
    35  C    0.103217
    36  C    0.131961
    37  C    0.117905
    38  C   -0.022208
    39  O   -0.171126
    40  C   -0.002480
    41  C    0.227925
    42  O   -0.227833
    43  O   -0.357534
    44  C    0.177801
    45  H   -0.025125
    46  H   -0.050706
    47  H   -0.029581
    48  H    0.016159
    49  H    0.020267
    50  H    0.026989
    51  H    0.012852
    52  H    0.013873
    53  H    0.013062
    54  H    0.002753
    55  H    0.032742
    56  H    0.023596
    57  H    0.036629
    58  H    0.042098
    59  H    0.002304
    60  H    0.036897
    61  H    0.024951
    62  H    0.043434
    63  H    0.026524
    64  H   -0.001308
    65  H    0.020658
    66  H    0.031748
    67  H    0.017597
    68  H    0.019588
    69  H    0.006232
    70  H    0.003081
    71  H    0.024503
    72  H    0.019035
    73  H    0.024500
    74  H    0.016601
    75  H    0.037816
    76  H    0.052465
    77  H    0.038748
    78  H    0.051784
    79  H    0.019223
    80  Mg   0.824292
    81  C    0.010043
    82  C   -0.058306
    83  C   -0.077511
    84  C   -0.071146
    85  N   -0.187807
    86  C   -0.104803
    87  C   -0.021613
    88  C   -0.036018
    89  C   -0.028525
    90  C    0.088084
    91  C    0.048992
    92  C   -0.037979
    93  H    0.035301
    94  N   -0.382889
    95  C    0.143288
    96  C   -0.137996
    97  C   -0.053147
    98  C    0.096499
    99  C    0.105619
   100  C    0.029666
   101  O   -0.167279
   102  C    0.040816
   103  N   -0.248120
   104  C    0.043899
   105  C   -0.049671
   106  C   -0.064510
   107  C    0.033750
   108  C    0.074639
   109  C    0.034660
   110  C    0.005245
   111  N   -0.317547
   112  C    0.075660
   113  C   -0.206279
   114  C    0.001049
   115  C    0.122213
   116  C    0.136331
   117  C    0.060794
   118  O   -0.161529
   119  C   -0.025076
   120  C    0.186393
   121  O   -0.243556
   122  O   -0.299405
   123  C    0.194946
   124  H   -0.035364
   125  H   -0.014044
   126  H   -0.022083
   127  H    0.018016
   128  H   -0.009348
   129  H    0.017781
   130  H    0.020698
   131  H    0.014749
   132  H    0.007790
   133  H    0.024768
   134  H    0.015710
   135  H    0.014692
   136  H    0.021428
   137  H    0.041734
   138  H    0.018426
   139  H    0.065187
   140  H    0.023178
   141  H    0.023984
   142  H    0.019499
   143  H   -0.009350
   144  H    0.020079
   145  H    0.023933
   146  H    0.021294
   147  H    0.012421
   148  H    0.003394
   149  H    0.029278
   150  H    0.014336
   151  H    0.015692
   152  H    0.005777
   153  H    0.029825
   154  H    0.032470
   155  H    0.043075
   156  H    0.030170
   157  H    0.042706
   158  H    0.006632
 Sum of Mulliken charges =  -0.00000

 Dipole moment (field-independent basis, Debye):
    X=             -3.2928    Y=              0.1929    Z=              5.7775  Tot=              6.6528
 Quadrupole moment (field-independent basis, Debye-Ang):
   XX=           -327.2715   YY=           -496.4307   ZZ=           -506.1256
   XY=             48.8467   XZ=              5.8097   YZ=              3.9253

 Normal termination of Gaussian 16 at Wed Sep  1 08:52:19 2021.
