 Gaussian 16, Revision A.03,
 Gaussian 16:  ES64L-G16RevA.03 25-Dec-2016

 -----------------------------------
 #p cam-b3lyp/Def2SVP td=(nstates=5)
 -----------------------------------

 --------------------------------
 TDDFT excited states in gaussian
 --------------------------------
 Symbolic Z-matrix:
 Charge =  0 Multiplicity = 1

                         Standard orientation:
 ---------------------------------------------------------------------
 Center     Atomic      Atomic             Coordinates (Angstroms)
 Number     Number       Type             X           Y           Z
 ---------------------------------------------------------------------
      1         12           0       25.514952   -0.694531    0.444621
      2          6           0       26.721459    1.889963   -1.655080
      3          6           0       24.671675    1.850210    2.687783
      4          6           0       24.248265   -2.950984    2.465378
      5          6           0       27.154422   -3.034196   -1.537305
      6          7           0       25.666586    1.585383    0.449785
      7          6           0       26.048835    2.420846   -0.555708
      8          6           0       25.971368    3.925908   -0.247181
      9          6           0       25.399710    3.812936    1.255887
     10          6           0       25.264317    2.331926    1.452014
     11          6           0       26.354095    4.414135    2.362175
     12          6           0       25.010069    4.698745   -1.208041
     13          6           0       25.460536    5.728847   -2.236513
     14          1           0       24.610691    6.951894   -2.554973
     15          7           0       24.510729   -0.594125    2.294081
     16          6           0       24.321083    0.539283    3.097815
     17          6           0       23.740303    0.091900    4.344052
     18          6           0       23.457725   -1.268299    4.245900
     19          6           0       24.026581   -1.653103    2.939505
     20          6           0       23.345101    1.116793    5.351711
     21          6           0       22.837911   -2.247955    5.241786
     22          8           0       22.674598   -3.453713    5.031681
     23          6           0       22.271356   -1.676176    6.481361
     24          7           0       25.742354   -2.708239    0.552218
     25          6           0       24.951610   -3.488477    1.349528
     26          6           0       24.949190   -4.975813    0.858371
     27          6           0       25.931160   -4.952906   -0.305789
     28          6           0       26.378739   -3.468667   -0.413654
     29          6           0       25.253971   -6.009282    1.991614
     30          6           0       25.242184   -5.481344   -1.573152
     31          6           0       25.985612   -6.434541   -2.436491
     32          7           0       26.786685   -0.646249   -1.192400
     33          6           0       27.354379   -1.666178   -1.913352
     34          6           0       28.099883   -1.165530   -3.029267
     35          6           0       27.826381    0.288496   -3.080801
     36          6           0       27.000062    0.523252   -1.912097
     37          6           0       28.948711   -2.008483   -3.996356
     38          6           0       28.049089    1.575693   -3.786312
     39          8           0       28.579461    1.806160   -4.886292
     40          6           0       27.325860    2.648755   -2.872521
     41          6           0       28.484380    3.543079   -2.558866
     42          8           0       29.305810    3.439063   -1.655980
     43          8           0       28.474949    4.599477   -3.324894
     44          6           0       29.622588    5.538503   -3.297482
     45          1           0       24.327275    2.743169    3.212962
     46          1           0       23.913130   -3.801560    3.062041
     47          1           0       27.602111   -3.788689   -2.186950
     48          1           0       26.990939    4.313272   -0.237453
     49          1           0       24.406483    4.212867    1.462322
     50          1           0       27.388853    4.601990    2.076975
     51          1           0       26.405901    3.736174    3.213385
     52          1           0       25.926123    5.355247    2.707981
     53          1           0       24.312988    5.241616   -0.569500
     54          1           0       24.446804    3.996814   -1.821645
     55          1           0       25.397377    5.133600   -3.147559
     56          1           0       26.462296    5.969303   -1.880337
     57          1           0       22.272117    1.111103    5.538459
     58          1           0       23.616488    2.119237    5.019755
     59          1           0       23.812318    0.967077    6.324580
     60          1           0       21.619426   -0.839345    6.230431
     61          1           0       23.024116   -1.178138    7.092604
     62          1           0       21.658883   -2.368691    7.057888
     63          1           0       23.912156   -5.098578    0.546406
     64          1           0       26.758182   -5.642327   -0.136799
     65          1           0       25.267149   -5.583227    2.994704
     66          1           0       26.214215   -6.511908    1.881940
     67          1           0       24.577304   -6.859310    1.905252
     68          1           0       25.045554   -4.565686   -2.129373
     69          1           0       24.311070   -6.018708   -1.394940
     70          1           0       25.976748   -5.972061   -3.423194
     71          1           0       25.546894   -7.429713   -2.364621
     72          1           0       27.049165   -6.522957   -2.213771
     73          1           0       29.968833   -2.061228   -3.617792
     74          1           0       28.901023   -1.546447   -4.982317
     75          1           0       28.600629   -3.039791   -4.058162
     76          1           0       26.600495    3.158885   -3.506069
     77          1           0       29.794287    6.000857   -2.326065
     78          1           0       29.567675    6.331595   -4.042938
     79          1           0       30.597813    5.130396   -3.561207
     80         12           0      -25.833113   -0.670555   -0.490472
     81          6           0      -26.366924    2.431695    1.060707
     82          6           0      -26.048071    0.724398   -3.511963
     83          6           0      -25.409600   -3.627149   -1.736590
     84          6           0      -26.648386   -2.125609    2.719952
     85          7           0      -26.277163    1.348632   -1.097091
     86          6           0      -26.292858    2.470227   -0.365935
     87          6           0      -26.561927    3.689561   -1.209535
     88          6           0      -26.867499    3.060001   -2.627648
     89          6           0      -26.362517    1.644497   -2.425320
     90          6           0      -28.334592    3.110652   -3.164886
     91          6           0      -25.246145    4.619484   -1.295504
     92          6           0      -25.535165    6.132755   -1.026752
     93          1           0      -24.162798    6.974145   -0.814477
     94          7           0      -25.499567   -1.298408   -2.299819
     95          6           0      -25.585276   -0.566330   -3.471772
     96          6           0      -25.039378   -1.354780   -4.542007
     97          6           0      -24.780895   -2.707536   -4.073112
     98          6           0      -25.118286   -2.593592   -2.602556
     99          6           0      -24.985876   -0.745705   -5.972568
    100          6           0      -24.271147   -4.001938   -4.696486
    101          8           0      -24.026360   -5.064177   -4.096496
    102          6           0      -23.964540   -3.855703   -6.144909
    103          7           0      -26.175479   -2.549738    0.394761
    104          6           0      -25.904453   -3.617765   -0.424449
    105          6           0      -26.234624   -4.938654    0.271550
    106          6           0      -26.316606   -4.489232    1.754014
    107          6           0      -26.451949   -2.969424    1.641893
    108          6           0      -27.508129   -5.596537   -0.393673
    109          6           0      -25.100381   -4.916056    2.680937
    110          6           0      -25.379351   -5.008637    4.189647
    111          7           0      -26.361236   -0.027581    1.518985
    112          6           0      -26.642381   -0.732563    2.649895
    113          6           0      -26.805689    0.145797    3.786607
    114          6           0      -26.627303    1.404764    3.184443
    115          6           0      -26.424746    1.259423    1.804568
    116          6           0      -27.095092   -0.132901    5.279511
    117          6           0      -26.576003    2.808842    3.482611
    118          8           0      -26.531198    3.435601    4.508649
    119          6           0      -26.568098    3.541556    2.042223
    120          6           0      -25.553532    4.574393    2.268008
    121          8           0      -24.301681    4.482579    2.201023
    122          8           0      -26.249266    5.678956    2.588556
    123          6           0      -25.505074    6.896076    2.915436
    124          1           0      -26.026021    1.186717   -4.501167
    125          1           0      -25.193683   -4.620443   -2.136087
    126          1           0      -26.794060   -2.618894    3.683229
    127          1           0      -27.361637    4.336824   -0.848445
    128          1           0      -26.268296    3.435391   -3.457404
    129          1           0      -28.724482    2.092806   -3.158136
    130          1           0      -28.246886    3.470261   -4.189964
    131          1           0      -29.068083    3.709933   -2.626622
    132          1           0      -24.663370    4.536145   -2.213613
    133          1           0      -24.530405    4.194561   -0.591670
    134          1           0      -26.149030    6.252206   -0.134241
    135          1           0      -26.013146    6.666963   -1.847530
    136          1           0      -24.025506   -0.244824   -6.086639
    137          1           0      -25.630567    0.124408   -6.102523
    138          1           0      -25.328338   -1.375656   -6.793200
    139          1           0      -23.190131   -3.124448   -6.373831
    140          1           0      -24.943195   -3.607828   -6.557683
    141          1           0      -23.675643   -4.789450   -6.628185
    142          1           0      -25.376613   -5.583420    0.080841
    143          1           0      -27.191734   -4.944053    2.218025
    144          1           0      -28.367753   -5.509221    0.270679
    145          1           0      -27.477147   -6.655434   -0.649030
    146          1           0      -27.897540   -5.113848   -1.290281
    147          1           0      -24.424001   -4.065620    2.590912
    148          1           0      -24.568232   -5.832725    2.425789
    149          1           0      -24.829992   -4.255480    4.755991
    150          1           0      -25.181556   -5.945735    4.710457
    151          1           0      -26.420263   -4.710366    4.306565
    152          1           0      -27.598265   -1.099448    5.306090
    153          1           0      -27.724170    0.647329    5.710041
    154          1           0      -26.124258   -0.208017    5.769234
    155          1           0      -27.525385    4.037007    1.879306
    156          1           0      -25.658433    7.619335    2.114703
    157          1           0      -24.466092    6.688954    3.169573
    158          1           0      -25.976435    7.358857    3.782384
 ---------------------------------------------------------------------

 SCF Done:  E(RCAM-B3LYP) =  -4069.79784231     A.U. after   17 cycles

 Excitation energies and oscillator strengths:

 Excited State   1:      Singlet-A      1.7272 eV  717.84 nm  f=0.3760  <S**2>=0.000
     309 -> 315       -0.19745
     312 -> 314        0.68095
     309 <- 315       -0.11062
 This state for optimization and/or second-order correction.
 Total Energy, E(TD-HF/TD-DFT) =  -4069.73436982
 Copying the excited state density for this state as the 1-particle RhoCI density.

 Excited State   2:      Singlet-A      1.7573 eV  705.55 nm  f=0.3846  <S**2>=0.000
     310 -> 316        0.18342
     311 -> 313        0.68374
     310 <- 316        0.10473

 Excited State   3:      Singlet-A      2.2202 eV  558.43 nm  f=0.1057  <S**2>=0.000
     310 -> 313        0.63626
     311 -> 316       -0.29385

 Excited State   4:      Singlet-A      2.2496 eV  551.13 nm  f=0.0629  <S**2>=0.000
     309 -> 314        0.61703
     312 -> 315        0.33568

 Excited State   5:      Singlet-A      3.2525 eV  381.19 nm  f=0.0000  <S**2>=0.000
     312 -> 313        0.70711

 The electronic state is 1-A.
 Alpha  occ. eigenvalues --  -46.88518 -46.87586 -19.25296 -19.24882 -19.19684
 Alpha  occ. eigenvalues --  -19.19572 -19.19051 -19.18864 -19.18443 -19.18180
 Alpha  occ. eigenvalues --  -14.42612 -14.42575 -14.41894 -14.41743 -14.39814
 Alpha  occ. eigenvalues --  -14.39472 -14.38977 -14.38420 -10.38639 -10.38584
 Alpha  occ. eigenvalues --  -10.36009 -10.35965 -10.35433 -10.34675 -10.31938
 Alpha  occ. eigenvalues --  -10.31726 -10.31626 -10.31395 -10.31206 -10.31102
 Alpha  occ. eigenvalues --  -10.31020 -10.30904 -10.30802 -10.30735 -10.30619
 Alpha  occ. eigenvalues --  -10.30516 -10.30288 -10.30129 -10.30055 -10.29482
 Alpha  occ. eigenvalues --  -10.29418 -10.29244 -10.29027 -10.28850 -10.28759
 Alpha  occ. eigenvalues --  -10.28736 -10.28726 -10.28614 -10.28556 -10.28390
 Alpha  occ. eigenvalues --  -10.28382 -10.28028 -10.28021 -10.27943 -10.27878
 Alpha  occ. eigenvalues --  -10.27869 -10.27851 -10.27757 -10.27749 -10.27727
 Alpha  occ. eigenvalues --  -10.27702 -10.27693 -10.27623 -10.27510 -10.27315
 Alpha  occ. eigenvalues --  -10.27049 -10.26974 -10.26820 -10.26663 -10.26516
 Alpha  occ. eigenvalues --  -10.26513 -10.26491 -10.26447 -10.26395 -10.26272
 Alpha  occ. eigenvalues --  -10.26076 -10.25886 -10.25846 -10.25835 -10.25815
 Alpha  occ. eigenvalues --  -10.25680 -10.25633 -10.25378 -10.25215 -10.24853
 Alpha  occ. eigenvalues --  -10.24453  -3.17115  -3.16430  -1.92015  -1.91571
 Alpha  occ. eigenvalues --   -1.91419  -1.91314  -1.90897  -1.90744  -1.17789
 Alpha  occ. eigenvalues --   -1.15950  -1.10788  -1.10074  -1.09405  -1.08380
 Alpha  occ. eigenvalues --   -1.06480  -1.05563  -1.05465  -1.05205  -1.04317
 Alpha  occ. eigenvalues --   -1.04000  -1.03606  -1.02769  -1.02425  -1.01352
 Alpha  occ. eigenvalues --   -0.92728  -0.91837  -0.89568  -0.89125  -0.89034
 Alpha  occ. eigenvalues --   -0.88784  -0.88276  -0.88061  -0.87710  -0.87462
 Alpha  occ. eigenvalues --   -0.86985  -0.86750  -0.86278  -0.85102  -0.84548
 Alpha  occ. eigenvalues --   -0.84330  -0.83841  -0.83472  -0.82868  -0.82687
 Alpha  occ. eigenvalues --   -0.82493  -0.82284  -0.81282  -0.80821  -0.80508
 Alpha  occ. eigenvalues --   -0.80316  -0.78767  -0.78233  -0.77489  -0.77334
 Alpha  occ. eigenvalues --   -0.76932  -0.76865  -0.76183  -0.75935  -0.75417
 Alpha  occ. eigenvalues --   -0.75151  -0.72802  -0.72220  -0.72146  -0.71807
 Alpha  occ. eigenvalues --   -0.69262  -0.69217  -0.68812  -0.68194  -0.67930
 Alpha  occ. eigenvalues --   -0.67603  -0.67231  -0.66920  -0.66067  -0.65864
 Alpha  occ. eigenvalues --   -0.65560  -0.65275  -0.64877  -0.64856  -0.64459
 Alpha  occ. eigenvalues --   -0.64194  -0.62395  -0.61784  -0.60939  -0.60251
 Alpha  occ. eigenvalues --   -0.59855  -0.59503  -0.59164  -0.58974  -0.58653
 Alpha  occ. eigenvalues --   -0.58489  -0.57991  -0.57841  -0.57633  -0.57170
 Alpha  occ. eigenvalues --   -0.56690  -0.56338  -0.55942  -0.55632  -0.55456
 Alpha  occ. eigenvalues --   -0.54965  -0.54380  -0.54300  -0.54172  -0.53935
 Alpha  occ. eigenvalues --   -0.53832  -0.53547  -0.53448  -0.53229  -0.52911
 Alpha  occ. eigenvalues --   -0.52791  -0.52632  -0.52571  -0.52557  -0.52237
 Alpha  occ. eigenvalues --   -0.52130  -0.51616  -0.51446  -0.51414  -0.51041
 Alpha  occ. eigenvalues --   -0.50744  -0.50570  -0.50440  -0.50403  -0.50181
 Alpha  occ. eigenvalues --   -0.50038  -0.50018  -0.49874  -0.49732  -0.49439
 Alpha  occ. eigenvalues --   -0.49404  -0.49066  -0.49053  -0.48941  -0.48703
 Alpha  occ. eigenvalues --   -0.48500  -0.48490  -0.48182  -0.48128  -0.48036
 Alpha  occ. eigenvalues --   -0.48025  -0.47799  -0.47435  -0.47424  -0.47276
 Alpha  occ. eigenvalues --   -0.46889  -0.46624  -0.46518  -0.46361  -0.46310
 Alpha  occ. eigenvalues --   -0.46080  -0.45923  -0.45829  -0.45730  -0.45572
 Alpha  occ. eigenvalues --   -0.45538  -0.45442  -0.45164  -0.45163  -0.45019
 Alpha  occ. eigenvalues --   -0.44901  -0.44647  -0.44349  -0.44250  -0.44049
 Alpha  occ. eigenvalues --   -0.44011  -0.43747  -0.43575  -0.43492  -0.43186
 Alpha  occ. eigenvalues --   -0.43112  -0.43052  -0.42890  -0.42876  -0.42804
 Alpha  occ. eigenvalues --   -0.42673  -0.42411  -0.42225  -0.42092  -0.41924
 Alpha  occ. eigenvalues --   -0.41894  -0.41637  -0.41400  -0.41360  -0.41227
 Alpha  occ. eigenvalues --   -0.41215  -0.40832  -0.40819  -0.40598  -0.40412
 Alpha  occ. eigenvalues --   -0.40334  -0.40063  -0.39835  -0.39612  -0.39505
 Alpha  occ. eigenvalues --   -0.38795  -0.38435  -0.37915  -0.37859  -0.37397
 Alpha  occ. eigenvalues --   -0.37230  -0.37014  -0.36619  -0.36375  -0.35839
 Alpha  occ. eigenvalues --   -0.35517  -0.35235  -0.34443  -0.33998  -0.33950
 Alpha  occ. eigenvalues --   -0.33435  -0.33083  -0.32987  -0.31911  -0.31772
 Alpha  occ. eigenvalues --   -0.31741  -0.31332  -0.30595  -0.30559  -0.30348
 Alpha  occ. eigenvalues --   -0.30306  -0.29623  -0.28708  -0.24201  -0.23908
 Alpha  occ. eigenvalues --   -0.21172  -0.21132
 Alpha virt. eigenvalues --   -0.08513  -0.08454  -0.02315  -0.01855  -0.00308
 Alpha virt. eigenvalues --   -0.00185   0.02083   0.02389   0.02701   0.03131
 Alpha virt. eigenvalues --    0.04773   0.05126   0.05248   0.05774   0.06092

 Mulliken charges:
               1
     1  Mg   0.832094
     2  C    0.053335
     3  C   -0.082053
     4  C   -0.070465
     5  C   -0.080620
     6  N   -0.209681
     7  C   -0.071957
     8  C    0.011136
     9  C   -0.072295
    10  C   -0.024595
    11  C    0.046700
    12  C    0.028484
    13  C   -0.068367
    14  H    0.028045
    15  N   -0.362202
    16  C    0.170267
    17  C   -0.116451
    18  C   -0.037988
    19  C    0.148179
    20  C    0.098554
    21  C    0.036638
    22  O   -0.200889
    23  C    0.053961
    24  N   -0.348549
    25  C   -0.000958
    26  C   -0.010954
    27  C   -0.014554
    28  C    0.090630
    29  C    0.058949
    30  C    0.000426
    31  C    0.009592
    32  N   -0.370097
    33  C    0.134145
    34  C   -0.185258
    35  C   -0.007974
    36  C    0.094264
    37  C    0.119451
    38  C    0.044316
    39  O   -0.191209
    40  C   -0.048624
    41  C    0.168015
    42  O   -0.239945
    43  O   -0.279006
    44  C    0.189688
    45  H   -0.020162
    46  H   -0.008661
    47  H   -0.032251
    48  H    0.036450
    49  H    0.020272
    50  H    0.030107
    51  H    0.017487
    52  H    0.014715
    53  H    0.014817
    54  H    0.008465
    55  H    0.040741
    56  H    0.030045
    57  H    0.032451
    58  H    0.010819
    59  H    0.024890
    60  H    0.019505
    61  H    0.028241
    62  H    0.034478
    63  H    0.027685
    64  H    0.006910
    65  H    0.037050
    66  H    0.003332
    67  H    0.012709
    68  H    0.013022
    69  H    0.007190
    70  H    0.015193
    71  H    0.020894
    72  H    0.005603
    73  H    0.033360
    74  H    0.038383
    75  H    0.005108
    76  H    0.046517
    77  H    0.033296
    78  H    0.033829
    79  H    0.035332
    80  Mg   0.852809
    81  C    0.059556
    82  C   -0.070807
    83  C   -0.057475
    84  C   -0.106747
    85  N   -0.271019
    86  C    0.000309
    87  C   -0.067182
    88  C   -0.030303
    89  C    0.007068
    90  C    0.073757
    91  C    0.057180
    92  C   -0.089401
    93  H    0.003760
    94  N   -0.473336
    95  C    0.176011
    96  C   -0.108101
    97  C   -0.095525
    98  C    0.154272
    99  C    0.089094
   100  C    0.047438
   101  O   -0.209005
   102  C    0.040321
   103  N   -0.291855
   104  C    0.056782
   105  C   -0.031473
   106  C   -0.009917
   107  C    0.037027
   108  C    0.062899
   109  C    0.033922
   110  C   -0.009098
   111  N   -0.270814
   112  C    0.124386
   113  C   -0.199731
   114  C    0.032769
   115  C    0.059078
   116  C    0.139562
   117  C    0.025843
   118  O   -0.148479
   119  C   -0.069248
   120  C    0.203340
   121  O   -0.256633
   122  O   -0.319711
   123  C    0.175301
   124  H   -0.039459
   125  H    0.000577
   126  H   -0.042875
   127  H    0.011945
   128  H    0.003435
   129  H    0.020787
   130  H    0.015878
   131  H    0.020565
   132  H    0.007591
   133  H    0.035324
   134  H    0.036304
   135  H    0.033634
   136  H    0.029957
   137  H    0.006235
   138  H    0.032736
   139  H    0.052574
   140  H    0.030747
   141  H    0.020741
   142  H    0.015896
   143  H    0.001413
   144  H   -0.000317
   145  H    0.021564
   146  H    0.019824
   147  H    0.012295
   148  H    0.017926
   149  H    0.013120
   150  H    0.020647
   151  H    0.010261
   152  H    0.013436
   153  H    0.043213
   154  H    0.041334
   155  H    0.043568
   156  H    0.032025
   157  H    0.059348
   158  H    0.031126
 Sum of Mulliken charges =  -0.00000

 Dipole moment (field-independent basis, Debye):
    X=             -5.7814    Y=              1.4470    Z=             -0.6176  Tot=              5.9916
 Quadrupole moment (field-independent basis, Debye-Ang):
   XX=           -556.2259   YY=           -480.0350   ZZ=           -503.3266
   XY=             31.8459   XZ=            198.8650   YZ=             -7.0193

 Normal termination of Gaussian 16 at Thu Sep  2 21:46:44 2021.
