 Gaussian 16, Revision A.03,
 Gaussian 16:  ES64L-G16RevA.03 25-Dec-2016

 ----------------------------------------------------------
 #p cam-b3lyp/Def2SVP td=(nstates=5) density=(transition=1)
 ----------------------------------------------------------

 --------------------------------
 TDDFT excited states in gaussian
 --------------------------------
 Symbolic Z-matrix:
 Charge =  0 Multiplicity = 1

                         Standard orientation:
 ---------------------------------------------------------------------
 Center     Atomic      Atomic             Coordinates (Angstroms)
 Number     Number       Type             X           Y           Z
 ---------------------------------------------------------------------
      1         12           0       -8.975775    0.622505   -0.062872
      2          6           0       -6.822520   -1.797819    1.376659
      3          6           0       -6.835784    3.011905    1.050153
      4          6           0      -10.574038    2.807018   -2.120259
      5          6           0      -10.731629   -1.972246   -1.545096
      6          7           0       -6.964815    0.471336    0.956811
      7          6           0       -6.304655   -0.571225    1.551232
      8          6           0       -5.116915   -0.115702    2.314594
      9          6           0       -5.359658    1.460173    2.457341
     10          6           0       -6.422804    1.678931    1.435736
     11          6           0       -5.766126    1.845479    3.870602
     12          6           0       -3.872251   -0.571564    1.537020
     13          6           0       -2.790759   -1.429466    2.319511
     14          1           0       -1.295573   -0.993382    2.373873
     15          7           0       -8.816349    2.634174   -0.485153
     16          6           0       -7.898650    3.466921    0.170115
     17          6           0       -8.216659    4.820019   -0.174769
     18          6           0       -9.288237    4.818251   -1.130457
     19          6           0       -9.653997    3.379475   -1.223641
     20          6           0       -7.465985    5.983967    0.459352
     21          6           0       -9.930861    5.988538   -1.840894
     22          8           0       -9.515533    7.112923   -1.436248
     23          6           0      -10.922032    5.974526   -3.038891
     24          7           0      -10.476966    0.465389   -1.637599
     25          6           0      -10.991511    1.519474   -2.308462
     26          6           0      -12.035341    1.110618   -3.381296
     27          6           0      -12.161268   -0.428145   -3.109222
     28          6           0      -10.990598   -0.671956   -2.044807
     29          6           0      -13.320610    1.889581   -3.166255
     30          6           0      -11.981914   -1.309421   -4.307535
     31          6           0      -13.236203   -2.025279   -4.729707
     32          7           0       -8.986670   -1.404140    0.004080
     33          6           0       -9.779015   -2.390639   -0.596564
     34          6           0       -9.544422   -3.634910   -0.064749
     35          6           0       -8.408686   -3.450970    0.750046
     36          6           0       -8.067506   -2.101586    0.693608
     37          6           0      -10.460565   -4.822666   -0.270349
     38          6           0       -7.506851   -4.144780    1.707574
     39          8           0       -7.521506   -5.279679    2.071264
     40          6           0       -6.425671   -3.046463    2.034723
     41          6           0       -6.119643   -3.155617    3.512584
     42          8           0       -5.103137   -3.668417    3.980771
     43          8           0       -7.141865   -2.538287    4.273646
     44          6           0       -6.831192   -2.506242    5.702522
     45          1           0       -6.289676    3.794938    1.580800
     46          1           0      -11.181183    3.484367   -2.725421
     47          1           0      -11.081925   -2.825023   -2.129254
     48          1           0       -5.111161   -0.592932    3.294634
     49          1           0       -4.424738    1.969149    2.224409
     50          1           0       -6.419199    1.114049    4.344653
     51          1           0       -6.367781    2.753423    3.817087
     52          1           0       -4.924318    2.081899    4.521382
     53          1           0       -3.389824    0.327286    1.153321
     54          1           0       -4.099924   -1.093541    0.607606
     55          1           0       -2.855099   -2.363082    1.760052
     56          1           0       -3.169205   -1.728127    3.296391
     57          1           0       -6.387782    5.845759    0.378718
     58          1           0       -7.728163    5.970508    1.517198
     59          1           0       -7.594649    6.970444    0.011809
     60          1           0      -11.836171    5.578053   -2.598161
     61          1           0      -10.531205    5.303694   -3.804054
     62          1           0      -11.053489    6.960471   -3.485478
     63          1           0      -11.722053    1.310729   -4.405634
     64          1           0      -13.073129   -0.632112   -2.548553
     65          1           0      -13.058836    2.945563   -3.097239
     66          1           0      -13.765920    1.555815   -2.228476
     67          1           0      -14.154578    1.746022   -3.852227
     68          1           0      -11.261987   -2.113542   -4.155217
     69          1           0      -11.600079   -0.836122   -5.211916
     70          1           0      -13.409331   -1.802904   -5.781922
     71          1           0      -14.125995   -1.654599   -4.220817
     72          1           0      -13.224849   -3.098769   -4.538056
     73          1           0      -10.209786   -5.533984    0.517226
     74          1           0      -10.318032   -5.291805   -1.243552
     75          1           0      -11.466562   -4.413010   -0.182276
     76          1           0       -5.534947   -3.464918    1.564675
     77          1           0       -7.333197   -1.666787    6.183759
     78          1           0       -5.782445   -2.269394    5.876081
     79          1           0       -7.054128   -3.445253    6.209885
     80         12           0        9.279880    0.170099   -0.067765
     81          6           0        6.485936   -2.097009    0.059915
     82          6           0        7.505394    2.212400    2.014074
     83          6           0       11.752278    2.406875   -0.435936
     84          6           0       10.631402   -1.786388   -2.496078
     85          7           0        7.157240    0.011391    0.993774
     86          6           0        6.288448   -1.035473    0.885563
     87          6           0        5.203284   -0.805927    1.867942
     88          6           0        5.434511    0.633417    2.405705
     89          6           0        6.774381    1.076376    1.756851
     90          6           0        4.276590    1.599693    1.999521
     91          6           0        5.078925   -1.834073    2.964393
     92          6           0        3.858152   -1.808960    3.869944
     93          1           0        3.149374   -3.083193    4.064608
     94          7           0        9.630890    1.974108    0.762099
     95          6           0        8.709700    2.722290    1.545948
     96          6           0        9.426019    3.931913    1.992393
     97          6           0       10.579525    4.000789    1.215489
     98          6           0       10.665311    2.771546    0.406319
     99          6           0        8.792530    4.905760    2.963892
    100          6           0       11.690470    5.072844    1.194916
    101          8           0       12.561994    5.158124    0.309537
    102          6           0       11.717179    6.025560    2.319622
    103          7           0       10.957982    0.350595   -1.348667
    104          6           0       11.852729    1.317278   -1.340932
    105          6           0       12.972977    1.130673   -2.400785
    106          6           0       12.709808   -0.311661   -2.839096
    107          6           0       11.392933   -0.619277   -2.163868
    108          6           0       12.833793    2.159487   -3.573193
    109          6           0       13.775748   -1.331990   -2.508824
    110          6           0       14.121785   -2.349833   -3.610126
    111          7           0        8.731183   -1.609564   -0.943778
    112          6           0        9.414994   -2.289473   -1.927847
    113          6           0        8.736567   -3.575457   -2.271709
    114          6           0        7.600396   -3.448363   -1.498249
    115          6           0        7.594414   -2.257132   -0.762566
    116          6           0        9.253265   -4.713336   -3.092229
    117          6           0        6.363904   -4.144508   -1.174301
    118          8           0        5.998991   -5.245072   -1.572174
    119          6           0        5.572786   -3.307325   -0.143230
    120          6           0        4.233022   -3.183417   -0.658212
    121          8           0        3.848057   -2.431854   -1.586155
    122          8           0        3.362466   -3.884772    0.119412
    123          6           0        1.943053   -3.672047   -0.061468
    124          1           0        6.988650    2.836156    2.746088
    125          1           0       12.466333    3.195549   -0.681424
    126          1           0       11.019115   -2.207220   -3.425945
    127          1           0        4.309974   -0.823470    1.244986
    128          1           0        5.509066    0.664253    3.492854
    129          1           0        3.746676    2.235684    2.709312
    130          1           0        3.525333    0.941483    1.563374
    131          1           0        4.491005    2.245491    1.147586
    132          1           0        5.885866   -1.735452    3.690689
    133          1           0        5.341688   -2.833149    2.617785
    134          1           0        3.108440   -1.118840    3.485856
    135          1           0        4.253146   -1.662749    4.874946
    136          1           0        8.878005    5.951576    2.669561
    137          1           0        9.172645    4.827085    3.982233
    138          1           0        7.711585    4.810547    3.069732
    139          1           0       11.686561    5.459366    3.250637
    140          1           0       10.789127    6.577605    2.175214
    141          1           0       12.689301    6.515772    2.281961
    142          1           0       13.916250    1.238083   -1.864157
    143          1           0       12.511248   -0.461742   -3.899915
    144          1           0       12.559958    1.669130   -4.506890
    145          1           0       13.781684    2.657331   -3.777598
    146          1           0       12.038595    2.838703   -3.265528
    147          1           0       13.538211   -1.886352   -1.601438
    148          1           0       14.587446   -0.735503   -2.093610
    149          1           0       15.158242   -2.644199   -3.448073
    150          1           0       13.880307   -1.994571   -4.612388
    151          1           0       13.414732   -3.147637   -3.383758
    152          1           0        9.647472   -5.544829   -2.507704
    153          1           0        9.924755   -4.258172   -3.819702
    154          1           0        8.474226   -5.036725   -3.783721
    155          1           0        5.462457   -3.971848    0.713659
    156          1           0        1.687997   -2.864925   -0.748716
    157          1           0        1.444866   -3.564356    0.901635
    158          1           0        1.448188   -4.550354   -0.476763
 ---------------------------------------------------------------------

 SCF Done:  E(RCAM-B3LYP) =  -4069.81910568     A.U. after   17 cycles

 Excitation energies and oscillator strengths:

 Excited State   1:      Singlet-A      1.6833 eV  736.54 nm  f=0.3072  <S**2>=0.000
     309 -> 315       -0.17361
     311 -> 313        0.68524
     309 <- 315       -0.10779
 This state for optimization and/or second-order correction.
 Total Energy, E(TD-HF/TD-DFT) =  -4069.75724437
 Copying the excited state density for this state as the 1-particle RhoCI density.

 Excited State   2:      Singlet-A      1.7542 eV  706.78 nm  f=0.4139  <S**2>=0.000
     310 -> 316       -0.19856
     312 -> 314        0.67962
     310 <- 316       -0.11245

 Excited State   3:      Singlet-A      2.2201 eV  558.47 nm  f=0.1667  <S**2>=0.000
     309 -> 313        0.64850
     311 -> 315        0.26699

 Excited State   4:      Singlet-A      2.3185 eV  534.76 nm  f=0.0734  <S**2>=0.000
     310 -> 314        0.61694
     312 -> 316        0.33859

 Excited State   5:      Singlet-A      2.5988 eV  477.08 nm  f=0.0000  <S**2>=0.000
     312 -> 313        0.70701

 The electronic state is 1-A.
 Alpha  occ. eigenvalues --  -46.89070 -46.88442 -19.25736 -19.24989 -19.21125
 Alpha  occ. eigenvalues --  -19.19923 -19.18985 -19.18699 -19.18519 -19.18352
 Alpha  occ. eigenvalues --  -14.42441 -14.42288 -14.41851 -14.41040 -14.40147
 Alpha  occ. eigenvalues --  -14.39709 -14.39536 -14.39061 -10.40465 -10.39000
 Alpha  occ. eigenvalues --  -10.35710 -10.35552 -10.35204 -10.34359 -10.32062
 Alpha  occ. eigenvalues --  -10.31774 -10.31175 -10.30976 -10.30907 -10.30721
 Alpha  occ. eigenvalues --  -10.30697 -10.30685 -10.30636 -10.30555 -10.30502
 Alpha  occ. eigenvalues --  -10.30413 -10.30346 -10.30338 -10.30015 -10.29128
 Alpha  occ. eigenvalues --  -10.28980 -10.28922 -10.28866 -10.28662 -10.28594
 Alpha  occ. eigenvalues --  -10.28448 -10.28440 -10.28421 -10.28388 -10.28342
 Alpha  occ. eigenvalues --  -10.28337 -10.28060 -10.28022 -10.27950 -10.27944
 Alpha  occ. eigenvalues --  -10.27845 -10.27783 -10.27554 -10.27530 -10.27501
 Alpha  occ. eigenvalues --  -10.27409 -10.27361 -10.27271 -10.27158 -10.27140
 Alpha  occ. eigenvalues --  -10.27092 -10.27032 -10.26910 -10.26862 -10.26815
 Alpha  occ. eigenvalues --  -10.26712 -10.26525 -10.26333 -10.26169 -10.26152
 Alpha  occ. eigenvalues --  -10.26059 -10.25971 -10.25943 -10.25892 -10.25876
 Alpha  occ. eigenvalues --  -10.25709 -10.25664 -10.25432 -10.25214 -10.25148
 Alpha  occ. eigenvalues --  -10.24538  -3.17633  -3.17047  -1.92513  -1.92094
 Alpha  occ. eigenvalues --   -1.91956  -1.91938  -1.91494  -1.91360  -1.15945
 Alpha  occ. eigenvalues --   -1.15701  -1.12112  -1.09381  -1.09018  -1.08066
 Alpha  occ. eigenvalues --   -1.07677  -1.05814  -1.05710  -1.05309  -1.04515
 Alpha  occ. eigenvalues --   -1.04343  -1.03426  -1.03012  -1.02819  -1.02122
 Alpha  occ. eigenvalues --   -0.93399  -0.93079  -0.90044  -0.89967  -0.89386
 Alpha  occ. eigenvalues --   -0.89229  -0.89183  -0.88417  -0.87956  -0.87533
 Alpha  occ. eigenvalues --   -0.87071  -0.87027  -0.86562  -0.86020  -0.84903
 Alpha  occ. eigenvalues --   -0.84580  -0.84343  -0.83999  -0.82859  -0.82729
 Alpha  occ. eigenvalues --   -0.82555  -0.82019  -0.81160  -0.80804  -0.80781
 Alpha  occ. eigenvalues --   -0.80581  -0.78615  -0.77878  -0.77650  -0.77527
 Alpha  occ. eigenvalues --   -0.77344  -0.77034  -0.76583  -0.76468  -0.75581
 Alpha  occ. eigenvalues --   -0.75190  -0.73595  -0.72925  -0.72307  -0.71892
 Alpha  occ. eigenvalues --   -0.69496  -0.69495  -0.69186  -0.69045  -0.67994
 Alpha  occ. eigenvalues --   -0.67874  -0.67312  -0.66463  -0.66398  -0.66362
 Alpha  occ. eigenvalues --   -0.65793  -0.65430  -0.65339  -0.65029  -0.65014
 Alpha  occ. eigenvalues --   -0.64485  -0.63217  -0.62402  -0.60597  -0.60355
 Alpha  occ. eigenvalues --   -0.60200  -0.59835  -0.59662  -0.59416  -0.59030
 Alpha  occ. eigenvalues --   -0.58714  -0.58283  -0.58126  -0.57539  -0.56978
 Alpha  occ. eigenvalues --   -0.56410  -0.56293  -0.55918  -0.55714  -0.55636
 Alpha  occ. eigenvalues --   -0.55446  -0.55033  -0.54450  -0.54300  -0.53983
 Alpha  occ. eigenvalues --   -0.53958  -0.53825  -0.53646  -0.53444  -0.53294
 Alpha  occ. eigenvalues --   -0.53106  -0.52881  -0.52781  -0.52353  -0.52107
 Alpha  occ. eigenvalues --   -0.51888  -0.51806  -0.51787  -0.51600  -0.51218
 Alpha  occ. eigenvalues --   -0.51129  -0.50999  -0.50718  -0.50597  -0.50438
 Alpha  occ. eigenvalues --   -0.50361  -0.50228  -0.50122  -0.49950  -0.49852
 Alpha  occ. eigenvalues --   -0.49744  -0.49556  -0.49001  -0.48964  -0.48735
 Alpha  occ. eigenvalues --   -0.48567  -0.48414  -0.48299  -0.48264  -0.48113
 Alpha  occ. eigenvalues --   -0.47890  -0.47781  -0.47740  -0.47309  -0.47283
 Alpha  occ. eigenvalues --   -0.47164  -0.46947  -0.46938  -0.46670  -0.46537
 Alpha  occ. eigenvalues --   -0.46485  -0.46155  -0.46110  -0.45994  -0.45962
 Alpha  occ. eigenvalues --   -0.45827  -0.45587  -0.45516  -0.45423  -0.45228
 Alpha  occ. eigenvalues --   -0.45065  -0.45010  -0.44992  -0.44456  -0.44120
 Alpha  occ. eigenvalues --   -0.44032  -0.43898  -0.43768  -0.43744  -0.43647
 Alpha  occ. eigenvalues --   -0.43367  -0.43341  -0.43092  -0.42746  -0.42594
 Alpha  occ. eigenvalues --   -0.42521  -0.42467  -0.42421  -0.42325  -0.42139
 Alpha  occ. eigenvalues --   -0.41962  -0.41855  -0.41668  -0.41648  -0.41558
 Alpha  occ. eigenvalues --   -0.41472  -0.41456  -0.41241  -0.41177  -0.40992
 Alpha  occ. eigenvalues --   -0.40816  -0.40195  -0.40050  -0.39879  -0.39166
 Alpha  occ. eigenvalues --   -0.38881  -0.38760  -0.38289  -0.37959  -0.37851
 Alpha  occ. eigenvalues --   -0.37421  -0.37353  -0.36977  -0.36569  -0.35966
 Alpha  occ. eigenvalues --   -0.35902  -0.35528  -0.35475  -0.34760  -0.33720
 Alpha  occ. eigenvalues --   -0.33438  -0.33253  -0.32934  -0.31821  -0.31505
 Alpha  occ. eigenvalues --   -0.31200  -0.31000  -0.30633  -0.30522  -0.30450
 Alpha  occ. eigenvalues --   -0.30199  -0.30077  -0.29848  -0.24479  -0.24010
 Alpha  occ. eigenvalues --   -0.21707  -0.20851
 Alpha virt. eigenvalues --   -0.09390  -0.08087  -0.01896  -0.01732   0.00163
 Alpha virt. eigenvalues --    0.00814   0.01737   0.02322   0.02589   0.03079
 Alpha virt. eigenvalues --    0.04037   0.04515   0.04711   0.05474   0.05596

 Mulliken charges:
               1
     1  Mg  12.001545
     2  C    5.973091
     3  C    6.001800
     4  C    6.038978
     5  C    6.013209
     6  N    6.972450
     7  C    6.030063
     8  C    5.989889
     9  C    6.016756
    10  C    5.973927
    11  C    6.005171
    12  C    5.994536
    13  C    6.000552
    14  H    1.005608
    15  N    7.010210
    16  C    5.956803
    17  C    5.980488
    18  C    5.990993
    19  C    5.951398
    20  C    6.003913
    21  C    5.989148
    22  O    7.980320
    23  C    5.998150
    24  N    7.018431
    25  C    5.958486
    26  C    6.011794
    27  C    5.993262
    28  C    6.018849
    29  C    6.003921
    30  C    5.994607
    31  C    5.997803
    32  N    6.998814
    33  C    6.029130
    34  C    6.028769
    35  C    6.004860
    36  C    6.038271
    37  C    5.999402
    38  C    6.018076
    39  O    8.026443
    40  C    6.003472
    41  C    6.003400
    42  O    8.006361
    43  O    7.997954
    44  C    5.996670
    45  H    0.984618
    46  H    0.999138
    47  H    1.015836
    48  H    0.998380
    49  H    0.994347
    50  H    0.984569
    51  H    1.004821
    52  H    0.989015
    53  H    1.011053
    54  H    0.996347
    55  H    0.995396
    56  H    0.998399
    57  H    0.981973
    58  H    0.981421
    59  H    0.984369
    60  H    0.990055
    61  H    0.989963
    62  H    0.989228
    63  H    0.998964
    64  H    1.002001
    65  H    1.008101
    66  H    0.994764
    67  H    0.993159
    68  H    0.994613
    69  H    1.011097
    70  H    1.007252
    71  H    1.005390
    72  H    0.997772
    73  H    1.015315
    74  H    1.020985
    75  H    1.016468
    76  H    1.004697
    77  H    1.006948
    78  H    1.005601
    79  H    1.000161
    80  Mg  12.000244
    81  C    6.002036
    82  C    5.999352
    83  C    5.998215
    84  C    6.000592
    85  N    7.000784
    86  C    5.997836
    87  C    6.000705
    88  C    5.999207
    89  C    6.001941
    90  C    5.999130
    91  C    6.000151
    92  C    6.000447
    93  H    0.998488
    94  N    6.998940
    95  C    6.003570
    96  C    6.001206
    97  C    6.001230
    98  C    6.002814
    99  C    5.999297
   100  C    6.001027
   101  O    8.002046
   102  C    5.999775
   103  N    6.999436
   104  C    6.002531
   105  C    5.999488
   106  C    6.000477
   107  C    5.997657
   108  C    5.999938
   109  C    6.000763
   110  C    5.999933
   111  N    7.000464
   112  C    5.997250
   113  C    5.997792
   114  C    5.999931
   115  C    5.997324
   116  C    6.000234
   117  C    5.998641
   118  O    7.997208
   119  C    5.999597
   120  C    5.999791
   121  O    8.000100
   122  O    7.999742
   123  C    6.000889
   124  H    1.001384
   125  H    1.000313
   126  H    0.999102
   127  H    1.000033
   128  H    1.000249
   129  H    1.001290
   130  H    1.001002
   131  H    1.000700
   132  H    0.999594
   133  H    1.000141
   134  H    1.000198
   135  H    0.999934
   136  H    1.001714
   137  H    1.001379
   138  H    1.001724
   139  H    1.000404
   140  H    1.000680
   141  H    1.001027
   142  H    0.999816
   143  H    0.999933
   144  H    1.000745
   145  H    1.000125
   146  H    0.999756
   147  H    0.999733
   148  H    0.999017
   149  H    0.999526
   150  H    0.999775
   151  H    1.000320
   152  H    0.998299
   153  H    0.998972
   154  H    0.998471
   155  H    0.999115
   156  H    1.000271
   157  H    0.998873
   158  H    0.998175
 Sum of Mulliken charges = 624.00000

 Dipole moment (field-independent basis, Debye):
    X=             -1.4156    Y=             -9.7007    Z=              0.3839  Tot=              9.8110
 Quadrupole moment (field-independent basis, Debye-Ang):
   XX=             30.7960   YY=            -13.0553   ZZ=              1.1403
   XY=             99.7750   XZ=              3.5345   YZ=              1.4117

 Normal termination of Gaussian 16 at Wed Sep 22 19:24:45 2021.
