 Gaussian 16, Revision A.03,
 Gaussian 16:  ES64L-G16RevA.03 25-Dec-2016

 -----------------------------------
 #p cam-b3lyp/Def2SVP td=(nstates=5)
 -----------------------------------

 --------------------------------
 TDDFT excited states in gaussian
 --------------------------------
 Symbolic Z-matrix:
 Charge =  0 Multiplicity = 1

                         Standard orientation:
 ---------------------------------------------------------------------
 Center     Atomic      Atomic             Coordinates (Angstroms)
 Number     Number       Type             X           Y           Z
 ---------------------------------------------------------------------
      1         12           0      -13.883788    0.920463    0.292060
      2          6           0      -13.979110   -2.644255   -0.157656
      3          6           0      -10.392549    0.674949   -0.275263
      4          6           0      -13.540313    4.354671    0.825496
      5          6           0      -17.099040    0.977569    1.197156
      6          7           0      -12.329535   -0.916750    0.028743
      7          6           0      -12.652657   -2.201517   -0.232550
      8          6           0      -11.346875   -3.050884   -0.436738
      9          6           0      -10.252024   -1.941573   -0.243408
     10          6           0      -11.019780   -0.599770   -0.236046
     11          6           0       -9.384360   -2.177570    1.041907
     12          6           0      -11.270346   -3.726458   -1.805683
     13          6           0      -10.809393   -5.147028   -1.816040
     14          1           0      -10.805707   -5.913182   -3.146788
     15          7           0      -12.298978    2.345326    0.086415
     16          6           0      -10.964833    2.022429   -0.138149
     17          6           0      -10.208897    3.257212   -0.207866
     18          6           0      -11.070212    4.322593   -0.004220
     19          6           0      -12.372207    3.692633    0.399941
     20          6           0       -8.714052    3.339468   -0.325253
     21          6           0      -10.804580    5.882665    0.050785
     22          8           0      -11.610177    6.761545    0.237058
     23          6           0       -9.431740    6.395615   -0.326624
     24          7           0      -15.036528    2.405665    1.044015
     25          6           0      -14.759296    3.739603    1.192817
     26          6           0      -15.885183    4.490668    1.941234
     27          6           0      -17.105237    3.480105    1.833522
     28          6           0      -16.362424    2.201351    1.287929
     29          6           0      -15.482468    4.906750    3.392183
     30          6           0      -18.258002    3.954347    0.897117
     31          6           0      -17.920232    4.013478   -0.590911
     32          7           0      -15.274473   -0.460782    0.526785
     33          6           0      -16.649770   -0.303262    0.855479
     34          6           0      -17.326902   -1.598103    0.865489
     35          6           0      -16.342115   -2.502613    0.429416
     36          6           0      -15.128821   -1.794391    0.222380
     37          6           0      -18.728883   -1.832780    1.190125
     38          6           0      -16.149074   -3.920255    0.141797
     39          8           0      -16.961294   -4.830074    0.144735
     40          6           0      -14.567737   -4.103661   -0.171714
     41          6           0      -14.656799   -4.810632   -1.526318
     42          8           0      -14.986914   -4.333522   -2.627007
     43          8           0      -14.379805   -6.091675   -1.356033
     44          6           0      -14.117419   -6.963199   -2.572389
     45          1           0       -9.332588    0.596400   -0.524581
     46          1           0      -13.528484    5.429744    1.021159
     47          1           0      -18.160728    1.080083    1.429902
     48          1           0      -11.427254   -3.844334    0.305519
     49          1           0       -9.581382   -1.883682   -1.101772
     50          1           0       -8.306283   -2.225293    0.888377
     51          1           0       -9.744407   -2.985708    1.678882
     52          1           0       -9.352775   -1.355428    1.757232
     53          1           0      -10.354055   -3.287407   -2.200726
     54          1           0      -12.126039   -3.503266   -2.443880
     55          1           0      -11.235194   -5.863234   -1.111433
     56          1           0       -9.760942   -5.063178   -1.529781
     57          1           0       -8.277578    2.362999   -0.533674
     58          1           0       -8.201072    3.741229    0.549941
     59          1           0       -8.338734    3.953382   -1.144165
     60          1           0       -9.153844    6.127434   -1.345857
     61          1           0       -8.813361    5.946692    0.450728
     62          1           0       -9.489675    7.456713   -0.084039
     63          1           0      -15.968621    5.432980    1.398623
     64          1           0      -17.467932    3.031106    2.758423
     65          1           0      -15.373602    5.985370    3.505141
     66          1           0      -14.626239    4.413046    3.850445
     67          1           0      -16.340610    4.539485    3.955332
     68          1           0      -18.726614    4.817792    1.369517
     69          1           0      -19.051080    3.209439    0.959984
     70          1           0      -16.878685    3.827865   -0.850732
     71          1           0      -18.146333    5.033986   -0.899006
     72          1           0      -18.385940    3.250297   -1.213364
     73          1           0      -19.043855   -2.875620    1.147862
     74          1           0      -19.287672   -1.239815    0.466183
     75          1           0      -18.910384   -1.411902    2.180091
     76          1           0      -14.098289   -4.838422    0.482361
     77          1           0      -13.608902   -7.850088   -2.193672
     78          1           0      -13.422495   -6.508799   -3.277925
     79          1           0      -15.017649   -7.197873   -3.141569
     80         12           0       14.656435   -0.252746   -0.221430
     81          6           0       11.199799   -1.055140   -0.586843
     82          6           0       13.983619    2.513878   -1.925866
     83          6           0       17.557488    1.070384    0.898711
     84          6           0       14.705111   -2.758935    2.311719
     85          7           0       12.900065    0.534996   -1.214543
     86          6           0       11.591639    0.017108   -1.327802
     87          6           0       10.643531    0.924698   -2.173216
     88          6           0       11.623238    2.043416   -2.627799
     89          6           0       12.956944    1.643808   -1.961838
     90          6           0       11.595551    2.084162   -4.164774
     91          6           0        9.351644    1.511575   -1.456665
     92          6           0        8.001721    1.023037   -1.969071
     93          1           0        6.992023    2.090114   -2.438884
     94          7           0       15.682172    1.456337   -0.526545
     95          6           0       15.204572    2.519091   -1.293170
     96          6           0       16.193664    3.509830   -1.433823
     97          6           0       17.323289    3.086426   -0.758188
     98          6           0       16.927270    1.867363   -0.082597
     99          6           0       16.127511    4.862797   -2.235064
    100          6           0       18.622719    3.856983   -0.762414
    101          8           0       18.828445    4.824282   -1.433357
    102          6           0       19.811338    3.211143    0.105780
    103          7           0       15.924901   -0.712910    1.420326
    104          6           0       17.089024   -0.025564    1.631127
    105          6           0       17.714120   -0.579152    2.976526
    106          6           0       16.926476   -1.841718    3.364295
    107          6           0       15.752926   -1.777405    2.313942
    108          6           0       19.210538   -0.712157    2.971273
    109          6           0       16.356755   -1.674022    4.767415
    110          6           0       16.019109   -2.927464    5.530211
    111          7           0       13.327725   -1.812120    0.530288
    112          6           0       13.507866   -2.745849    1.522715
    113          6           0       12.368115   -3.583346    1.621062
    114          6           0       11.390506   -3.038622    0.755168
    115          6           0       12.019042   -1.881781    0.213838
    116          6           0       12.150539   -4.700504    2.560941
    117          6           0       10.027012   -3.083586    0.209942
    118          8           0        9.148544   -3.936129    0.396987
    119          6           0        9.834849   -1.816468   -0.708827
    120          6           0        9.734654   -2.239157   -2.080308
    121          8           0       10.746442   -2.615214   -2.718149
    122          8           0        8.432927   -2.181414   -2.423831
    123          6           0        8.063740   -2.379795   -3.852244
    124          1           0       13.808014    3.416612   -2.515259
    125          1           0       18.522315    1.492972    1.187182
    126          1           0       14.704287   -3.617647    2.985821
    127          1           0       10.295587    0.376976   -3.048967
    128          1           0       11.367359    3.029591   -2.241580
    129          1           0       12.399776    2.750459   -4.475474
    130          1           0       10.669684    2.441268   -4.615515
    131          1           0       11.775197    1.104642   -4.609330
    132          1           0        9.358007    2.565560   -1.734551
    133          1           0        9.438798    1.397957   -0.376057
    134          1           0        7.554462    0.421183   -1.177234
    135          1           0        8.159484    0.388136   -2.841629
    136          1           0       16.409494    5.638368   -1.522679
    137          1           0       15.125118    5.065336   -2.611955
    138          1           0       16.709353    4.899378   -3.156018
    139          1           0       20.689913    3.820914   -0.102774
    140          1           0       19.861533    2.190106   -0.273206
    141          1           0       19.415124    3.287957    1.118264
    142          1           0       17.492233    0.211425    3.694231
    143          1           0       17.465503   -2.788426    3.329659
    144          1           0       19.483333   -1.525888    3.642676
    145          1           0       19.595456    0.247534    3.316712
    146          1           0       19.650545   -0.818518    1.980404
    147          1           0       15.471869   -1.037584    4.796842
    148          1           0       17.015284   -1.091291    5.411483
    149          1           0       16.406732   -3.829700    5.057466
    150          1           0       14.932695   -2.999636    5.585085
    151          1           0       16.291455   -2.825051    6.580613
    152          1           0       13.089436   -5.176150    2.846143
    153          1           0       11.511745   -5.406493    2.029705
    154          1           0       11.702157   -4.249246    3.446349
    155          1           0        9.039009   -1.140997   -0.394977
    156          1           0        7.098708   -2.873866   -3.730447
    157          1           0        8.791060   -2.956535   -4.422868
    158          1           0        7.772134   -1.440710   -4.323754
 ---------------------------------------------------------------------

 SCF Done:  E(RCAM-B3LYP) =  -4069.79565124     A.U. after   19 cycles

 Excitation energies and oscillator strengths:

 Excited State   1:      Singlet-A      1.6509 eV  751.02 nm  f=0.3748  <S**2>=0.000
     310 -> 315        0.18395
     312 -> 314        0.68517
     310 <- 315        0.11253
 This state for optimization and/or second-order correction.
 Total Energy, E(TD-HF/TD-DFT) =  -4069.73498263
 Copying the excited state density for this state as the 1-particle RhoCI density.

 Excited State   2:      Singlet-A      1.7226 eV  719.74 nm  f=0.3830  <S**2>=0.000
     309 -> 316       -0.17109
     311 -> 313        0.68747
     309 <- 316       -0.10387

 Excited State   3:      Singlet-A      2.2172 eV  559.20 nm  f=0.0920  <S**2>=0.000
     310 -> 314        0.62572
     312 -> 315       -0.32040

 Excited State   4:      Singlet-A      2.2585 eV  548.97 nm  f=0.1176  <S**2>=0.000
     309 -> 313        0.63725
     311 -> 316        0.28972

 Excited State   5:      Singlet-A      2.9658 eV  418.05 nm  f=0.0000  <S**2>=0.000
     312 -> 313        0.70708

 The electronic state is 1-A.
 Alpha  occ. eigenvalues --  -46.88583 -46.88279 -19.26600 -19.24919 -19.19728
 Alpha  occ. eigenvalues --  -19.19726 -19.19508 -19.19347 -19.18815 -19.17980
 Alpha  occ. eigenvalues --  -14.42608 -14.42445 -14.42253 -14.41534 -14.40090
 Alpha  occ. eigenvalues --  -14.39663 -14.39577 -14.38542 -10.39595 -10.38445
 Alpha  occ. eigenvalues --  -10.35583 -10.35541 -10.35472 -10.35375 -10.32940
 Alpha  occ. eigenvalues --  -10.32181 -10.31708 -10.31563 -10.31386 -10.31358
 Alpha  occ. eigenvalues --  -10.31221 -10.31073 -10.31061 -10.31024 -10.30676
 Alpha  occ. eigenvalues --  -10.30614 -10.30553 -10.29988 -10.29898 -10.29691
 Alpha  occ. eigenvalues --  -10.29115 -10.28850 -10.28757 -10.28748 -10.28726
 Alpha  occ. eigenvalues --  -10.28574 -10.28423 -10.28399 -10.28392 -10.28355
 Alpha  occ. eigenvalues --  -10.28346 -10.28283 -10.28274 -10.28218 -10.28123
 Alpha  occ. eigenvalues --  -10.28098 -10.28040 -10.27843 -10.27685 -10.27521
 Alpha  occ. eigenvalues --  -10.27383 -10.27272 -10.27261 -10.27202 -10.27161
 Alpha  occ. eigenvalues --  -10.26992 -10.26908 -10.26881 -10.26824 -10.26601
 Alpha  occ. eigenvalues --  -10.26519 -10.26419 -10.26323 -10.26192 -10.26072
 Alpha  occ. eigenvalues --  -10.26072 -10.26058 -10.26004 -10.25904 -10.25819
 Alpha  occ. eigenvalues --  -10.25707 -10.25510 -10.25406 -10.25392 -10.25230
 Alpha  occ. eigenvalues --  -10.24910  -3.17181  -3.16969  -1.92058  -1.91855
 Alpha  occ. eigenvalues --   -1.91616  -1.91507  -1.91442  -1.91275  -1.16735
 Alpha  occ. eigenvalues --   -1.15922  -1.12045  -1.11447  -1.10018  -1.08748
 Alpha  occ. eigenvalues --   -1.07484  -1.05265  -1.04192  -1.03775  -1.03253
 Alpha  occ. eigenvalues --   -1.03110  -1.02909  -1.02202  -1.01816  -1.01687
 Alpha  occ. eigenvalues --   -0.92292  -0.90847  -0.89732  -0.89431  -0.89231
 Alpha  occ. eigenvalues --   -0.88783  -0.88738  -0.87983  -0.87404  -0.87340
 Alpha  occ. eigenvalues --   -0.86942  -0.86714  -0.86579  -0.86433  -0.84895
 Alpha  occ. eigenvalues --   -0.84316  -0.84102  -0.83569  -0.83377  -0.82346
 Alpha  occ. eigenvalues --   -0.81985  -0.81500  -0.81209  -0.81012  -0.80383
 Alpha  occ. eigenvalues --   -0.80152  -0.78122  -0.77800  -0.77451  -0.77291
 Alpha  occ. eigenvalues --   -0.76935  -0.76760  -0.76337  -0.75957  -0.75201
 Alpha  occ. eigenvalues --   -0.75111  -0.72826  -0.72579  -0.71796  -0.71631
 Alpha  occ. eigenvalues --   -0.70055  -0.69337  -0.68734  -0.68684  -0.67840
 Alpha  occ. eigenvalues --   -0.67516  -0.67318  -0.66262  -0.65776  -0.65673
 Alpha  occ. eigenvalues --   -0.65463  -0.65106  -0.65072  -0.64640  -0.64554
 Alpha  occ. eigenvalues --   -0.64041  -0.62320  -0.61760  -0.60216  -0.59710
 Alpha  occ. eigenvalues --   -0.59583  -0.59511  -0.59264  -0.58923  -0.58602
 Alpha  occ. eigenvalues --   -0.58286  -0.57688  -0.57350  -0.57218  -0.56486
 Alpha  occ. eigenvalues --   -0.56222  -0.56123  -0.55630  -0.55473  -0.55048
 Alpha  occ. eigenvalues --   -0.55012  -0.54776  -0.54654  -0.54352  -0.53947
 Alpha  occ. eigenvalues --   -0.53894  -0.53323  -0.53244  -0.53192  -0.52946
 Alpha  occ. eigenvalues --   -0.52874  -0.52701  -0.52552  -0.52474  -0.52413
 Alpha  occ. eigenvalues --   -0.52110  -0.51752  -0.51561  -0.51503  -0.51314
 Alpha  occ. eigenvalues --   -0.50952  -0.50878  -0.50643  -0.50427  -0.50231
 Alpha  occ. eigenvalues --   -0.50099  -0.50037  -0.49943  -0.49789  -0.49593
 Alpha  occ. eigenvalues --   -0.49273  -0.49243  -0.49212  -0.49002  -0.48939
 Alpha  occ. eigenvalues --   -0.48635  -0.48496  -0.48425  -0.48327  -0.48140
 Alpha  occ. eigenvalues --   -0.48121  -0.47584  -0.47553  -0.47501  -0.47440
 Alpha  occ. eigenvalues --   -0.47030  -0.46711  -0.46641  -0.46493  -0.46370
 Alpha  occ. eigenvalues --   -0.46325  -0.46170  -0.46163  -0.45813  -0.45689
 Alpha  occ. eigenvalues --   -0.45488  -0.45381  -0.45233  -0.45219  -0.44998
 Alpha  occ. eigenvalues --   -0.44895  -0.44810  -0.44398  -0.44398  -0.44194
 Alpha  occ. eigenvalues --   -0.44148  -0.43953  -0.43777  -0.43627  -0.43544
 Alpha  occ. eigenvalues --   -0.43514  -0.43365  -0.43151  -0.43134  -0.42974
 Alpha  occ. eigenvalues --   -0.42952  -0.42873  -0.42635  -0.42490  -0.42379
 Alpha  occ. eigenvalues --   -0.42126  -0.42011  -0.41798  -0.41742  -0.41712
 Alpha  occ. eigenvalues --   -0.41390  -0.40894  -0.40664  -0.40356  -0.40280
 Alpha  occ. eigenvalues --   -0.40182  -0.40171  -0.39563  -0.39233  -0.39179
 Alpha  occ. eigenvalues --   -0.38620  -0.38470  -0.38292  -0.38034  -0.37687
 Alpha  occ. eigenvalues --   -0.37497  -0.37303  -0.36782  -0.36606  -0.36083
 Alpha  occ. eigenvalues --   -0.36039  -0.35619  -0.34424  -0.34237  -0.33888
 Alpha  occ. eigenvalues --   -0.33110  -0.33005  -0.32710  -0.31861  -0.31426
 Alpha  occ. eigenvalues --   -0.30975  -0.30959  -0.30837  -0.30783  -0.30623
 Alpha  occ. eigenvalues --   -0.30343  -0.29967  -0.29003  -0.24344  -0.24092
 Alpha  occ. eigenvalues --   -0.21324  -0.20942
 Alpha virt. eigenvalues --   -0.08825  -0.08685  -0.02018  -0.01769   0.00491
 Alpha virt. eigenvalues --    0.00670   0.02114   0.02404   0.02666   0.03425
 Alpha virt. eigenvalues --    0.04465   0.04662   0.05173   0.05290   0.05554

 Mulliken charges:
               1
     1  Mg   0.847243
     2  C    0.045320
     3  C   -0.060517
     4  C   -0.047747
     5  C   -0.098790
     6  N   -0.248844
     7  C   -0.052955
     8  C   -0.041205
     9  C   -0.032682
    10  C    0.024988
    11  C    0.061846
    12  C    0.091656
    13  C   -0.097244
    14  H    0.015882
    15  N   -0.370671
    16  C    0.163332
    17  C   -0.136157
    18  C   -0.047654
    19  C    0.113929
    20  C    0.101012
    21  C    0.008306
    22  O   -0.184795
    23  C    0.055691
    24  N   -0.324665
    25  C    0.018139
    26  C   -0.032851
    27  C   -0.028931
    28  C    0.038280
    29  C    0.074284
    30  C    0.042189
    31  C    0.003880
    32  N   -0.436350
    33  C    0.150843
    34  C   -0.152939
    35  C    0.006777
    36  C    0.125969
    37  C    0.128414
    38  C    0.055370
    39  O   -0.163290
    40  C   -0.066550
    41  C    0.185901
    42  O   -0.259017
    43  O   -0.310108
    44  C    0.186768
    45  H   -0.026621
    46  H   -0.004582
    47  H   -0.031280
    48  H    0.015229
    49  H    0.010133
    50  H    0.011286
    51  H    0.016600
    52  H    0.004607
    53  H   -0.000479
    54  H    0.045736
    55  H    0.027062
    56  H    0.016076
    57  H   -0.001661
    58  H    0.033579
    59  H    0.015713
    60  H    0.054829
    61  H    0.014262
    62  H    0.026436
    63  H    0.013859
    64  H    0.017101
    65  H    0.025997
    66  H    0.025207
    67  H    0.002873
    68  H    0.013536
    69  H   -0.002116
    70  H    0.021588
    71  H    0.022721
    72  H    0.019882
    73  H    0.040198
    74  H    0.029318
    75  H    0.022003
    76  H    0.037400
    77  H    0.039576
    78  H    0.037702
    79  H    0.054171
    80  Mg   0.849739
    81  C   -0.035917
    82  C   -0.127610
    83  C   -0.088426
    84  C   -0.059096
    85  N   -0.306906
    86  C   -0.024909
    87  C   -0.013004
    88  C   -0.067229
    89  C    0.093685
    90  C    0.060692
    91  C    0.056391
    92  C   -0.082386
    93  H    0.015841
    94  N   -0.421962
    95  C    0.201613
    96  C   -0.158739
    97  C   -0.012211
    98  C    0.124760
    99  C    0.150600
   100  C   -0.039972
   101  O   -0.163389
   102  C    0.032944
   103  N   -0.321085
   104  C    0.081272
   105  C   -0.032071
   106  C   -0.024570
   107  C    0.083672
   108  C    0.078914
   109  C   -0.005237
   110  C    0.032836
   111  N   -0.303134
   112  C    0.079918
   113  C   -0.204815
   114  C    0.040242
   115  C    0.083691
   116  C    0.124711
   117  C    0.054298
   118  O   -0.186858
   119  C   -0.001769
   120  C    0.227741
   121  O   -0.252635
   122  O   -0.320118
   123  C    0.163857
   124  H   -0.039013
   125  H   -0.061623
   126  H   -0.037139
   127  H    0.007662
   128  H    0.019286
   129  H    0.005489
   130  H    0.019801
   131  H    0.021199
   132  H    0.017032
   133  H    0.023275
   134  H    0.046853
   135  H    0.015798
   136  H    0.039333
   137  H   -0.011741
   138  H    0.039068
   139  H    0.031075
   140  H    0.046639
   141  H    0.048734
   142  H    0.020576
   143  H    0.012778
   144  H    0.018428
   145  H    0.010072
   146  H    0.016890
   147  H    0.005569
   148  H   -0.002357
   149  H    0.015981
   150  H    0.008765
   151  H    0.008797
   152  H    0.009257
   153  H    0.043140
   154  H    0.037403
   155  H    0.027970
   156  H    0.043624
   157  H    0.068094
   158  H    0.039916
 Sum of Mulliken charges =  -0.00000

 Dipole moment (field-independent basis, Debye):
    X=              4.3206    Y=              2.6406    Z=              2.0113  Tot=              5.4484
 Quadrupole moment (field-independent basis, Debye-Ang):
   XX=           -563.0494   YY=           -546.6554   ZZ=           -492.0625
   XY=            -48.7556   XZ=             -0.3502   YZ=              3.6459

 Normal termination of Gaussian 16 at Wed Sep 15 09:52:59 2021.
