 Gaussian 16, Revision A.03,
 Gaussian 16:  ES64L-G16RevA.03 25-Dec-2016

 -----------------------------------
 #p cam-b3lyp/Def2SVP td=(nstates=5)
 -----------------------------------

 --------------------------------
 TDDFT excited states in gaussian
 --------------------------------
 Symbolic Z-matrix:
 Charge =  0 Multiplicity = 1

                         Standard orientation:
 ---------------------------------------------------------------------
 Center     Atomic      Atomic             Coordinates (Angstroms)
 Number     Number       Type             X           Y           Z
 ---------------------------------------------------------------------
      1         12           0       29.039434    0.419683   -0.052343
      2          6           0       26.135314   -1.477527   -0.593605
      3          6           0       27.397141    3.121004   -1.296557
      4          6           0       31.647010    2.142684    0.911090
      5          6           0       30.139109   -2.365612    1.947471
      6          7           0       27.048498    0.727477   -0.897218
      7          6           0       26.020521   -0.166063   -1.005307
      8          6           0       24.740444    0.613538   -1.341421
      9          6           0       25.299162    1.838294   -2.057311
     10          6           0       26.632294    1.947069   -1.292546
     11          6           0       25.523430    1.601884   -3.568751
     12          6           0       23.940457    0.992992   -0.040687
     13          6           0       22.502184    0.316045    0.196605
     14          1           0       22.285777   -0.562226    1.440742
     15          7           0       29.443957    2.371699   -0.121519
     16          6           0       28.649594    3.336569   -0.697130
     17          6           0       29.381764    4.564203   -0.713898
     18          6           0       30.696834    4.335483   -0.189435
     19          6           0       30.664224    2.908476    0.243771
     20          6           0       28.798114    5.906706   -1.273312
     21          6           0       31.847603    5.405385   -0.149092
     22          8           0       31.690635    6.471432   -0.659977
     23          6           0       33.177197    4.973806    0.264704
     24          7           0       30.514897    0.057907    1.508818
     25          6           0       31.631975    0.809404    1.362612
     26          6           0       32.897399    0.093980    1.805100
     27          6           0       32.367873   -1.168536    2.467877
     28          6           0       30.886875   -1.177276    1.952114
     29          6           0       33.871597   -0.224999    0.611342
     30          6           0       32.459898   -1.324130    4.058624
     31          6           0       33.427369   -2.273961    4.712376
     32          7           0       28.435856   -1.571609    0.401925
     33          6           0       28.970065   -2.578896    1.215716
     34          6           0       28.103290   -3.736135    1.271563
     35          6           0       26.999804   -3.348690    0.551853
     36          6           0       27.197172   -2.021549    0.046338
     37          6           0       28.373104   -4.971822    2.024684
     38          6           0       25.688437   -3.785498    0.097748
     39          8           0       25.139828   -4.888018    0.216976
     40          6           0       25.131366   -2.653766   -0.739908
     41          6           0       24.942662   -3.189095   -2.155132
     42          8           0       25.891649   -3.646151   -2.788144
     43          8           0       23.589428   -3.200800   -2.527380
     44          6           0       23.334930   -3.727069   -3.841757
     45          1           0       26.898559    3.924273   -1.842451
     46          1           0       32.607540    2.660154    0.920312
     47          1           0       30.530833   -3.244898    2.463489
     48          1           0       24.091020   -0.072111   -1.886272
     49          1           0       24.612938    2.667829   -1.891428
     50          1           0       25.015344    2.487945   -3.947732
     51          1           0       25.002139    0.668128   -3.781460
     52          1           0       26.556863    1.536770   -3.909368
     53          1           0       23.744162    2.064187   -0.084955
     54          1           0       24.605595    0.845990    0.809873
     55          1           0       22.367690   -0.368772   -0.641017
     56          1           0       21.661421    1.007249    0.151529
     57          1           0       28.879799    6.798208   -0.652267
     58          1           0       27.739925    5.712785   -1.451611
     59          1           0       29.231436    6.185594   -2.233977
     60          1           0       33.220241    4.546420    1.266732
     61          1           0       33.846144    5.833133    0.218904
     62          1           0       33.627083    4.352400   -0.508392
     63          1           0       33.508240    0.699095    2.475866
     64          1           0       32.832851   -2.050070    2.026491
     65          1           0       34.684297    0.494572    0.513645
     66          1           0       33.292578   -0.386241   -0.297952
     67          1           0       34.341486   -1.184374    0.832629
     68          1           0       31.529550   -1.381282    4.622652
     69          1           0       32.832588   -0.314874    4.235585
     70          1           0       34.208993   -1.773794    5.283340
     71          1           0       33.922398   -2.873471    3.948034
     72          1           0       32.802106   -2.895502    5.352929
     73          1           0       29.046571   -4.719877    2.844321
     74          1           0       28.914986   -5.619731    1.335130
     75          1           0       27.449992   -5.464125    2.327192
     76          1           0       24.160931   -2.477148   -0.278030
     77          1           0       23.570863   -3.043764   -4.657995
     78          1           0       22.289660   -4.009216   -3.964691
     79          1           0       23.872096   -4.647435   -4.069230
     80         12           0      -28.843655    0.434758    0.372963
     81          6           0      -27.259876   -2.496087   -0.777692
     82          6           0      -28.260933    1.772750   -2.759901
     83          6           0      -30.245195    3.378708    1.384610
     84          6           0      -29.037922   -0.862798    3.462927
     85          7           0      -27.889044   -0.305909   -1.583817
     86          6           0      -27.426979   -1.582705   -1.879602
     87          6           0      -27.192165   -1.728461   -3.369697
     88          6           0      -27.179255   -0.244334   -3.887721
     89          6           0      -27.820335    0.427093   -2.694013
     90          6           0      -25.768124    0.320020   -4.316053
     91          6           0      -28.299497   -2.518759   -4.082719
     92          6           0      -27.829257   -3.425314   -5.225262
     93          1           0      -27.302114   -2.762513   -6.528291
     94          7           0      -29.286588    2.275865   -0.567130
     95          6           0      -28.908828    2.578681   -1.830496
     96          6           0      -29.237735    3.942918   -2.088524
     97          6           0      -29.964925    4.463194   -0.962673
     98          6           0      -29.805321    3.397399    0.010819
     99          6           0      -28.890435    4.617994   -3.386308
    100          6           0      -30.609284    5.825467   -0.705316
    101          8           0      -31.347198    6.027586    0.284220
    102          6           0      -30.336646    7.041563   -1.583293
    103          7           0      -29.613626    1.109199    2.123759
    104          6           0      -30.087986    2.395423    2.362949
    105          6           0      -30.435353    2.524325    3.810548
    106          6           0      -30.138213    1.165634    4.541252
    107          6           0      -29.603760    0.379524    3.333121
    108          6           0      -29.863988    3.796096    4.506716
    109          6           0      -31.358188    0.477695    5.191294
    110          6           0      -31.502676    0.775793    6.696191
    111          7           0      -28.259206   -1.250431    1.227076
    112          6           0      -28.443664   -1.735321    2.521129
    113          6           0      -27.944555   -3.150464    2.688591
    114          6           0      -27.455951   -3.414889    1.398830
    115          6           0      -27.708703   -2.289396    0.550405
    116          6           0      -27.992442   -3.990288    3.951997
    117          6           0      -26.807063   -4.464053    0.627100
    118          8           0      -26.406565   -5.580711    0.958351
    119          6           0      -26.777995   -3.915352   -0.862358
    120          6           0      -25.315907   -4.074695   -1.323548
    121          8           0      -24.322552   -3.861047   -0.659635
    122          8           0      -25.311003   -4.669578   -2.583755
    123          6           0      -23.962706   -4.873023   -3.113993
    124          1           0      -28.133134    2.135516   -3.781734
    125          1           0      -30.713756    4.267490    1.811832
    126          1           0      -29.026780   -1.159705    4.513395
    127          1           0      -26.236605   -2.179029   -3.636890
    128          1           0      -27.780897   -0.068368   -4.779481
    129          1           0      -24.952443   -0.403578   -4.315806
    130          1           0      -25.359231    1.125225   -3.706152
    131          1           0      -25.791204    0.672270   -5.347322
    132          1           0      -29.062219   -1.854508   -4.488424
    133          1           0      -28.789280   -3.205005   -3.391575
    134          1           0      -28.585135   -4.161810   -5.497533
    135          1           0      -27.024514   -4.084580   -4.900565
    136          1           0      -27.837887    4.356482   -3.496208
    137          1           0      -28.938444    5.706284   -3.421140
    138          1           0      -29.426861    4.240369   -4.256495
    139          1           0      -29.265558    7.183934   -1.727775
    140          1           0      -30.797782    7.842716   -1.005888
    141          1           0      -30.777383    6.918682   -2.572604
    142          1           0      -31.489157    2.801436    3.852146
    143          1           0      -29.329578    1.199644    5.272495
    144          1           0      -29.247087    4.322809    3.778306
    145          1           0      -29.229622    3.486475    5.336836
    146          1           0      -30.752195    4.367604    4.778169
    147          1           0      -31.313224   -0.578129    4.925170
    148          1           0      -32.289090    0.890529    4.801976
    149          1           0      -31.001374    1.713688    6.936054
    150          1           0      -31.028151    0.072982    7.381267
    151          1           0      -32.563098    0.912929    6.909920
    152          1           0      -29.032520   -4.277610    4.107224
    153          1           0      -27.674645   -3.487064    4.864948
    154          1           0      -27.374446   -4.864202    3.746560
    155          1           0      -27.428523   -4.431231   -1.568352
    156          1           0      -23.569946   -4.039992   -3.697780
    157          1           0      -24.055402   -5.779347   -3.712233
    158          1           0      -23.137848   -5.037992   -2.420835
 ---------------------------------------------------------------------

 SCF Done:  E(RCAM-B3LYP) =  -4069.84650245     A.U. after   17 cycles

 Excitation energies and oscillator strengths:

 Excited State   1:      Singlet-A      1.7014 eV  728.71 nm  f=0.3699  <S**2>=0.000
     310 -> 316        0.18653
     311 -> 313        0.68384
     310 <- 316        0.10955
 This state for optimization and/or second-order correction.
 Total Energy, E(TD-HF/TD-DFT) =  -4069.78397618
 Copying the excited state density for this state as the 1-particle RhoCI density.

 Excited State   2:      Singlet-A      1.7237 eV  719.29 nm  f=0.3676  <S**2>=0.000
     309 -> 315        0.19171
     312 -> 314        0.68301
     309 <- 315        0.11115

 Excited State   3:      Singlet-A      2.2323 eV  555.40 nm  f=0.0993  <S**2>=0.000
     310 -> 313        0.63577
     311 -> 316       -0.29946

 Excited State   4:      Singlet-A      2.2830 eV  543.07 nm  f=0.0523  <S**2>=0.000
     309 -> 314        0.60481
     312 -> 315       -0.35604

 Excited State   5:      Singlet-A      3.2208 eV  384.95 nm  f=0.0000  <S**2>=0.000
     312 -> 313        0.70711

 The electronic state is 1-A.
 Alpha  occ. eigenvalues --  -46.88697 -46.87642 -19.26034 -19.25757 -19.20589
 Alpha  occ. eigenvalues --  -19.20405 -19.19200 -19.19102 -19.19091 -19.18770
 Alpha  occ. eigenvalues --  -14.42669 -14.42146 -14.42088 -14.41271 -14.39888
 Alpha  occ. eigenvalues --  -14.39475 -14.39394 -14.39358 -10.40259 -10.39678
 Alpha  occ. eigenvalues --  -10.35840 -10.35073 -10.35065 -10.34575 -10.31516
 Alpha  occ. eigenvalues --  -10.31472 -10.31433 -10.31144 -10.31137 -10.30868
 Alpha  occ. eigenvalues --  -10.30845 -10.30738 -10.30721 -10.30666 -10.30560
 Alpha  occ. eigenvalues --  -10.30320 -10.30271 -10.29802 -10.29579 -10.29548
 Alpha  occ. eigenvalues --  -10.29302 -10.29215 -10.29099 -10.28737 -10.28733
 Alpha  occ. eigenvalues --  -10.28707 -10.28624 -10.28622 -10.28553 -10.28420
 Alpha  occ. eigenvalues --  -10.28372 -10.28172 -10.28087 -10.27898 -10.27885
 Alpha  occ. eigenvalues --  -10.27849 -10.27828 -10.27825 -10.27553 -10.27541
 Alpha  occ. eigenvalues --  -10.27366 -10.27264 -10.27197 -10.27061 -10.27040
 Alpha  occ. eigenvalues --  -10.26938 -10.26908 -10.26884 -10.26874 -10.26861
 Alpha  occ. eigenvalues --  -10.26596 -10.26444 -10.26419 -10.26398 -10.26330
 Alpha  occ. eigenvalues --  -10.26241 -10.26239 -10.26010 -10.26003 -10.25984
 Alpha  occ. eigenvalues --  -10.25704 -10.25687 -10.25656 -10.25555 -10.25518
 Alpha  occ. eigenvalues --  -10.25146  -3.17306  -3.16425  -1.92181  -1.91777
 Alpha  occ. eigenvalues --   -1.91606  -1.91323  -1.90856  -1.90769  -1.16295
 Alpha  occ. eigenvalues --   -1.15974  -1.11920  -1.09226  -1.09114  -1.08923
 Alpha  occ. eigenvalues --   -1.08232  -1.08169  -1.04793  -1.04710  -1.04285
 Alpha  occ. eigenvalues --   -1.03661  -1.03068  -1.02869  -1.02085  -1.01451
 Alpha  occ. eigenvalues --   -0.93056  -0.92568  -0.89429  -0.89162  -0.89016
 Alpha  occ. eigenvalues --   -0.88981  -0.88518  -0.88292  -0.87623  -0.87478
 Alpha  occ. eigenvalues --   -0.87116  -0.87009  -0.86141  -0.85008  -0.84618
 Alpha  occ. eigenvalues --   -0.84410  -0.84247  -0.83544  -0.82596  -0.82531
 Alpha  occ. eigenvalues --   -0.82295  -0.81725  -0.81047  -0.80983  -0.80866
 Alpha  occ. eigenvalues --   -0.80081  -0.78451  -0.78013  -0.77462  -0.77283
 Alpha  occ. eigenvalues --   -0.77237  -0.76410  -0.76322  -0.76149  -0.75117
 Alpha  occ. eigenvalues --   -0.75055  -0.72898  -0.72677  -0.72133  -0.71659
 Alpha  occ. eigenvalues --   -0.69380  -0.69040  -0.68812  -0.68628  -0.68183
 Alpha  occ. eigenvalues --   -0.68166  -0.67312  -0.66786  -0.65881  -0.65784
 Alpha  occ. eigenvalues --   -0.65609  -0.65501  -0.64876  -0.64488  -0.64466
 Alpha  occ. eigenvalues --   -0.64159  -0.62730  -0.62573  -0.60370  -0.60260
 Alpha  occ. eigenvalues --   -0.60148  -0.60058  -0.59129  -0.58931  -0.58898
 Alpha  occ. eigenvalues --   -0.58509  -0.58496  -0.57746  -0.57690  -0.57495
 Alpha  occ. eigenvalues --   -0.56248  -0.56083  -0.56017  -0.55447  -0.55300
 Alpha  occ. eigenvalues --   -0.55111  -0.54985  -0.54689  -0.53960  -0.53800
 Alpha  occ. eigenvalues --   -0.53550  -0.53493  -0.53207  -0.53132  -0.53008
 Alpha  occ. eigenvalues --   -0.52876  -0.52793  -0.52690  -0.52564  -0.52200
 Alpha  occ. eigenvalues --   -0.52147  -0.51851  -0.51756  -0.51747  -0.51221
 Alpha  occ. eigenvalues --   -0.51023  -0.50902  -0.50481  -0.50469  -0.50212
 Alpha  occ. eigenvalues --   -0.50149  -0.50039  -0.49836  -0.49792  -0.49655
 Alpha  occ. eigenvalues --   -0.49364  -0.49307  -0.49092  -0.49067  -0.48899
 Alpha  occ. eigenvalues --   -0.48691  -0.48491  -0.48346  -0.48238  -0.48099
 Alpha  occ. eigenvalues --   -0.48083  -0.47616  -0.47525  -0.47399  -0.47135
 Alpha  occ. eigenvalues --   -0.46851  -0.46657  -0.46601  -0.46523  -0.46357
 Alpha  occ. eigenvalues --   -0.46301  -0.46272  -0.46145  -0.45977  -0.45902
 Alpha  occ. eigenvalues --   -0.45512  -0.45436  -0.45349  -0.44918  -0.44622
 Alpha  occ. eigenvalues --   -0.44528  -0.44450  -0.44351  -0.44340  -0.44317
 Alpha  occ. eigenvalues --   -0.44164  -0.43865  -0.43587  -0.43570  -0.43493
 Alpha  occ. eigenvalues --   -0.43304  -0.43184  -0.43074  -0.43010  -0.42682
 Alpha  occ. eigenvalues --   -0.42587  -0.42414  -0.42354  -0.42145  -0.41977
 Alpha  occ. eigenvalues --   -0.41935  -0.41747  -0.41738  -0.41606  -0.41603
 Alpha  occ. eigenvalues --   -0.41227  -0.41087  -0.41049  -0.40877  -0.40728
 Alpha  occ. eigenvalues --   -0.40446  -0.40382  -0.40240  -0.40043  -0.39687
 Alpha  occ. eigenvalues --   -0.38976  -0.38707  -0.38308  -0.37998  -0.37930
 Alpha  occ. eigenvalues --   -0.37473  -0.37261  -0.37152  -0.36870  -0.36694
 Alpha  occ. eigenvalues --   -0.36634  -0.36534  -0.35155  -0.34951  -0.34855
 Alpha  occ. eigenvalues --   -0.34720  -0.33491  -0.32850  -0.31517  -0.31414
 Alpha  occ. eigenvalues --   -0.31221  -0.30971  -0.30954  -0.30937  -0.30552
 Alpha  occ. eigenvalues --   -0.30156  -0.29995  -0.29661  -0.24401  -0.23948
 Alpha  occ. eigenvalues --   -0.21074  -0.21003
 Alpha virt. eigenvalues --   -0.08570  -0.08327  -0.02235  -0.01777   0.00000
 Alpha virt. eigenvalues --    0.00491   0.01750   0.01818   0.02732   0.03739
 Alpha virt. eigenvalues --    0.04193   0.04758   0.05006   0.05032   0.05608

 Mulliken charges:
               1
     1  Mg   0.819026
     2  C   -0.027497
     3  C   -0.090350
     4  C   -0.046268
     5  C   -0.087365
     6  N   -0.261365
     7  C   -0.073417
     8  C   -0.067294
     9  C   -0.064288
    10  C    0.017943
    11  C    0.108030
    12  C    0.065021
    13  C   -0.081528
    14  H    0.029408
    15  N   -0.432470
    16  C    0.196337
    17  C   -0.155252
    18  C   -0.066216
    19  C    0.129213
    20  C    0.128370
    21  C    0.011619
    22  O   -0.165219
    23  C    0.046957
    24  N   -0.260880
    25  C    0.045594
    26  C   -0.043774
    27  C   -0.029940
    28  C    0.049939
    29  C    0.066780
    30  C    0.022701
    31  C    0.021382
    32  N   -0.342435
    33  C    0.111616
    34  C   -0.193842
    35  C    0.033657
    36  C    0.152500
    37  C    0.142367
    38  C    0.016936
    39  O   -0.185143
    40  C    0.043554
    41  C    0.222864
    42  O   -0.215998
    43  O   -0.330692
    44  C    0.180775
    45  H   -0.024270
    46  H   -0.052564
    47  H   -0.027309
    48  H   -0.005477
    49  H   -0.002411
    50  H    0.020548
    51  H    0.016882
    52  H    0.032970
    53  H    0.008330
    54  H    0.031382
    55  H    0.028584
    56  H    0.035474
    57  H    0.032223
    58  H   -0.009173
    59  H    0.027808
    60  H    0.050348
    61  H    0.014676
    62  H    0.046899
    63  H    0.006562
    64  H    0.001281
    65  H    0.023834
    66  H    0.019666
    67  H    0.008315
    68  H    0.019318
    69  H   -0.007796
    70  H    0.021966
    71  H    0.005692
    72  H    0.020195
    73  H    0.016094
    74  H    0.034087
    75  H    0.041587
    76  H    0.030818
    77  H    0.024039
    78  H    0.031509
    79  H    0.036558
    80  Mg   0.856930
    81  C   -0.058750
    82  C   -0.109474
    83  C   -0.071383
    84  C   -0.087075
    85  N   -0.241841
    86  C   -0.014037
    87  C    0.014374
    88  C   -0.051422
    89  C   -0.006682
    90  C    0.052936
    91  C    0.064878
    92  C   -0.070546
    93  H    0.002374
    94  N   -0.342942
    95  C    0.211715
    96  C   -0.159419
    97  C   -0.006380
    98  C    0.104285
    99  C    0.108370
   100  C    0.005852
   101  O   -0.228239
   102  C    0.038022
   103  N   -0.379046
   104  C    0.084273
   105  C   -0.051032
   106  C   -0.001760
   107  C    0.029954
   108  C    0.063121
   109  C    0.045012
   110  C   -0.000568
   111  N   -0.392744
   112  C    0.133051
   113  C   -0.159676
   114  C   -0.023300
   115  C    0.156272
   116  C    0.124932
   117  C    0.083863
   118  O   -0.172880
   119  C   -0.034162
   120  C    0.197927
   121  O   -0.193131
   122  O   -0.339687
   123  C    0.167144
   124  H   -0.033793
   125  H   -0.010979
   126  H   -0.037297
   127  H    0.007786
   128  H    0.014684
   129  H    0.013058
   130  H    0.020448
   131  H    0.012816
   132  H    0.016731
   133  H    0.011998
   134  H    0.024794
   135  H    0.028574
   136  H    0.024990
   137  H    0.003812
   138  H    0.034953
   139  H    0.040286
   140  H    0.037957
   141  H    0.041721
   142  H    0.016573
   143  H    0.017689
   144  H    0.022114
   145  H    0.012477
   146  H    0.021704
   147  H    0.012885
   148  H    0.003401
   149  H    0.004435
   150  H    0.019157
   151  H    0.018463
   152  H    0.027676
   153  H    0.026018
   154  H    0.042298
   155  H    0.042753
   156  H    0.025736
   157  H    0.037242
   158  H    0.047729
 Sum of Mulliken charges =  -0.00000

 Dipole moment (field-independent basis, Debye):
    X=              1.3693    Y=              3.1872    Z=             -3.1743  Tot=              4.7021
 Quadrupole moment (field-independent basis, Debye-Ang):
   XX=           -329.7751   YY=           -575.2192   ZZ=           -465.7210
   XY=            -63.3003   XZ=             90.8187   YZ=             -1.8809

 Normal termination of Gaussian 16 at Thu Sep 16 12:39:43 2021.
