 Gaussian 16, Revision A.03,
 Gaussian 16:  ES64L-G16RevA.03 25-Dec-2016

 ----------------------------------------------------------
 #p cam-b3lyp/Def2SVP td=(nstates=5) density=(transition=1)
 ----------------------------------------------------------

 --------------------------------
 TDDFT excited states in gaussian
 --------------------------------
 Symbolic Z-matrix:
 Charge =  0 Multiplicity = 1

                         Standard orientation:
 ---------------------------------------------------------------------
 Center     Atomic      Atomic             Coordinates (Angstroms)
 Number     Number       Type             X           Y           Z
 ---------------------------------------------------------------------
      1         12           0      -29.887274    0.341587    0.281408
      2          6           0      -27.825379   -1.752413   -1.676647
      3          6           0      -29.864755    2.679489   -2.210954
      4          6           0      -31.219758    2.468763    2.419093
      5          6           0      -29.431617   -1.934513    2.964242
      6          7           0      -29.027319    0.369179   -1.767162
      7          6           0      -28.272714   -0.567221   -2.307437
      8          6           0      -28.191184   -0.309384   -3.801181
      9          6           0      -28.424986    1.246592   -3.910953
     10          6           0      -29.154156    1.485223   -2.536346
     11          6           0      -27.072026    2.015187   -4.160974
     12          6           0      -29.300471   -1.048128   -4.593143
     13          6           0      -29.014769   -1.262956   -6.144313
     14          1           0      -27.741284   -0.739126   -6.813638
     15          7           0      -30.634887    2.193516    0.071364
     16          6           0      -30.616602    3.029075   -1.074777
     17          6           0      -31.368471    4.265806   -0.758073
     18          6           0      -31.695192    4.231045    0.645092
     19          6           0      -31.198700    2.934135    1.154125
     20          6           0      -31.691743    5.318218   -1.759091
     21          6           0      -32.451057    5.238656    1.596044
     22          8           0      -32.728611    5.001220    2.779519
     23          6           0      -32.732867    6.622069    1.085664
     24          7           0      -30.176980    0.325904    2.450392
     25          6           0      -30.792523    1.294630    3.074756
     26          6           0      -31.026536    1.066031    4.541758
     27          6           0      -30.438152   -0.374214    4.746218
     28          6           0      -30.062053   -0.748836    3.277422
     29          6           0      -30.477059    2.215264    5.391963
     30          6           0      -31.413488   -1.383167    5.339410
     31          6           0      -30.832696   -2.386304    6.399413
     32          7           0      -28.903357   -1.557834    0.645783
     33          6           0      -28.852992   -2.375697    1.791609
     34          6           0      -28.239861   -3.611111    1.443218
     35          6           0      -27.653901   -3.379098    0.158065
     36          6           0      -28.118268   -2.168843   -0.291069
     37          6           0      -28.272269   -4.868000    2.264572
     38          6           0      -26.906643   -3.910148   -1.007282
     39          8           0      -26.338785   -4.972790   -1.151464
     40          6           0      -26.805083   -2.740004   -2.097343
     41          6           0      -26.753407   -3.307424   -3.478089
     42          8           0      -27.593998   -3.970828   -4.010037
     43          8           0      -25.512040   -3.051902   -4.090109
     44          6           0      -25.034338   -4.058256   -5.061964
     45          1           0      -29.743108    3.541475   -2.870872
     46          1           0      -31.773780    3.035163    3.169755
     47          1           0      -29.376067   -2.646929    3.790063
     48          1           0      -27.237963   -0.762916   -4.072599
     49          1           0      -29.104689    1.493466   -4.727219
     50          1           0      -26.239344    1.313247   -4.191012
     51          1           0      -26.922767    2.569536   -3.234385
     52          1           0      -27.034760    2.584105   -5.090060
     53          1           0      -30.175883   -0.406223   -4.486438
     54          1           0      -29.477058   -1.996490   -4.085798
     55          1           0      -29.885547   -0.832944   -6.641560
     56          1           0      -29.086343   -2.341072   -6.290036
     57          1           0      -31.521007    5.116797   -2.816013
     58          1           0      -31.112946    6.228349   -1.604256
     59          1           0      -32.763848    5.471258   -1.633031
     60          1           0      -33.671448    6.711556    0.538917
     61          1           0      -31.842064    6.765406    0.472852
     62          1           0      -32.694801    7.274968    1.957226
     63          1           0      -32.115170    1.046803    4.591140
     64          1           0      -29.546384   -0.403274    5.371114
     65          1           0      -29.661444    2.763656    4.919643
     66          1           0      -30.062052    1.738256    6.278966
     67          1           0      -31.244251    2.938950    5.668156
     68          1           0      -31.864060   -1.998392    4.560759
     69          1           0      -32.258568   -0.772608    5.657109
     70          1           0      -29.747670   -2.310337    6.468389
     71          1           0      -31.088497   -3.370209    6.006778
     72          1           0      -31.212348   -2.350633    7.421065
     73          1           0      -27.983906   -4.552149    3.267278
     74          1           0      -27.580181   -5.643492    1.935848
     75          1           0      -29.294199   -5.243046    2.328726
     76          1           0      -25.815146   -2.290178   -2.028344
     77          1           0      -24.991860   -3.580750   -6.040996
     78          1           0      -25.667323   -4.946025   -5.084550
     79          1           0      -24.032899   -4.325655   -4.724840
     80         12           0       29.721435    0.598834   -0.268068
     81          6           0       27.734484   -2.067764    0.776364
     82          6           0       27.238408    2.779763    0.713109
     83          6           0       31.795329    2.957800   -1.218090
     84          6           0       32.575304   -1.667720   -0.241540
     85          7           0       27.617849    0.306721    0.618625
     86          6           0       27.023491   -0.865540    0.993012
     87          6           0       25.646127   -0.625177    1.500784
     88          6           0       25.509358    0.949544    1.517893
     89          6           0       26.879902    1.434562    0.902924
     90          6           0       24.209487    1.494260    0.874104
     91          6           0       25.400485   -1.238372    2.900815
     92          6           0       24.141441   -2.103624    2.899751
     93          1           0       23.064162   -1.807208    3.986312
     94          7           0       29.523559    2.606093   -0.281967
     95          6           0       28.413558    3.349294    0.116877
     96          6           0       28.742112    4.734383   -0.194596
     97          6           0       30.079071    4.816779   -0.804412
     98          6           0       30.528939    3.390214   -0.866109
     99          6           0       27.918373    5.846531    0.225433
    100          6           0       30.746554    6.102321   -1.069161
    101          8           0       30.238675    7.187464   -0.878233
    102          6           0       32.163175    6.226790   -1.510249
    103          7           0       31.806506    0.619435   -0.608679
    104          6           0       32.357276    1.685495   -1.273680
    105          6           0       33.826931    1.433016   -1.536336
    106          6           0       34.123557    0.190799   -0.782592
    107          6           0       32.803723   -0.306324   -0.456273
    108          6           0       34.249027    1.446341   -3.062599
    109          6           0       34.852813    0.454229    0.579464
    110          6           0       35.745640   -0.595325    1.058102
    111          7           0       30.128608   -1.470205    0.141625
    112          6           0       31.287237   -2.252487    0.049349
    113          6           0       30.925038   -3.632703    0.131139
    114          6           0       29.573207   -3.626129    0.453998
    115          6           0       29.123402   -2.258114    0.490960
    116          6           0       31.883350   -4.752734   -0.041963
    117          6           0       28.479593   -4.445634    0.796073
    118          8           0       28.410182   -5.649980    0.899820
    119          6           0       27.262080   -3.508638    0.959491
    120          6           0       26.197964   -3.938991    0.038669
    121          8           0       26.086048   -3.594735   -1.150013
    122          8           0       25.430654   -4.908120    0.643233
    123          6           0       24.247798   -5.428670   -0.022836
    124          1           0       26.387021    3.405363    0.987185
    125          1           0       32.601751    3.639044   -1.500849
    126          1           0       33.454554   -2.314623   -0.272125
    127          1           0       25.003027   -0.894672    0.662518
    128          1           0       25.451182    1.370669    2.521101
    129          1           0       23.564425    0.614797    0.876621
    130          1           0       24.312037    1.987306   -0.092643
    131          1           0       23.759176    2.242130    1.526344
    132          1           0       25.179687   -0.503808    3.675041
    133          1           0       26.297663   -1.807313    3.144019
    134          1           0       24.584917   -3.054949    3.193335
    135          1           0       23.767492   -2.127824    1.877253
    136          1           0       27.033535    5.442431    0.717694
    137          1           0       27.504071    6.463038   -0.572860
    138          1           0       28.465137    6.444529    0.955354
    139          1           0       32.158056    5.488958   -2.312566
    140          1           0       32.811500    5.915613   -0.690712
    141          1           0       32.374702    7.228449   -1.885089
    142          1           0       34.305964    2.307125   -1.096783
    143          1           0       34.581871   -0.637105   -1.323636
    144          1           0       33.433462    1.821565   -3.681072
    145          1           0       34.691508    0.518079   -3.425725
    146          1           0       34.985068    2.214945   -3.296740
    147          1           0       34.109808    0.678819    1.344809
    148          1           0       35.469921    1.350429    0.517370
    149          1           0       36.732082   -0.439126    0.620136
    150          1           0       35.360918   -1.593918    0.848354
    151          1           0       35.983441   -0.422895    2.108274
    152          1           0       32.605010   -4.535678   -0.829372
    153          1           0       31.408942   -5.717985   -0.219685
    154          1           0       32.466435   -4.732672    0.878797
    155          1           0       26.758731   -3.630912    1.918640
    156          1           0       24.370062   -6.090446   -0.880338
    157          1           0       23.588715   -4.602993   -0.290337
    158          1           0       23.788750   -6.072897    0.726144
 ---------------------------------------------------------------------

 SCF Done:  E(RCAM-B3LYP) =  -4069.77154036     A.U. after   19 cycles

 Excitation energies and oscillator strengths:

 Excited State   1:      Singlet-A      1.6751 eV  740.15 nm  f=0.3670  <S**2>=0.000
     309 -> 315       -0.18827
     311 -> 313        0.68340
     309 <- 315       -0.11090
 This state for optimization and/or second-order correction.
 Total Energy, E(TD-HF/TD-DFT) =  -4069.70998088
 Copying the excited state density for this state as the 1-particle RhoCI density.

 Excited State   2:      Singlet-A      1.7949 eV  690.74 nm  f=0.3735  <S**2>=0.000
     310 -> 316       -0.18880
     312 -> 314        0.68032
     310 <- 316       -0.10304

 Excited State   3:      Singlet-A      2.1693 eV  571.55 nm  f=0.0991  <S**2>=0.000
     310 -> 314        0.64308
     312 -> 316        0.27287

 Excited State   4:      Singlet-A      2.1859 eV  567.20 nm  f=0.1025  <S**2>=0.000
     309 -> 313        0.63557
     311 -> 315        0.29758

 Excited State   5:      Singlet-A      3.1489 eV  393.74 nm  f=0.0000  <S**2>=0.000
     312 -> 313        0.70711

 The electronic state is 1-A.
 Alpha  occ. eigenvalues --  -46.88950 -46.88533 -19.24876 -19.23259 -19.20300
 Alpha  occ. eigenvalues --  -19.19569 -19.19371 -19.18363 -19.18358 -19.17388
 Alpha  occ. eigenvalues --  -14.42333 -14.41960 -14.41938 -14.41733 -14.40275
 Alpha  occ. eigenvalues --  -14.39736 -14.39176 -14.37997 -10.39097 -10.38541
 Alpha  occ. eigenvalues --  -10.36790 -10.34806 -10.34216 -10.33712 -10.32207
 Alpha  occ. eigenvalues --  -10.31684 -10.31627 -10.31579 -10.31576 -10.31542
 Alpha  occ. eigenvalues --  -10.31070 -10.31058 -10.30876 -10.30808 -10.30628
 Alpha  occ. eigenvalues --  -10.30604 -10.30481 -10.30088 -10.29873 -10.29726
 Alpha  occ. eigenvalues --  -10.29201 -10.29099 -10.28992 -10.28562 -10.28554
 Alpha  occ. eigenvalues --  -10.28379 -10.28324 -10.28225 -10.28202 -10.28181
 Alpha  occ. eigenvalues --  -10.28131 -10.28084 -10.27976 -10.27973 -10.27885
 Alpha  occ. eigenvalues --  -10.27849 -10.27817 -10.27688 -10.27625 -10.27619
 Alpha  occ. eigenvalues --  -10.27586 -10.27381 -10.27367 -10.27302 -10.27216
 Alpha  occ. eigenvalues --  -10.27182 -10.27148 -10.26892 -10.26802 -10.26690
 Alpha  occ. eigenvalues --  -10.26474 -10.26448 -10.26230 -10.26215 -10.26149
 Alpha  occ. eigenvalues --  -10.26073 -10.25971 -10.25867 -10.25857 -10.25611
 Alpha  occ. eigenvalues --  -10.25558 -10.25441 -10.25194 -10.24872 -10.24729
 Alpha  occ. eigenvalues --  -10.24417  -3.17439  -3.16993  -1.92342  -1.91906
 Alpha  occ. eigenvalues --   -1.91903  -1.91729  -1.91450  -1.91289  -1.15456
 Alpha  occ. eigenvalues --   -1.15194  -1.10477  -1.10063  -1.09850  -1.09535
 Alpha  occ. eigenvalues --   -1.06990  -1.06715  -1.05100  -1.04992  -1.04513
 Alpha  occ. eigenvalues --   -1.03809  -1.02995  -1.01687  -1.01579  -1.00963
 Alpha  occ. eigenvalues --   -0.92660  -0.91810  -0.90772  -0.89599  -0.89276
 Alpha  occ. eigenvalues --   -0.89057  -0.88895  -0.87739  -0.87715  -0.87588
 Alpha  occ. eigenvalues --   -0.87249  -0.87229  -0.86303  -0.85434  -0.85270
 Alpha  occ. eigenvalues --   -0.84550  -0.83976  -0.83681  -0.83463  -0.82861
 Alpha  occ. eigenvalues --   -0.82579  -0.81690  -0.81417  -0.80831  -0.80666
 Alpha  occ. eigenvalues --   -0.79859  -0.78677  -0.78593  -0.77983  -0.77183
 Alpha  occ. eigenvalues --   -0.77127  -0.76371  -0.76313  -0.75392  -0.75390
 Alpha  occ. eigenvalues --   -0.75142  -0.73416  -0.72500  -0.72040  -0.71690
 Alpha  occ. eigenvalues --   -0.69821  -0.69344  -0.69115  -0.68615  -0.67999
 Alpha  occ. eigenvalues --   -0.67522  -0.67245  -0.66624  -0.66474  -0.66037
 Alpha  occ. eigenvalues --   -0.65937  -0.65281  -0.65187  -0.64689  -0.64517
 Alpha  occ. eigenvalues --   -0.63458  -0.62039  -0.61041  -0.60746  -0.60197
 Alpha  occ. eigenvalues --   -0.59503  -0.59471  -0.59096  -0.58968  -0.58595
 Alpha  occ. eigenvalues --   -0.58049  -0.57923  -0.57535  -0.57418  -0.56823
 Alpha  occ. eigenvalues --   -0.56450  -0.56412  -0.55904  -0.55488  -0.55430
 Alpha  occ. eigenvalues --   -0.55150  -0.55073  -0.54439  -0.54259  -0.54249
 Alpha  occ. eigenvalues --   -0.53674  -0.53200  -0.53193  -0.53111  -0.52838
 Alpha  occ. eigenvalues --   -0.52817  -0.52555  -0.52297  -0.52172  -0.52102
 Alpha  occ. eigenvalues --   -0.52013  -0.51748  -0.51725  -0.51687  -0.51357
 Alpha  occ. eigenvalues --   -0.51291  -0.51236  -0.51193  -0.50902  -0.50502
 Alpha  occ. eigenvalues --   -0.50420  -0.50169  -0.50025  -0.50013  -0.49664
 Alpha  occ. eigenvalues --   -0.49393  -0.49274  -0.49125  -0.48932  -0.48856
 Alpha  occ. eigenvalues --   -0.48645  -0.48568  -0.48514  -0.48325  -0.48018
 Alpha  occ. eigenvalues --   -0.47830  -0.47627  -0.47513  -0.47310  -0.47140
 Alpha  occ. eigenvalues --   -0.47013  -0.47006  -0.46796  -0.46606  -0.46552
 Alpha  occ. eigenvalues --   -0.46486  -0.46321  -0.46215  -0.46145  -0.45744
 Alpha  occ. eigenvalues --   -0.45554  -0.45441  -0.45312  -0.45035  -0.44939
 Alpha  occ. eigenvalues --   -0.44870  -0.44592  -0.44485  -0.44246  -0.44054
 Alpha  occ. eigenvalues --   -0.43936  -0.43713  -0.43689  -0.43434  -0.43321
 Alpha  occ. eigenvalues --   -0.43237  -0.43069  -0.43068  -0.42972  -0.42731
 Alpha  occ. eigenvalues --   -0.42594  -0.42570  -0.42249  -0.42091  -0.42006
 Alpha  occ. eigenvalues --   -0.41683  -0.41670  -0.41589  -0.41546  -0.41349
 Alpha  occ. eigenvalues --   -0.41340  -0.41175  -0.41142  -0.40970  -0.40679
 Alpha  occ. eigenvalues --   -0.40270  -0.40130  -0.39994  -0.39218  -0.39052
 Alpha  occ. eigenvalues --   -0.38779  -0.38491  -0.37743  -0.37717  -0.37553
 Alpha  occ. eigenvalues --   -0.37338  -0.36978  -0.36390  -0.36371  -0.36325
 Alpha  occ. eigenvalues --   -0.35748  -0.35396  -0.34353  -0.34165  -0.33789
 Alpha  occ. eigenvalues --   -0.33719  -0.33093  -0.33034  -0.31895  -0.31389
 Alpha  occ. eigenvalues --   -0.31183  -0.30684  -0.30469  -0.29915  -0.29887
 Alpha  occ. eigenvalues --   -0.29664  -0.29447  -0.28294  -0.24315  -0.23720
 Alpha  occ. eigenvalues --   -0.21581  -0.21322
 Alpha virt. eigenvalues --   -0.09169  -0.08482  -0.02518  -0.02018  -0.00118
 Alpha virt. eigenvalues --    0.00243   0.02342   0.02668   0.02725   0.03014
 Alpha virt. eigenvalues --    0.04080   0.04829   0.04987   0.05453   0.05774

 Mulliken charges:
               1
     1  Mg  12.000006
     2  C    5.999975
     3  C    6.000002
     4  C    6.000003
     5  C    6.000046
     6  N    7.000001
     7  C    6.000039
     8  C    5.999999
     9  C    6.000019
    10  C    5.999965
    11  C    6.000002
    12  C    5.999995
    13  C    6.000002
    14  H    0.999997
    15  N    7.000016
    16  C    5.999971
    17  C    5.999979
    18  C    6.000012
    19  C    5.999969
    20  C    6.000011
    21  C    5.999953
    22  O    7.999978
    23  C    6.000002
    24  N    6.999997
    25  C    5.999975
    26  C    6.000014
    27  C    5.999989
    28  C    5.999998
    29  C    6.000009
    30  C    5.999992
    31  C    6.000000
    32  N    6.999991
    33  C    5.999991
    34  C    6.000055
    35  C    5.999979
    36  C    6.000003
    37  C    5.999997
    38  C    6.000062
    39  O    8.000035
    40  C    5.999997
    41  C    6.000017
    42  O    8.000010
    43  O    7.999997
    44  C    5.999992
    45  H    0.999980
    46  H    0.999991
    47  H    1.000016
    48  H    0.999993
    49  H    0.999993
    50  H    0.999985
    51  H    0.999992
    52  H    0.999983
    53  H    1.000016
    54  H    0.999998
    55  H    1.000002
    56  H    1.000009
    57  H    0.999974
    58  H    0.999953
    59  H    0.999978
    60  H    0.999986
    61  H    0.999989
    62  H    0.999970
    63  H    1.000004
    64  H    1.000003
    65  H    0.999989
    66  H    0.999987
    67  H    0.999998
    68  H    1.000004
    69  H    1.000013
    70  H    0.999997
    71  H    1.000008
    72  H    1.000013
    73  H    1.000029
    74  H    1.000036
    75  H    1.000039
    76  H    1.000004
    77  H    1.000002
    78  H    1.000016
    79  H    1.000010
    80  Mg  12.001311
    81  C    6.017979
    82  C    5.979234
    83  C    5.975443
    84  C    6.023882
    85  N    7.004608
    86  C    5.965937
    87  C    6.014202
    88  C    5.990987
    89  C    6.029869
    90  C    5.996886
    91  C    6.001076
    92  C    6.001154
    93  H    0.991884
    94  N    6.985790
    95  C    6.050826
    96  C    6.020513
    97  C    6.012749
    98  C    6.044733
    99  C    5.987885
   100  C    6.006761
   101  O    8.018375
   102  C    5.998804
   103  N    7.007564
   104  C    6.034737
   105  C    5.992088
   106  C    6.007731
   107  C    5.960993
   108  C    5.998810
   109  C    6.008236
   110  C    6.000835
   111  N    7.005895
   112  C    5.951308
   113  C    5.976011
   114  C    5.994890
   115  C    5.963716
   116  C    6.001993
   117  C    5.982609
   118  O    7.967167
   119  C    6.002678
   120  C    5.995045
   121  O    7.991942
   122  O    8.000451
   123  C    6.003751
   124  H    1.009813
   125  H    1.011088
   126  H    0.991073
   127  H    0.995943
   128  H    1.000945
   129  H    1.012392
   130  H    0.997255
   131  H    0.999910
   132  H    0.991875
   133  H    1.007404
   134  H    1.004240
   135  H    0.999343
   136  H    1.020790
   137  H    1.023224
   138  H    1.021250
   139  H    1.005886
   140  H    1.010702
   141  H    1.012486
   142  H    0.999655
   143  H    1.002218
   144  H    0.997457
   145  H    1.013025
   146  H    1.002113
   147  H    0.994328
   148  H    0.985149
   149  H    0.994534
   150  H    1.006216
   151  H    0.996197
   152  H    0.980371
   153  H    0.985618
   154  H    0.980945
   155  H    0.990548
   156  H    0.997052
   157  H    0.993634
   158  H    0.995982
 Sum of Mulliken charges = 624.00000

 Dipole moment (field-independent basis, Debye):
    X=             -0.9311    Y=             10.6194    Z=             -1.3757  Tot=             10.7486
 Quadrupole moment (field-independent basis, Debye-Ang):
   XX=            -59.7161   YY=             11.0626   ZZ=              0.8938
   XY=            314.6419   XZ=            -42.9331   YZ=             -1.4057

 Normal termination of Gaussian 16 at Wed Sep 22 03:33:17 2021.
