 Gaussian 16, Revision A.03,
 Gaussian 16:  ES64L-G16RevA.03 25-Dec-2016

 ----------------------------------------------------------
 #p cam-b3lyp/Def2SVP td=(nstates=5) density=(transition=1)
 ----------------------------------------------------------

 --------------------------------
 TDDFT excited states in gaussian
 --------------------------------
 Symbolic Z-matrix:
 Charge =  0 Multiplicity = 1

                         Standard orientation:
 ---------------------------------------------------------------------
 Center     Atomic      Atomic             Coordinates (Angstroms)
 Number     Number       Type             X           Y           Z
 ---------------------------------------------------------------------
      1         12           0        9.453497   -0.298872    0.650872
      2          6           0        8.989795    1.881298   -1.995895
      3          6           0        6.509691    0.836892    2.067842
      4          6           0        9.568894   -2.931436    2.760641
      5          6           0       12.229928   -1.545754   -1.130802
      6          7           0        7.772204    1.000423   -0.058613
      7          6           0        7.944213    1.882466   -1.047163
      8          6           0        6.660561    2.752725   -1.216196
      9          6           0        6.003114    2.609752    0.236996
     10          6           0        6.856299    1.437880    0.857029
     11          6           0        5.966740    3.946363    1.016517
     12          6           0        5.750896    2.153230   -2.264303
     13          6           0        5.077037    3.149727   -3.194636
     14          1           0        3.599867    2.970484   -3.711328
     15          7           0        8.251203   -0.829804    2.333535
     16          6           0        7.070226   -0.316825    2.719419
     17          6           0        6.663129   -1.013559    3.896278
     18          6           0        7.629469   -2.009728    4.232011
     19          6           0        8.581867   -1.955036    3.116039
     20          6           0        5.507097   -0.559559    4.708554
     21          6           0        7.476102   -2.978756    5.349992
     22          8           0        6.528873   -2.889422    6.113338
     23          6           0        8.517909   -4.057714    5.620305
     24          7           0       10.841169   -2.015876    0.831878
     25          6           0       10.572241   -2.968681    1.767879
     26          6           0       11.419688   -4.179278    1.546758
     27          6           0       12.273017   -3.714377    0.273549
     28          6           0       11.839989   -2.303423   -0.038664
     29          6           0       12.238527   -4.627331    2.771850
     30          6           0       12.207114   -4.671744   -0.997688
     31          6           0       13.505613   -5.171961   -1.673187
     32          7           0       10.435142    0.068754   -1.132933
     33          6           0       11.565868   -0.456078   -1.675392
     34          6           0       12.039789    0.374222   -2.692020
     35          6           0       11.079805    1.359271   -2.877840
     36          6           0       10.094643    1.088442   -1.961606
     37          6           0       13.330368    0.106785   -3.520676
     38          6           0       10.721155    2.491177   -3.595907
     39          8           0       11.278451    2.971934   -4.576440
     40          6           0        9.258480    2.943509   -3.116241
     41          6           0        9.273151    4.221797   -2.501689
     42          8           0        9.648934    4.575263   -1.381445
     43          8           0        8.732958    5.101188   -3.435028
     44          6           0        8.598107    6.515975   -3.133295
     45          1           0        5.671919    1.294324    2.597831
     46          1           0        9.737005   -3.826070    3.364585
     47          1           0       13.152246   -1.955715   -1.547855
     48          1           0        6.973695    3.755382   -1.505954
     49          1           0        5.007717    2.166793    0.232377
     50          1           0        6.492573    4.739279    0.485012
     51          1           0        6.409673    3.804203    2.002782
     52          1           0        4.919810    4.198750    1.183283
     53          1           0        4.968305    1.474001   -1.925609
     54          1           0        6.383668    1.441084   -2.793942
     55          1           0        5.754453    3.289866   -4.036823
     56          1           0        5.128321    4.059760   -2.596904
     57          1           0        5.984565    0.018769    5.499321
     58          1           0        4.935771   -1.402239    5.098355
     59          1           0        4.809092    0.065039    4.150983
     60          1           0        8.308853   -4.852952    4.904607
     61          1           0        8.252732   -4.484132    6.587442
     62          1           0        9.525954   -3.650677    5.542204
     63          1           0       10.647193   -4.903740    1.290900
     64          1           0       13.343555   -3.743488    0.476610
     65          1           0       11.746173   -5.525762    3.145483
     66          1           0       12.311448   -3.856450    3.539700
     67          1           0       13.236416   -4.923567    2.449400
     68          1           0       11.652310   -4.157150   -1.782086
     69          1           0       11.704628   -5.616822   -0.790514
     70          1           0       13.649422   -4.370780   -2.398005
     71          1           0       13.319585   -6.101005   -2.210491
     72          1           0       14.451482   -5.142726   -1.132444
     73          1           0       13.131930   -0.711765   -4.211377
     74          1           0       14.198303   -0.239651   -2.959295
     75          1           0       13.610042    0.986904   -4.100368
     76          1           0        8.624479    2.874540   -4.000337
     77          1           0        8.705214    7.052623   -4.075468
     78          1           0        9.243172    6.884629   -2.335301
     79          1           0        7.560080    6.691820   -2.850667
     80         12           0       -9.603766   -0.756749   -0.171196
     81          6           0       -8.204165    2.195145    1.136630
     82          6           0       -6.382428   -1.741441   -1.033724
     83          6           0      -10.998557   -3.366079   -1.679018
     84          6           0      -12.846447    0.775591   -0.005553
     85          7           0       -7.563557    0.124025    0.003803
     86          6           0       -7.247528    1.299993    0.698568
     87          6           0       -5.770954    1.289297    1.048415
     88          6           0       -5.147890    0.198188    0.131909
     89          6           0       -6.447982   -0.527665   -0.328243
     90          6           0       -4.197436    0.701717   -0.999388
     91          6           0       -5.461206    1.103486    2.574299
     92          6           0       -4.130516    1.828676    3.062241
     93          1           0       -3.289842    2.561340    2.013203
     94          7           0       -8.813556   -2.341156   -1.067315
     95          6           0       -7.470039   -2.612481   -1.260947
     96          6           0       -7.291918   -3.917621   -1.828932
     97          6           0       -8.612904   -4.367688   -2.148345
     98          6           0       -9.517732   -3.373838   -1.598837
     99          6           0       -5.898319   -4.533282   -2.160660
    100          6           0       -9.029577   -5.598364   -2.885346
    101          8           0      -10.221234   -5.784562   -3.229238
    102          6           0       -8.152025   -6.768230   -3.419999
    103          7           0      -11.586789   -1.133249   -1.012553
    104          6           0      -11.922892   -2.345327   -1.492953
    105          6           0      -13.463305   -2.483696   -1.585930
    106          6           0      -14.058725   -1.165431   -1.078566
    107          6           0      -12.710541   -0.458308   -0.612224
    108          6           0      -13.899500   -2.979283   -2.930954
    109          6           0      -15.126274   -1.256357    0.032923
    110          6           0      -14.664372   -1.947010    1.339761
    111          7           0      -10.433570    1.135984    0.376998
    112          6           0      -11.725865    1.507999    0.529840
    113          6           0      -11.714381    2.765594    1.275510
    114          6           0      -10.368484    3.108113    1.585656
    115          6           0       -9.596790    2.095181    0.966087
    116          6           0      -12.946369    3.517178    1.772729
    117          6           0       -9.517260    4.059703    2.225445
    118          8           0       -9.717738    5.036238    2.942769
    119          6           0       -7.981923    3.510794    1.889484
    120          6           0       -7.185705    4.625794    1.237984
    121          8           0       -7.275082    4.917081    0.061390
    122          8           0       -6.293402    5.176460    2.129629
    123          6           0       -5.716883    6.484261    1.834951
    124          1           0       -5.328244   -2.004531   -1.141264
    125          1           0      -11.400931   -4.290802   -2.097192
    126          1           0      -13.874870    1.115126    0.132012
    127          1           0       -5.332521    2.252394    0.787439
    128          1           0       -4.587893   -0.476172    0.779143
    129          1           0       -4.658917    0.283148   -1.893150
    130          1           0       -3.217043    0.231154   -0.916025
    131          1           0       -4.064318    1.771849   -1.157954
    132          1           0       -5.274826    0.058067    2.818229
    133          1           0       -6.330967    1.424602    3.146008
    134          1           0       -3.444501    1.051739    3.400019
    135          1           0       -4.411455    2.512724    3.862653
    136          1           0       -5.995492   -5.075290   -3.102136
    137          1           0       -5.570249   -5.254722   -1.413091
    138          1           0       -5.009556   -3.908988   -2.251395
    139          1           0       -7.561993   -7.205475   -2.614033
    140          1           0       -7.520528   -6.468140   -4.256173
    141          1           0       -8.703992   -7.684018   -3.628237
    142          1           0      -13.712015   -3.350784   -0.975393
    143          1           0      -14.329756   -0.619851   -1.983127
    144          1           0      -14.158252   -4.038288   -2.928358
    145          1           0      -13.132086   -2.760902   -3.673750
    146          1           0      -14.767251   -2.459704   -3.338858
    147          1           0      -15.901106   -1.875343   -0.419858
    148          1           0      -15.527037   -0.266036    0.251173
    149          1           0      -14.785585   -1.193597    2.117814
    150          1           0      -13.619601   -2.222801    1.196331
    151          1           0      -15.168964   -2.889536    1.552770
    152          1           0      -12.833046    3.878290    2.794517
    153          1           0      -13.809664    2.857528    1.855560
    154          1           0      -13.189005    4.288587    1.041354
    155          1           0       -7.544283    3.330189    2.871628
    156          1           0       -5.503925    6.494090    0.765677
    157          1           0       -4.784550    6.701715    2.356190
    158          1           0       -6.455761    7.209902    2.175050
 ---------------------------------------------------------------------

 SCF Done:  E(RCAM-B3LYP) =  -4069.79513558     A.U. after   17 cycles

 Excitation energies and oscillator strengths:

 Excited State   1:      Singlet-A      1.6591 eV  747.28 nm  f=0.4022  <S**2>=0.000
     310 -> 316        0.16726
     312 -> 314        0.68816
     310 <- 316        0.10532
 This state for optimization and/or second-order correction.
 Total Energy, E(TD-HF/TD-DFT) =  -4069.73416358
 Copying the excited state density for this state as the 1-particle RhoCI density.

 Excited State   2:      Singlet-A      1.6988 eV  729.84 nm  f=0.3986  <S**2>=0.000
     309 -> 315       -0.18505
     311 -> 313        0.68475
     309 <- 315       -0.10996

 Excited State   3:      Singlet-A      2.1917 eV  565.71 nm  f=0.1629  <S**2>=0.000
     310 -> 314        0.65632
     312 -> 316       -0.24475

 Excited State   4:      Singlet-A      2.2282 eV  556.44 nm  f=0.0978  <S**2>=0.000
     309 -> 313        0.63587
     311 -> 315        0.29353

 Excited State   5:      Singlet-A      2.7765 eV  446.54 nm  f=0.0000  <S**2>=0.000
     312 -> 313        0.70695

 The electronic state is 1-A.
 Alpha  occ. eigenvalues --  -46.89851 -46.88901 -19.24765 -19.24267 -19.20326
 Alpha  occ. eigenvalues --  -19.19394 -19.19353 -19.19265 -19.18528 -19.18355
 Alpha  occ. eigenvalues --  -14.42545 -14.42517 -14.42179 -14.41425 -14.40265
 Alpha  occ. eigenvalues --  -14.39970 -14.39372 -14.39360 -10.39756 -10.39125
 Alpha  occ. eigenvalues --  -10.35584 -10.35469 -10.35377 -10.34794 -10.31714
 Alpha  occ. eigenvalues --  -10.31693 -10.31559 -10.31533 -10.31465 -10.31433
 Alpha  occ. eigenvalues --  -10.31296 -10.31066 -10.30933 -10.30795 -10.30723
 Alpha  occ. eigenvalues --  -10.30462 -10.30344 -10.29935 -10.29845 -10.29603
 Alpha  occ. eigenvalues --  -10.29509 -10.29300 -10.29032 -10.29004 -10.28866
 Alpha  occ. eigenvalues --  -10.28664 -10.28490 -10.28486 -10.28464 -10.28353
 Alpha  occ. eigenvalues --  -10.28346 -10.28242 -10.28197 -10.28157 -10.27971
 Alpha  occ. eigenvalues --  -10.27968 -10.27958 -10.27939 -10.27925 -10.27842
 Alpha  occ. eigenvalues --  -10.27541 -10.27525 -10.27514 -10.27472 -10.27447
 Alpha  occ. eigenvalues --  -10.27198 -10.26998 -10.26942 -10.26875 -10.26771
 Alpha  occ. eigenvalues --  -10.26714 -10.26668 -10.26584 -10.26324 -10.26278
 Alpha  occ. eigenvalues --  -10.26251 -10.26196 -10.26064 -10.26032 -10.26019
 Alpha  occ. eigenvalues --  -10.25603 -10.25590 -10.25286 -10.25104 -10.25009
 Alpha  occ. eigenvalues --  -10.24899  -3.18173  -3.17472  -1.93086  -1.92623
 Alpha  occ. eigenvalues --   -1.92466  -1.92342  -1.91927  -1.91785  -1.15877
 Alpha  occ. eigenvalues --   -1.15458  -1.10178  -1.10163  -1.09443  -1.08405
 Alpha  occ. eigenvalues --   -1.07655  -1.07465  -1.05673  -1.04323  -1.04251
 Alpha  occ. eigenvalues --   -1.04021  -1.03463  -1.03209  -1.02775  -1.02108
 Alpha  occ. eigenvalues --   -0.94055  -0.92183  -0.89636  -0.89329  -0.89200
 Alpha  occ. eigenvalues --   -0.88555  -0.88552  -0.88142  -0.88059  -0.87363
 Alpha  occ. eigenvalues --   -0.87040  -0.86794  -0.86369  -0.85577  -0.85308
 Alpha  occ. eigenvalues --   -0.84803  -0.83816  -0.83333  -0.83205  -0.82426
 Alpha  occ. eigenvalues --   -0.82188  -0.81641  -0.81061  -0.80962  -0.80628
 Alpha  occ. eigenvalues --   -0.80033  -0.78701  -0.78338  -0.77768  -0.76946
 Alpha  occ. eigenvalues --   -0.76776  -0.76732  -0.76657  -0.75840  -0.75346
 Alpha  occ. eigenvalues --   -0.74983  -0.73674  -0.72555  -0.72537  -0.71081
 Alpha  occ. eigenvalues --   -0.69984  -0.69919  -0.69414  -0.69133  -0.68332
 Alpha  occ. eigenvalues --   -0.68295  -0.67594  -0.67523  -0.66340  -0.66086
 Alpha  occ. eigenvalues --   -0.65649  -0.65216  -0.65026  -0.64913  -0.64144
 Alpha  occ. eigenvalues --   -0.64130  -0.62848  -0.61642  -0.60900  -0.60659
 Alpha  occ. eigenvalues --   -0.60053  -0.59488  -0.59285  -0.59261  -0.58791
 Alpha  occ. eigenvalues --   -0.58350  -0.58164  -0.58068  -0.57418  -0.56950
 Alpha  occ. eigenvalues --   -0.56521  -0.56307  -0.55893  -0.55759  -0.55631
 Alpha  occ. eigenvalues --   -0.55025  -0.54928  -0.54740  -0.54519  -0.53951
 Alpha  occ. eigenvalues --   -0.53703  -0.53567  -0.53479  -0.53049  -0.52817
 Alpha  occ. eigenvalues --   -0.52771  -0.52542  -0.52495  -0.52344  -0.52251
 Alpha  occ. eigenvalues --   -0.52241  -0.51992  -0.51985  -0.51661  -0.51484
 Alpha  occ. eigenvalues --   -0.51318  -0.51022  -0.50719  -0.50538  -0.50307
 Alpha  occ. eigenvalues --   -0.50159  -0.50012  -0.49753  -0.49600  -0.49512
 Alpha  occ. eigenvalues --   -0.49282  -0.49202  -0.49189  -0.49146  -0.49026
 Alpha  occ. eigenvalues --   -0.48767  -0.48605  -0.48558  -0.48463  -0.48187
 Alpha  occ. eigenvalues --   -0.47869  -0.47754  -0.47683  -0.47410  -0.47043
 Alpha  occ. eigenvalues --   -0.46912  -0.46880  -0.46772  -0.46679  -0.46376
 Alpha  occ. eigenvalues --   -0.46299  -0.46290  -0.46120  -0.45976  -0.45829
 Alpha  occ. eigenvalues --   -0.45647  -0.45468  -0.45460  -0.45234  -0.45198
 Alpha  occ. eigenvalues --   -0.44872  -0.44720  -0.44678  -0.44542  -0.44238
 Alpha  occ. eigenvalues --   -0.44080  -0.44071  -0.43991  -0.43764  -0.43548
 Alpha  occ. eigenvalues --   -0.43402  -0.43324  -0.43135  -0.43044  -0.43037
 Alpha  occ. eigenvalues --   -0.42632  -0.42411  -0.42330  -0.42222  -0.42081
 Alpha  occ. eigenvalues --   -0.42012  -0.41921  -0.41845  -0.41598  -0.41596
 Alpha  occ. eigenvalues --   -0.41525  -0.41232  -0.40735  -0.40614  -0.40399
 Alpha  occ. eigenvalues --   -0.40100  -0.39906  -0.39625  -0.39246  -0.38672
 Alpha  occ. eigenvalues --   -0.38462  -0.38377  -0.38130  -0.37806  -0.37634
 Alpha  occ. eigenvalues --   -0.37547  -0.37439  -0.36820  -0.36402  -0.36308
 Alpha  occ. eigenvalues --   -0.35980  -0.35841  -0.35055  -0.34530  -0.34015
 Alpha  occ. eigenvalues --   -0.33785  -0.33739  -0.33055  -0.31988  -0.31463
 Alpha  occ. eigenvalues --   -0.31358  -0.30893  -0.30789  -0.30732  -0.30656
 Alpha  occ. eigenvalues --   -0.30288  -0.29617  -0.29485  -0.24717  -0.24117
 Alpha  occ. eigenvalues --   -0.21711  -0.21378
 Alpha virt. eigenvalues --   -0.09349  -0.09238  -0.02437  -0.01405  -0.00338
 Alpha virt. eigenvalues --   -0.00044   0.01371   0.02169   0.02173   0.02364
 Alpha virt. eigenvalues --    0.03903   0.04464   0.05200   0.05334   0.05375

 Mulliken charges:
               1
     1  Mg  12.000138
     2  C    6.000339
     3  C    5.999604
     4  C    6.000023
     5  C    6.000523
     6  N    6.999857
     7  C    5.999557
     8  C    6.000093
     9  C    5.999790
    10  C    6.000887
    11  C    6.000100
    12  C    5.999588
    13  C    5.999977
    14  H    1.000739
    15  N    6.999830
    16  C    6.001064
    17  C    6.000761
    18  C    6.000135
    19  C    6.000749
    20  C    5.999747
    21  C    6.000378
    22  O    8.000265
    23  C    5.999801
    24  N    7.000213
    25  C    6.000498
    26  C    5.999791
    27  C    6.000132
    28  C    5.999289
    29  C    5.999870
    30  C    6.000007
    31  C    5.999938
    32  N    7.000019
    33  C    5.999478
    34  C    5.999434
    35  C    5.999849
    36  C    5.999607
    37  C    6.000017
    38  C    5.999611
    39  O    7.999239
    40  C    5.999783
    41  C    6.000022
    42  O    7.999580
    43  O    8.000050
    44  C    6.000292
    45  H    0.999696
    46  H    1.000321
    47  H    0.999820
    48  H    0.999656
    49  H    1.000420
    50  H    0.999907
    51  H    0.999609
    52  H    0.999477
    53  H    1.000696
    54  H    1.000527
    55  H    0.999944
    56  H    0.999153
    57  H    0.999816
    58  H    1.000741
    59  H    1.000474
    60  H    1.000645
    61  H    1.000145
    62  H    0.999878
    63  H    1.000406
    64  H    0.999783
    65  H    1.000147
    66  H    0.999749
    67  H    1.000109
    68  H    1.000336
    69  H    1.000114
    70  H    1.000057
    71  H    1.000130
    72  H    0.999710
    73  H    0.999792
    74  H    0.999456
    75  H    0.999584
    76  H    1.000012
    77  H    0.999767
    78  H    0.999646
    79  H    0.999612
    80  Mg  12.000546
    81  C    5.973953
    82  C    6.005612
    83  C    6.023284
    84  C    5.990453
    85  N    6.988902
    86  C    6.037467
    87  C    5.990266
    88  C    6.012058
    89  C    5.974827
    90  C    5.998195
    91  C    5.997027
    92  C    5.999231
    93  H    1.005487
    94  N    7.007384
    95  C    5.959919
    96  C    5.974623
    97  C    5.986614
    98  C    5.966057
    99  C    6.003557
   100  C    5.991960
   101  O    7.967257
   102  C    6.004487
   103  N    7.008487
   104  C    5.965662
   105  C    6.005242
   106  C    5.991353
   107  C    6.021821
   108  C    6.002526
   109  C    5.995856
   110  C    5.994501
   111  N    6.995134
   112  C    6.037287
   113  C    6.038580
   114  C    5.998626
   115  C    6.041934
   116  C    5.996265
   117  C    6.012320
   118  O    8.026282
   119  C    6.005706
   120  C    6.003026
   121  O    8.005603
   122  O    8.001755
   123  C    5.997958
   124  H    0.985919
   125  H    0.996284
   126  H    1.010443
   127  H    0.999053
   128  H    0.996944
   129  H    1.005038
   130  H    0.997029
   131  H    0.986399
   132  H    1.012585
   133  H    0.992068
   134  H    1.005562
   135  H    0.996823
   136  H    0.983728
   137  H    0.978497
   138  H    0.979904
   139  H    0.991731
   140  H    0.990901
   141  H    0.985519
   142  H    1.000401
   143  H    1.004360
   144  H    1.002014
   145  H    1.003925
   146  H    0.990020
   147  H    1.009663
   148  H    0.995287
   149  H    0.994557
   150  H    1.007329
   151  H    1.008258
   152  H    1.019785
   153  H    1.021696
   154  H    1.023414
   155  H    1.008876
   156  H    1.004821
   157  H    1.006048
   158  H    1.000030
 Sum of Mulliken charges = 624.00000

 Dipole moment (field-independent basis, Debye):
    X=             -4.5944    Y=              9.1427    Z=              4.8103  Tot=             11.3065
 Quadrupole moment (field-independent basis, Debye-Ang):
   XX=             84.2840   YY=            -10.8261   ZZ=             -2.5945
   XY=            -85.1957   XZ=            -40.6211   YZ=             -6.0446

 Normal termination of Gaussian 16 at Wed Sep 22 05:41:12 2021.
