 Gaussian 16, Revision A.03,
 Gaussian 16:  ES64L-G16RevA.03 25-Dec-2016

 ----------------------------------------------------------
 #p cam-b3lyp/Def2SVP td=(nstates=5) density=(transition=1)
 ----------------------------------------------------------

 --------------------------------
 TDDFT excited states in gaussian
 --------------------------------
 Symbolic Z-matrix:
 Charge =  0 Multiplicity = 1

                         Standard orientation:
 ---------------------------------------------------------------------
 Center     Atomic      Atomic             Coordinates (Angstroms)
 Number     Number       Type             X           Y           Z
 ---------------------------------------------------------------------
      1         12           0       25.734265   -0.679627    0.474989
      2          6           0       25.912747    2.151305   -1.431814
      3          6           0       25.601679    1.119451    3.276425
      4          6           0       25.801746   -3.491612    2.121418
      5          6           0       26.484703   -2.473054   -2.512153
      6          7           0       25.928107    1.438737    0.905142
      7          6           0       25.719953    2.383847   -0.045361
      8          6           0       25.309223    3.701087    0.553682
      9          6           0       25.501598    3.399308    2.094044
     10          6           0       25.776648    1.911361    2.117199
     11          6           0       26.573252    4.269153    2.793965
     12          6           0       23.823552    4.231695    0.075534
     13          6           0       23.675509    5.693487   -0.373347
     14          1           0       24.726179    6.710356    0.173432
     15          7           0       25.536797   -1.112540    2.336368
     16          6           0       25.497286   -0.272077    3.403026
     17          6           0       25.502025   -0.960548    4.670786
     18          6           0       25.353588   -2.276404    4.351357
     19          6           0       25.685834   -2.339185    2.894131
     20          6           0       25.684035   -0.115371    5.918230
     21          6           0       25.135954   -3.480208    5.289499
     22          8           0       25.075951   -4.628409    4.915661
     23          6           0       25.038576   -3.110022    6.740036
     24          7           0       26.271225   -2.679433   -0.131573
     25          6           0       26.077480   -3.658075    0.770806
     26          6           0       26.254036   -5.037384    0.128092
     27          6           0       26.155543   -4.723997   -1.403527
     28          6           0       26.341532   -3.193079   -1.372691
     29          6           0       27.538053   -5.890137    0.509984
     30          6           0       24.787548   -5.071996   -2.102535
     31          6           0       23.472998   -4.484194   -1.661300
     32          7           0       26.048408   -0.346413   -1.603849
     33          6           0       26.431969   -1.133688   -2.694365
     34          6           0       26.578898   -0.331512   -3.915553
     35          6           0       26.372223    0.980955   -3.465049
     36          6           0       26.057373    0.878073   -2.073471
     37          6           0       26.827523   -0.807946   -5.323644
     38          6           0       26.342452    2.323311   -3.828954
     39          8           0       26.570332    2.909741   -4.875505
     40          6           0       25.817433    3.116995   -2.604627
     41          6           0       26.761581    4.255697   -2.533656
     42          8           0       27.895192    4.215921   -2.049333
     43          8           0       26.264598    5.349345   -3.181457
     44          6           0       27.154978    6.474207   -3.484803
     45          1           0       25.365341    1.733078    4.148498
     46          1           0       25.779958   -4.473620    2.596983
     47          1           0       26.667997   -3.150827   -3.349403
     48          1           0       26.046404    4.471899    0.328667
     49          1           0       24.543366    3.522730    2.598214
     50          1           0       27.473159    3.671280    2.937722
     51          1           0       26.195748    4.558530    3.774718
     52          1           0       26.764451    5.114901    2.133361
     53          1           0       23.179051    4.054856    0.936694
     54          1           0       23.472715    3.659886   -0.782982
     55          1           0       22.741248    6.109553    0.002739
     56          1           0       23.591584    5.738907   -1.459096
     57          1           0       26.623395    0.435107    5.972297
     58          1           0       25.815625   -0.587699    6.891541
     59          1           0       24.773991    0.484067    5.893035
     60          1           0       24.246222   -2.378793    6.898213
     61          1           0       26.060256   -2.799736    6.958130
     62          1           0       24.745631   -3.874240    7.459049
     63          1           0       25.397507   -5.577450    0.533132
     64          1           0       27.027699   -5.147087   -1.902457
     65          1           0       28.139658   -5.336246    1.230261
     66          1           0       28.206200   -5.985500   -0.345106
     67          1           0       27.359041   -6.902801    0.874527
     68          1           0       24.798048   -6.155733   -1.983540
     69          1           0       24.799297   -4.841476   -3.167339
     70          1           0       23.611927   -3.943896   -0.723971
     71          1           0       22.749461   -5.274222   -1.460750
     72          1           0       23.027173   -3.740493   -2.321490
     73          1           0       27.838349   -0.588234   -5.664369
     74          1           0       26.103353   -0.352828   -5.999541
     75          1           0       26.761672   -1.892076   -5.228489
     76          1           0       24.768701    3.392398   -2.717557
     77          1           0       26.813111    7.049426   -4.346050
     78          1           0       28.201002    6.172320   -3.506309
     79          1           0       27.212568    7.193662   -2.668203
     80         12           0      -25.606556   -0.530894   -0.644879
     81          6           0      -26.753085    1.856588    1.657396
     82          6           0      -24.899461    1.851124   -2.869179
     83          6           0      -24.669316   -2.881706   -2.662027
     84          6           0      -27.345904   -2.958220    1.397530
     85          7           0      -25.923098    1.599785   -0.597010
     86          6           0      -26.224893    2.389636    0.441194
     87          6           0      -26.263047    3.844530    0.050474
     88          6           0      -26.066032    3.779833   -1.517251
     89          6           0      -25.589123    2.350179   -1.685304
     90          6           0      -27.282296    4.126490   -2.435990
     91          6           0      -25.033738    4.643546    0.724123
     92          6           0      -25.462787    5.982213    1.409423
     93          1           0      -24.272081    6.589312    2.331398
     94          7           0      -24.679201   -0.504122   -2.353236
     95          6           0      -24.415871    0.598162   -3.148463
     96          6           0      -23.518675    0.198763   -4.197549
     97          6           0      -23.363636   -1.247777   -4.187073
     98          6           0      -24.161927   -1.634296   -2.961233
     99          6           0      -23.034730    1.266971   -5.219834
    100          6           0      -22.621562   -2.273890   -5.035798
    101          8           0      -22.535008   -3.494582   -4.810671
    102          6           0      -21.871401   -1.650151   -6.158975
    103          7           0      -26.129792   -2.570110   -0.647093
    104          6           0      -25.560641   -3.298130   -1.662620
    105          6           0      -26.036848   -4.750776   -1.627732
    106          6           0      -26.612815   -4.847708   -0.190628
    107          6           0      -26.774073   -3.380280    0.211066
    108          6           0      -26.996443   -5.034517   -2.850767
    109          6           0      -25.742187   -5.663752    0.856582
    110          6           0      -26.488106   -6.260756    2.060656
    111          7           0      -26.783087   -0.599464    1.183049
    112          6           0      -27.381288   -1.634474    1.835667
    113          6           0      -27.942281   -1.203341    3.096504
    114          6           0      -27.637009    0.169874    3.073841
    115          6           0      -26.994004    0.505273    1.873732
    116          6           0      -28.684465   -1.967613    4.216879
    117          6           0      -27.748778    1.370771    3.853792
    118          8           0      -28.065826    1.590571    4.993422
    119          6           0      -27.310426    2.561201    2.852606
    120          6           0      -26.471124    3.368988    3.741499
    121          8           0      -25.261701    3.212979    4.046466
    122          8           0      -27.282749    4.338666    4.197399
    123          6           0      -26.740098    5.303035    5.155301
    124          1           0      -24.580834    2.629282   -3.566098
    125          1           0      -24.290993   -3.683755   -3.299553
    126          1           0      -27.771645   -3.746852    2.021436
    127          1           0      -27.165159    4.381132    0.345642
    128          1           0      -25.249134    4.377400   -1.922281
    129          1           0      -27.606612    3.203871   -2.917303
    130          1           0      -26.885334    4.816547   -3.180327
    131          1           0      -28.176723    4.550936   -1.981324
    132          1           0      -24.182932    4.845548    0.072340
    133          1           0      -24.564490    3.945444    1.417436
    134          1           0      -26.336388    5.825252    2.041768
    135          1           0      -25.674525    6.805623    0.727743
    136          1           0      -22.112803    1.702331   -4.836795
    137          1           0      -23.642148    2.172840   -5.227349
    138          1           0      -23.065192    0.994162   -6.274444
    139          1           0      -21.098801   -0.945460   -5.853442
    140          1           0      -22.674979   -1.200026   -6.743132
    141          1           0      -21.399786   -2.372610   -6.825708
    142          1           0      -25.134654   -5.349457   -1.753840
    143          1           0      -27.569063   -5.369795   -0.222745
    144          1           0      -28.027387   -5.122620   -2.508228
    145          1           0      -26.836448   -5.934670   -3.443689
    146          1           0      -27.097637   -4.239098   -3.589417
    147          1           0      -25.112498   -4.889464    1.295678
    148          1           0      -25.114902   -6.468917    0.473453
    149          1           0      -26.185672   -5.798948    3.001428
    150          1           0      -26.426175   -7.333284    2.246044
    151          1           0      -27.523615   -5.945579    1.940167
    152          1           0      -29.124627   -2.840862    3.735426
    153          1           0      -29.453705   -1.344246    4.674631
    154          1           0      -27.920980   -2.283103    4.927897
    155          1           0      -28.185662    3.152640    2.583210
    156          1           0      -26.660003    6.271373    4.661639
    157          1           0      -25.830200    4.942294    5.633756
    158          1           0      -27.486405    5.464662    5.933021
 ---------------------------------------------------------------------

 SCF Done:  E(RCAM-B3LYP) =  -4069.79617370     A.U. after   17 cycles

 Excitation energies and oscillator strengths:

 Excited State   1:      Singlet-A      1.7272 eV  717.85 nm  f=0.3766  <S**2>=0.000
     309 -> 315       -0.19745
     311 -> 313        0.68095
     309 <- 315       -0.11062
 This state for optimization and/or second-order correction.
 Total Energy, E(TD-HF/TD-DFT) =  -4069.73270132
 Copying the excited state density for this state as the 1-particle RhoCI density.

 Excited State   2:      Singlet-A      1.7684 eV  701.12 nm  f=0.3785  <S**2>=0.000
     310 -> 316       -0.19166
     312 -> 314        0.68182
     310 <- 316       -0.10600

 Excited State   3:      Singlet-A      2.2496 eV  551.13 nm  f=0.0625  <S**2>=0.000
     309 -> 313        0.61703
     311 -> 315        0.33568

 Excited State   4:      Singlet-A      2.2757 eV  544.83 nm  f=0.0579  <S**2>=0.000
     310 -> 314        0.61595
     312 -> 316        0.33783

 Excited State   5:      Singlet-A      3.1272 eV  396.47 nm  f=0.0000  <S**2>=0.000
     312 -> 313        0.70711

 The electronic state is 1-A.
 Alpha  occ. eigenvalues --  -46.87959 -46.87585 -19.24881 -19.23913 -19.19936
 Alpha  occ. eigenvalues --  -19.19684 -19.19051 -19.18442 -19.18340 -19.17652
 Alpha  occ. eigenvalues --  -14.42611 -14.41743 -14.41711 -14.41062 -14.40003
 Alpha  occ. eigenvalues --  -14.39471 -14.38751 -14.38419 -10.38583 -10.38256
 Alpha  occ. eigenvalues --  -10.36008 -10.35966 -10.34674 -10.33548 -10.31725
 Alpha  occ. eigenvalues --  -10.31205 -10.31019 -10.30830 -10.30801 -10.30659
 Alpha  occ. eigenvalues --  -10.30618 -10.30586 -10.30453 -10.30287 -10.30245
 Alpha  occ. eigenvalues --  -10.30137 -10.30128 -10.30054 -10.29481 -10.29243
 Alpha  occ. eigenvalues --  -10.29033 -10.28967 -10.28928 -10.28735 -10.28719
 Alpha  occ. eigenvalues --  -10.28555 -10.28381 -10.28065 -10.27878 -10.27853
 Alpha  occ. eigenvalues --  -10.27850 -10.27828 -10.27813 -10.27764 -10.27756
 Alpha  occ. eigenvalues --  -10.27749 -10.27748 -10.27726 -10.27692 -10.27622
 Alpha  occ. eigenvalues --  -10.27594 -10.27561 -10.27491 -10.27329 -10.27314
 Alpha  occ. eigenvalues --  -10.27241 -10.26819 -10.26662 -10.26522 -10.26515
 Alpha  occ. eigenvalues --  -10.26496 -10.26446 -10.26271 -10.26265 -10.26076
 Alpha  occ. eigenvalues --  -10.26042 -10.26039 -10.25902 -10.25886 -10.25835
 Alpha  occ. eigenvalues --  -10.25566 -10.25377 -10.25217 -10.25057 -10.24453
 Alpha  occ. eigenvalues --  -10.24062  -3.16814  -3.16429  -1.91679  -1.91314
 Alpha  occ. eigenvalues --   -1.91283  -1.91147  -1.90896  -1.90743  -1.15949
 Alpha  occ. eigenvalues --   -1.14844  -1.11529  -1.10787  -1.09405  -1.09003
 Alpha  occ. eigenvalues --   -1.05922  -1.05589  -1.05563  -1.05205  -1.04700
 Alpha  occ. eigenvalues --   -1.04316  -1.04114  -1.03605  -1.02997  -1.02425
 Alpha  occ. eigenvalues --   -0.92727  -0.92342  -0.89630  -0.89124  -0.88422
 Alpha  occ. eigenvalues --   -0.88275  -0.88060  -0.88026  -0.87960  -0.87468
 Alpha  occ. eigenvalues --   -0.87461  -0.86985  -0.86559  -0.86277  -0.84547
 Alpha  occ. eigenvalues --   -0.84374  -0.83840  -0.83586  -0.82711  -0.82604
 Alpha  occ. eigenvalues --   -0.82493  -0.82284  -0.81281  -0.81065  -0.80527
 Alpha  occ. eigenvalues --   -0.80315  -0.79025  -0.78232  -0.77465  -0.77333
 Alpha  occ. eigenvalues --   -0.76983  -0.76932  -0.75934  -0.75703  -0.75416
 Alpha  occ. eigenvalues --   -0.75211  -0.72801  -0.72642  -0.72146  -0.71687
 Alpha  occ. eigenvalues --   -0.69644  -0.69261  -0.69029  -0.68812  -0.68151
 Alpha  occ. eigenvalues --   -0.67929  -0.67318  -0.67231  -0.66066  -0.65560
 Alpha  occ. eigenvalues --   -0.65416  -0.64975  -0.64876  -0.64747  -0.64459
 Alpha  occ. eigenvalues --   -0.63763  -0.61783  -0.61715  -0.61118  -0.60250
 Alpha  occ. eigenvalues --   -0.59855  -0.59319  -0.59285  -0.59163  -0.58653
 Alpha  occ. eigenvalues --   -0.57990  -0.57930  -0.57803  -0.57552  -0.57169
 Alpha  occ. eigenvalues --   -0.56338  -0.56306  -0.55941  -0.55455  -0.55317
 Alpha  occ. eigenvalues --   -0.55120  -0.54672  -0.54419  -0.54379  -0.53934
 Alpha  occ. eigenvalues --   -0.53637  -0.53448  -0.53229  -0.53208  -0.52790
 Alpha  occ. eigenvalues --   -0.52625  -0.52621  -0.52570  -0.52439  -0.52298
 Alpha  occ. eigenvalues --   -0.52237  -0.51632  -0.51616  -0.51446  -0.51260
 Alpha  occ. eigenvalues --   -0.51040  -0.50744  -0.50612  -0.50463  -0.50402
 Alpha  occ. eigenvalues --   -0.50233  -0.50181  -0.50037  -0.49501  -0.49438
 Alpha  occ. eigenvalues --   -0.49335  -0.49094  -0.49066  -0.48940  -0.48779
 Alpha  occ. eigenvalues --   -0.48574  -0.48499  -0.48128  -0.48065  -0.48036
 Alpha  occ. eigenvalues --   -0.48013  -0.47786  -0.47434  -0.47275  -0.47171
 Alpha  occ. eigenvalues --   -0.46888  -0.46800  -0.46657  -0.46518  -0.46514
 Alpha  occ. eigenvalues --   -0.46360  -0.45923  -0.45730  -0.45709  -0.45537
 Alpha  occ. eigenvalues --   -0.45483  -0.45251  -0.45164  -0.44900  -0.44829
 Alpha  occ. eigenvalues --   -0.44511  -0.44118  -0.44049  -0.43912  -0.43833
 Alpha  occ. eigenvalues --   -0.43746  -0.43575  -0.43492  -0.43465  -0.43175
 Alpha  occ. eigenvalues --   -0.43111  -0.42910  -0.42889  -0.42875  -0.42848
 Alpha  occ. eigenvalues --   -0.42672  -0.42438  -0.42224  -0.42140  -0.42092
 Alpha  occ. eigenvalues --   -0.41923  -0.41847  -0.41575  -0.41359  -0.41252
 Alpha  occ. eigenvalues --   -0.41214  -0.41062  -0.40831  -0.40749  -0.40597
 Alpha  occ. eigenvalues --   -0.40522  -0.40334  -0.39611  -0.39590  -0.39208
 Alpha  occ. eigenvalues --   -0.38795  -0.38469  -0.38197  -0.37858  -0.37396
 Alpha  occ. eigenvalues --   -0.37013  -0.37004  -0.36449  -0.36275  -0.35516
 Alpha  occ. eigenvalues --   -0.35235  -0.35153  -0.34359  -0.33997  -0.33949
 Alpha  occ. eigenvalues --   -0.33280  -0.32986  -0.32941  -0.32496  -0.31741
 Alpha  occ. eigenvalues --   -0.31364  -0.31332  -0.30717  -0.30558  -0.30347
 Alpha  occ. eigenvalues --   -0.30092  -0.29712  -0.29622  -0.24200  -0.23814
 Alpha  occ. eigenvalues --   -0.21131  -0.20609
 Alpha virt. eigenvalues --   -0.08454  -0.07829  -0.02314  -0.01753  -0.00307
 Alpha virt. eigenvalues --    0.00222   0.02274   0.02389   0.03022   0.03131
 Alpha virt. eigenvalues --    0.04774   0.05022   0.05126   0.06093   0.06109

 Mulliken charges:
               1
     1  Mg  11.999989
     2  C    6.000151
     3  C    5.999979
     4  C    5.999865
     5  C    5.999981
     6  N    7.000057
     7  C    5.999820
     8  C    6.000067
     9  C    5.999943
    10  C    6.000136
    11  C    5.999982
    12  C    6.000025
    13  C    6.000001
    14  H    1.000009
    15  N    7.000006
    16  C    6.000170
    17  C    6.000126
    18  C    6.000067
    19  C    6.000184
    20  C    5.999947
    21  C    6.000074
    22  O    8.000125
    23  C    5.999953
    24  N    6.999949
    25  C    6.000162
    26  C    5.999960
    27  C    6.000021
    28  C    5.999910
    29  C    5.999996
    30  C    6.000060
    31  C    6.000028
    32  N    6.999958
    33  C    5.999857
    34  C    5.999826
    35  C    5.999994
    36  C    5.999870
    37  C    6.000063
    38  C    5.999869
    39  O    7.999842
    40  C    5.999987
    41  C    5.999988
    42  O    7.999981
    43  O    7.999989
    44  C    6.000013
    45  H    1.000078
    46  H    1.000038
    47  H    0.999928
    48  H    0.999997
    49  H    1.000008
    50  H    1.000019
    51  H    1.000020
    52  H    1.000071
    53  H    0.999947
    54  H    1.000003
    55  H    0.999968
    56  H    1.000003
    57  H    1.000124
    58  H    1.000114
    59  H    1.000070
    60  H    1.000034
    61  H    1.000046
    62  H    1.000099
    63  H    0.999979
    64  H    0.999999
    65  H    1.000004
    66  H    1.000061
    67  H    1.000020
    68  H    0.999940
    69  H    1.000000
    70  H    0.999945
    71  H    0.999951
    72  H    0.999998
    73  H    0.999892
    74  H    0.999871
    75  H    0.999906
    76  H    0.999940
    77  H    0.999967
    78  H    1.000005
    79  H    0.999976
    80  Mg  11.997602
    81  C    6.022368
    82  C    5.979193
    83  C    5.986399
    84  C    6.023623
    85  N    7.004845
    86  C    5.961464
    87  C    6.013410
    88  C    5.991243
    89  C    6.039641
    90  C    5.997693
    91  C    6.002901
    92  C    6.001438
    93  H    0.996539
    94  N    6.990397
    95  C    6.041417
    96  C    6.019338
    97  C    6.023728
    98  C    6.025570
    99  C    5.995935
   100  C    6.012877
   101  O    8.031669
   102  C    5.993760
   103  N    7.005890
   104  C    6.027883
   105  C    5.993617
   106  C    6.008280
   107  C    5.963731
   108  C    5.994242
   109  C    6.003203
   110  C    6.000533
   111  N    7.005282
   112  C    5.955904
   113  C    5.968952
   114  C    5.998644
   115  C    5.963878
   116  C    5.999778
   117  C    5.985221
   118  O    7.970297
   119  C    5.996283
   120  C    5.997530
   121  O    7.992436
   122  O    7.999659
   123  C    6.002974
   124  H    1.007622
   125  H    1.005860
   126  H    0.991858
   127  H    0.997847
   128  H    0.998082
   129  H    0.999709
   130  H    1.001764
   131  H    1.014352
   132  H    0.986372
   133  H    1.003143
   134  H    1.004702
   135  H    0.994038
   136  H    1.019702
   137  H    1.019064
   138  H    1.016851
   139  H    1.008830
   140  H    1.005892
   141  H    1.015858
   142  H    0.998250
   143  H    0.995861
   144  H    1.013391
   145  H    1.002829
   146  H    0.994861
   147  H    0.998649
   148  H    0.987530
   149  H    1.003413
   150  H    0.994398
   151  H    1.002857
   152  H    0.982942
   153  H    0.984909
   154  H    0.981123
   155  H    0.992435
   156  H    0.993308
   157  H    0.997288
   158  H    0.997140
 Sum of Mulliken charges = 624.00000

 Dipole moment (field-independent basis, Debye):
    X=              5.0318    Y=             -0.2180    Z=             -9.4674  Tot=             10.7238
 Quadrupole moment (field-independent basis, Debye-Ang):
   XX=           -256.5282   YY=             -2.9358   ZZ=             10.4715
   XY=              0.2510   XZ=            241.6517   YZ=              3.3047

 Normal termination of Gaussian 16 at Tue Sep 21 17:59:06 2021.
