 Gaussian 16, Revision A.03,
 Gaussian 16:  ES64L-G16RevA.03 25-Dec-2016

 -----------------------------------
 #p cam-b3lyp/Def2SVP td=(nstates=5)
 -----------------------------------

 --------------------------------
 TDDFT excited states in gaussian
 --------------------------------
 Symbolic Z-matrix:
 Charge =  0 Multiplicity = 1

                         Standard orientation:
 ---------------------------------------------------------------------
 Center     Atomic      Atomic             Coordinates (Angstroms)
 Number     Number       Type             X           Y           Z
 ---------------------------------------------------------------------
      1         12           0      -26.260130    0.311926   -0.566116
      2          6           0      -24.639441   -2.257594    1.485306
      3          6           0      -25.674208    2.508750    2.099704
      4          6           0      -27.996132    2.556772   -2.170656
      5          6           0      -26.562802   -1.963541   -3.114168
      6          7           0      -25.471891    0.097325    1.596343
      7          6           0      -24.736190   -1.009510    2.195143
      8          6           0      -24.235977   -0.722624    3.627170
      9          6           0      -24.811743    0.799445    3.806889
     10          6           0      -25.382014    1.201597    2.432615
     11          6           0      -25.817332    0.944083    4.932580
     12          6           0      -22.692981   -0.922675    3.720278
     13          6           0      -22.050582   -0.392064    4.966577
     14          1           0      -21.012110   -1.221943    5.688066
     15          7           0      -26.809918    2.292235   -0.110708
     16          6           0      -26.471385    3.032838    1.027487
     17          6           0      -27.003647    4.389014    0.908448
     18          6           0      -27.701108    4.437438   -0.367536
     19          6           0      -27.540741    3.065761   -0.977362
     20          6           0      -26.752520    5.549967    1.939279
     21          6           0      -28.488198    5.517407   -1.018032
     22          8           0      -29.006222    5.439358   -2.124065
     23          6           0      -28.591818    6.840599   -0.380227
     24          7           0      -27.049945    0.335679   -2.365741
     25          6           0      -27.836306    1.327453   -2.788020
     26          6           0      -28.406581    1.076360   -4.203668
     27          6           0      -27.590835   -0.124552   -4.635420
     28          6           0      -27.061601   -0.689278   -3.260421
     29          6           0      -29.907801    0.812110   -4.209980
     30          6           0      -26.463725   -0.033591   -5.631299
     31          6           0      -25.299925    0.821945   -5.178361
     32          7           0      -25.823018   -1.713214   -0.779408
     33          6           0      -25.924203   -2.481902   -1.953007
     34          6           0      -25.434830   -3.811385   -1.683110
     35          6           0      -24.879932   -3.676718   -0.384451
     36          6           0      -25.145155   -2.397586    0.140641
     37          6           0      -25.329989   -4.979747   -2.619318
     38          6           0      -24.082060   -4.457991    0.610598
     39          8           0      -23.538225   -5.579726    0.524030
     40          6           0      -23.952094   -3.555210    1.835352
     41          6           0      -24.493810   -4.271848    3.074016
     42          8           0      -25.667326   -4.663777    3.344439
     43          8           0      -23.479046   -4.309518    3.984069
     44          6           0      -23.818667   -4.893806    5.301310
     45          1           0      -25.314286    3.230302    2.834770
     46          1           0      -28.633542    3.270230   -2.697006
     47          1           0      -26.648144   -2.746748   -3.870467
     48          1           0      -24.681192   -1.503822    4.243228
     49          1           0      -23.969630    1.481370    3.925065
     50          1           0      -25.440452    1.683767    5.639510
     51          1           0      -25.868730   -0.027450    5.422809
     52          1           0      -26.869858    1.023938    4.661567
     53          1           0      -22.293502   -0.539485    2.780658
     54          1           0      -22.480534   -1.990866    3.674617
     55          1           0      -22.707782   -0.174783    5.808271
     56          1           0      -21.475939    0.500149    4.719566
     57          1           0      -26.202982    6.304153    1.375231
     58          1           0      -26.150597    5.247411    2.796027
     59          1           0      -27.738311    5.898313    2.247715
     60          1           0      -28.782044    6.799550    0.692459
     61          1           0      -29.441464    7.299315   -0.884753
     62          1           0      -27.583532    7.245407   -0.461877
     63          1           0      -28.214802    1.976819   -4.787297
     64          1           0      -28.206054   -0.886894   -5.114202
     65          1           0      -30.344234    1.325562   -5.065937
     66          1           0      -30.379144    1.189583   -3.303165
     67          1           0      -30.104153   -0.239508   -4.421976
     68          1           0      -26.886847    0.278562   -6.586488
     69          1           0      -25.970490   -0.998025   -5.751347
     70          1           0      -24.965101    1.503073   -5.959843
     71          1           0      -24.411742    0.234999   -4.943356
     72          1           0      -25.514227    1.451748   -4.314833
     73          1           0      -24.312087   -5.368573   -2.605520
     74          1           0      -25.584790   -4.873601   -3.673762
     75          1           0      -26.000620   -5.749770   -2.237407
     76          1           0      -22.890388   -3.405671    2.033678
     77          1           0      -23.996160   -4.096404    6.022639
     78          1           0      -22.927915   -5.505567    5.444251
     79          1           0      -24.641106   -5.607755    5.241173
     80         12           0       26.194511   -0.634775    0.293804
     81          6           0       25.356103    2.843808    0.027835
     82          6           0       23.001263   -1.229712   -1.192498
     83          6           0       27.073973   -3.772248   -0.525753
     84          6           0       29.415110    0.269225    1.005725
     85          7           0       24.459323    0.676811   -0.498246
     86          6           0       24.331539    2.035010   -0.477112
     87          6           0       22.958713    2.502098   -1.075201
     88          6           0       22.133237    1.127725   -1.053229
     89          6           0       23.279038    0.130512   -0.987603
     90          6           0       21.216656    0.959374    0.136812
     91          6           0       23.095151    3.248247   -2.392120
     92          6           0       22.249063    4.534630   -2.577530
     93          1           0       20.894447    4.511825   -3.427444
     94          7           0       25.130763   -2.370140   -0.656405
     95          6           0       23.791435   -2.388501   -1.098459
     96          6           0       23.463147   -3.746938   -1.547882
     97          6           0       24.666080   -4.519994   -1.304798
     98          6           0       25.691141   -3.580041   -0.904967
     99          6           0       22.192282   -4.205089   -2.158146
    100          6           0       24.776969   -6.017226   -1.447886
    101          8           0       23.761634   -6.649533   -1.633658
    102          6           0       26.073064   -6.789779   -1.362141
    103          7           0       27.975119   -1.501670    0.151593
    104          6           0       28.045684   -2.876109   -0.057510
    105          6           0       29.518150   -3.279286    0.050134
    106          6           0       30.202378   -2.043101    0.740512
    107          6           0       29.109233   -1.030933    0.669631
    108          6           0       29.863200   -4.671802    0.694832
    109          6           0       31.575937   -1.557731    0.183723
    110          6           0       32.720513   -1.450674    1.137900
    111          7           0       27.196630    1.125650    0.605744
    112          6           0       28.511506    1.356759    0.970556
    113          6           0       28.708187    2.768579    1.352311
    114          6           0       27.468913    3.379539    0.916338
    115          6           0       26.640609    2.341650    0.478443
    116          6           0       29.907793    3.458402    1.946652
    117          6           0       26.759354    4.690315    0.836328
    118          8           0       27.145388    5.800800    1.066665
    119          6           0       25.433288    4.367911    0.155165
    120          6           0       24.331440    4.884896    1.031170
    121          8           0       24.163661    4.378573    2.119803
    122          8           0       23.492033    5.886158    0.456792
    123          6           0       22.271813    6.260022    1.234336
    124          1           0       22.013015   -1.458029   -1.597481
    125          1           0       27.515711   -4.751793   -0.716147
    126          1           0       30.401683    0.486742    1.419514
    127          1           0       22.399600    3.118871   -0.372165
    128          1           0       21.622959    0.954569   -2.000643
    129          1           0       21.814103    0.627538    0.985642
    130          1           0       20.437322    0.256456   -0.157218
    131          1           0       20.694525    1.833699    0.526835
    132          1           0       22.756119    2.557513   -3.163543
    133          1           0       24.158875    3.365445   -2.598964
    134          1           0       22.951569    5.221554   -3.050075
    135          1           0       21.950447    4.995075   -1.635686
    136          1           0       21.619264   -4.666045   -1.354183
    137          1           0       22.401939   -5.023524   -2.846915
    138          1           0       21.551960   -3.501007   -2.690870
    139          1           0       26.000312   -7.850814   -1.600106
    140          1           0       26.393699   -6.702544   -0.323953
    141          1           0       26.941364   -6.439735   -1.919146
    142          1           0       29.776924   -3.428369   -0.998556
    143          1           0       30.243264   -2.235742    1.812159
    144          1           0       29.032736   -5.029768    1.303940
    145          1           0       30.795692   -4.611763    1.255746
    146          1           0       30.075349   -5.403696   -0.084235
    147          1           0       31.437026   -0.586798   -0.291658
    148          1           0       31.821623   -2.201265   -0.660924
    149          1           0       32.918924   -0.398118    1.338947
    150          1           0       33.615205   -1.876365    0.683773
    151          1           0       32.611609   -1.926248    2.112375
    152          1           0       29.620775    4.386395    2.440748
    153          1           0       30.596368    3.642515    1.121515
    154          1           0       30.418435    2.741159    2.589490
    155          1           0       25.479542    4.774333   -0.855286
    156          1           0       22.555624    6.939418    2.038242
    157          1           0       21.836080    5.386141    1.718194
    158          1           0       21.519466    6.705051    0.583448
 ---------------------------------------------------------------------

 SCF Done:  E(RCAM-B3LYP) =  -4069.81964570     A.U. after   19 cycles

 Excitation energies and oscillator strengths:

 Excited State   1:      Singlet-A      1.6630 eV  745.55 nm  f=0.3820  <S**2>=0.000
     310 -> 315       -0.16571
     311 -> 313        0.68842
     310 <- 315       -0.10528
 This state for optimization and/or second-order correction.
 Total Energy, E(TD-HF/TD-DFT) =  -4069.75853234
 Copying the excited state density for this state as the 1-particle RhoCI density.

 Excited State   2:      Singlet-A      1.6714 eV  741.79 nm  f=0.4161  <S**2>=0.000
     309 -> 316        0.16924
     312 -> 314        0.68823
     309 <- 316        0.10653

 Excited State   3:      Singlet-A      2.1713 eV  571.01 nm  f=0.1380  <S**2>=0.000
     310 -> 313        0.65261
     311 -> 315        0.25468

 Excited State   4:      Singlet-A      2.2361 eV  554.47 nm  f=0.1279  <S**2>=0.000
     309 -> 314        0.64116
     312 -> 316       -0.28144

 Excited State   5:      Singlet-A      3.0415 eV  407.65 nm  f=0.0000  <S**2>=0.000
     312 -> 313        0.70710

 The electronic state is 1-A.
 Alpha  occ. eigenvalues --  -46.89332 -46.87764 -19.25765 -19.25267 -19.20737
 Alpha  occ. eigenvalues --  -19.19734 -19.19640 -19.18773 -19.18475 -19.17990
 Alpha  occ. eigenvalues --  -14.42767 -14.42508 -14.42173 -14.41722 -14.39966
 Alpha  occ. eigenvalues --  -14.39345 -14.39165 -14.38870 -10.40229 -10.39961
 Alpha  occ. eigenvalues --  -10.35416 -10.34746 -10.34657 -10.34519 -10.32277
 Alpha  occ. eigenvalues --  -10.31982 -10.31916 -10.31509 -10.31393 -10.31379
 Alpha  occ. eigenvalues --  -10.31303 -10.31102 -10.30703 -10.30700 -10.30625
 Alpha  occ. eigenvalues --  -10.30522 -10.30478 -10.30288 -10.30241 -10.29497
 Alpha  occ. eigenvalues --  -10.29272 -10.29233 -10.29111 -10.28971 -10.28963
 Alpha  occ. eigenvalues --  -10.28887 -10.28843 -10.28828 -10.28670 -10.28662
 Alpha  occ. eigenvalues --  -10.28646 -10.28607 -10.28598 -10.28563 -10.28260
 Alpha  occ. eigenvalues --  -10.28066 -10.28000 -10.27801 -10.27608 -10.27541
 Alpha  occ. eigenvalues --  -10.27517 -10.27394 -10.27229 -10.27018 -10.27016
 Alpha  occ. eigenvalues --  -10.26977 -10.26926 -10.26846 -10.26574 -10.26531
 Alpha  occ. eigenvalues --  -10.26530 -10.26500 -10.26321 -10.26291 -10.26057
 Alpha  occ. eigenvalues --  -10.25906 -10.25898 -10.25835 -10.25741 -10.25741
 Alpha  occ. eigenvalues --  -10.25729 -10.25637 -10.25539 -10.25378 -10.24712
 Alpha  occ. eigenvalues --  -10.24570  -3.17902  -3.16505  -1.92750  -1.92362
 Alpha  occ. eigenvalues --   -1.92209  -1.91410  -1.90970  -1.90806  -1.16008
 Alpha  occ. eigenvalues --   -1.15377  -1.11734  -1.10394  -1.10221  -1.07877
 Alpha  occ. eigenvalues --   -1.07811  -1.05769  -1.05060  -1.04602  -1.03585
 Alpha  occ. eigenvalues --   -1.02832  -1.02784  -1.02279  -1.01519  -1.00615
 Alpha  occ. eigenvalues --   -0.92764  -0.92314  -0.89702  -0.89416  -0.88895
 Alpha  occ. eigenvalues --   -0.88869  -0.88706  -0.88465  -0.87623  -0.87331
 Alpha  occ. eigenvalues --   -0.87010  -0.86238  -0.85890  -0.85657  -0.84780
 Alpha  occ. eigenvalues --   -0.84501  -0.84062  -0.83968  -0.82950  -0.82503
 Alpha  occ. eigenvalues --   -0.82310  -0.81851  -0.81429  -0.80564  -0.80213
 Alpha  occ. eigenvalues --   -0.80086  -0.78531  -0.78173  -0.77497  -0.77282
 Alpha  occ. eigenvalues --   -0.76820  -0.76807  -0.76358  -0.75975  -0.75508
 Alpha  occ. eigenvalues --   -0.75233  -0.72772  -0.72655  -0.71962  -0.71789
 Alpha  occ. eigenvalues --   -0.70307  -0.69558  -0.69457  -0.68945  -0.67931
 Alpha  occ. eigenvalues --   -0.67644  -0.67152  -0.66721  -0.65953  -0.65105
 Alpha  occ. eigenvalues --   -0.65073  -0.64672  -0.64550  -0.64338  -0.64327
 Alpha  occ. eigenvalues --   -0.63832  -0.62333  -0.61950  -0.60238  -0.59804
 Alpha  occ. eigenvalues --   -0.59564  -0.59200  -0.59172  -0.59091  -0.59076
 Alpha  occ. eigenvalues --   -0.58336  -0.58332  -0.57728  -0.57656  -0.57410
 Alpha  occ. eigenvalues --   -0.56546  -0.56291  -0.55998  -0.55670  -0.55492
 Alpha  occ. eigenvalues --   -0.55443  -0.55310  -0.54814  -0.54337  -0.54299
 Alpha  occ. eigenvalues --   -0.53876  -0.53472  -0.53374  -0.53090  -0.53084
 Alpha  occ. eigenvalues --   -0.52967  -0.52737  -0.52507  -0.52251  -0.52139
 Alpha  occ. eigenvalues --   -0.51843  -0.51732  -0.51323  -0.51156  -0.51109
 Alpha  occ. eigenvalues --   -0.50934  -0.50843  -0.50742  -0.50444  -0.50395
 Alpha  occ. eigenvalues --   -0.50196  -0.49947  -0.49880  -0.49802  -0.49749
 Alpha  occ. eigenvalues --   -0.49531  -0.49311  -0.49120  -0.48851  -0.48821
 Alpha  occ. eigenvalues --   -0.48714  -0.48604  -0.48554  -0.48458  -0.48196
 Alpha  occ. eigenvalues --   -0.48087  -0.47727  -0.47698  -0.47576  -0.47093
 Alpha  occ. eigenvalues --   -0.47028  -0.46985  -0.46767  -0.46531  -0.46429
 Alpha  occ. eigenvalues --   -0.46391  -0.46191  -0.46163  -0.46063  -0.46010
 Alpha  occ. eigenvalues --   -0.45982  -0.45835  -0.45711  -0.45451  -0.45259
 Alpha  occ. eigenvalues --   -0.44968  -0.44953  -0.44669  -0.44544  -0.44364
 Alpha  occ. eigenvalues --   -0.44191  -0.43985  -0.43783  -0.43624  -0.43498
 Alpha  occ. eigenvalues --   -0.43457  -0.43315  -0.43193  -0.42908  -0.42649
 Alpha  occ. eigenvalues --   -0.42643  -0.42558  -0.42513  -0.42438  -0.42210
 Alpha  occ. eigenvalues --   -0.41927  -0.41860  -0.41766  -0.41559  -0.41214
 Alpha  occ. eigenvalues --   -0.41130  -0.40965  -0.40840  -0.40582  -0.40471
 Alpha  occ. eigenvalues --   -0.40273  -0.39963  -0.39297  -0.39239  -0.39115
 Alpha  occ. eigenvalues --   -0.38903  -0.38478  -0.37709  -0.37349  -0.37341
 Alpha  occ. eigenvalues --   -0.37167  -0.37138  -0.36775  -0.36531  -0.36517
 Alpha  occ. eigenvalues --   -0.36119  -0.35831  -0.35056  -0.34408  -0.34314
 Alpha  occ. eigenvalues --   -0.34106  -0.33193  -0.33079  -0.31612  -0.31523
 Alpha  occ. eigenvalues --   -0.31279  -0.31119  -0.30502  -0.30410  -0.30326
 Alpha  occ. eigenvalues --   -0.29683  -0.29182  -0.28749  -0.24316  -0.24260
 Alpha  occ. eigenvalues --   -0.21487  -0.21135
 Alpha virt. eigenvalues --   -0.09303  -0.08995  -0.01671  -0.01506   0.00321
 Alpha virt. eigenvalues --    0.00459   0.01235   0.02180   0.02627   0.03358
 Alpha virt. eigenvalues --    0.04387   0.04392   0.04501   0.05151   0.05593

 Mulliken charges:
               1
     1  Mg   0.833742
     2  C   -0.021258
     3  C   -0.080181
     4  C   -0.082752
     5  C   -0.070309
     6  N   -0.301403
     7  C   -0.047362
     8  C   -0.021580
     9  C   -0.058532
    10  C    0.064050
    11  C    0.100740
    12  C    0.032551
    13  C   -0.071169
    14  H    0.011807
    15  N   -0.386335
    16  C    0.147010
    17  C   -0.156157
    18  C   -0.010721
    19  C    0.125030
    20  C    0.113796
    21  C   -0.027326
    22  O   -0.211688
    23  C    0.063960
    24  N   -0.345399
    25  C    0.087659
    26  C   -0.030101
    27  C   -0.026314
    28  C    0.096080
    29  C    0.087956
    30  C    0.059786
    31  C   -0.013213
    32  N   -0.360282
    33  C    0.064902
    34  C   -0.139125
    35  C   -0.053525
    36  C    0.135965
    37  C    0.107478
    38  C    0.083461
    39  O   -0.200390
    40  C    0.008593
    41  C    0.216104
    42  O   -0.257641
    43  O   -0.336363
    44  C    0.163761
    45  H   -0.033251
    46  H   -0.005316
    47  H   -0.025198
    48  H    0.025818
    49  H    0.008740
    50  H    0.023470
    51  H    0.000243
    52  H    0.025554
    53  H    0.009580
    54  H    0.036936
    55  H    0.030374
    56  H    0.032701
    57  H    0.039145
    58  H    0.020304
    59  H    0.045780
    60  H    0.005836
    61  H    0.040876
    62  H    0.037709
    63  H    0.013762
    64  H   -0.013275
    65  H    0.012818
    66  H    0.026531
    67  H    0.015540
    68  H    0.009183
    69  H    0.004008
    70  H    0.005187
    71  H    0.012493
    72  H    0.021968
    73  H    0.039114
    74  H    0.005112
    75  H    0.032615
    76  H    0.049797
    77  H    0.048528
    78  H    0.042675
    79  H    0.059340
    80  Mg   0.850168
    81  C   -0.068678
    82  C   -0.046575
    83  C   -0.070112
    84  C   -0.117748
    85  N   -0.248513
    86  C   -0.056149
    87  C   -0.029252
    88  C   -0.067538
    89  C    0.027878
    90  C    0.088686
    91  C    0.079542
    92  C   -0.054242
    93  H    0.008669
    94  N   -0.346047
    95  C    0.095294
    96  C   -0.125936
    97  C   -0.029130
    98  C    0.139814
    99  C    0.130523
   100  C   -0.009059
   101  O   -0.204433
   102  C    0.048533
   103  N   -0.372416
   104  C    0.069190
   105  C   -0.081045
   106  C    0.022206
   107  C    0.057892
   108  C    0.063541
   109  C    0.049691
   110  C    0.008710
   111  N   -0.354567
   112  C    0.126917
   113  C   -0.180998
   114  C   -0.063993
   115  C    0.147729
   116  C    0.135424
   117  C    0.053057
   118  O   -0.136304
   119  C    0.059737
   120  C    0.212882
   121  O   -0.206833
   122  O   -0.375238
   123  C    0.175419
   124  H   -0.030898
   125  H   -0.056676
   126  H   -0.037315
   127  H    0.003940
   128  H    0.001850
   129  H    0.021997
   130  H    0.020339
   131  H    0.014367
   132  H    0.012533
   133  H    0.016709
   134  H    0.032665
   135  H    0.027177
   136  H    0.030824
   137  H    0.030831
   138  H    0.014443
   139  H    0.024109
   140  H    0.029761
   141  H    0.037082
   142  H    0.024837
   143  H    0.007137
   144  H    0.023792
   145  H    0.015803
   146  H    0.009102
   147  H    0.014430
   148  H   -0.000373
   149  H    0.015705
   150  H    0.013738
   151  H    0.015190
   152  H    0.047879
   153  H    0.030559
   154  H    0.013039
   155  H    0.042051
   156  H    0.044650
   157  H    0.034772
   158  H    0.047254
 Sum of Mulliken charges =  -0.00000

 Dipole moment (field-independent basis, Debye):
    X=              2.4724    Y=              3.8599    Z=              2.0725  Tot=              5.0306
 Quadrupole moment (field-independent basis, Debye-Ang):
   XX=           -461.5831   YY=           -566.3850   ZZ=           -482.4944
   XY=           -177.2632   XZ=            -33.8415   YZ=              7.3007

 Normal termination of Gaussian 16 at Wed Sep  1 07:01:03 2021.
