 Gaussian 16, Revision A.03,
 Gaussian 16:  ES64L-G16RevA.03 25-Dec-2016

 -----------------------------------
 #p cam-b3lyp/Def2SVP td=(nstates=5)
 -----------------------------------

 --------------------------------
 TDDFT excited states in gaussian
 --------------------------------
 Symbolic Z-matrix:
 Charge =  0 Multiplicity = 1

                         Standard orientation:
 ---------------------------------------------------------------------
 Center     Atomic      Atomic             Coordinates (Angstroms)
 Number     Number       Type             X           Y           Z
 ---------------------------------------------------------------------
      1         12           0      -29.408871    0.253962    0.272795
      2          6           0      -27.633767   -1.803378   -1.969806
      3          6           0      -29.127434    2.822244   -1.930707
      4          6           0      -31.014148    2.215461    2.512338
      5          6           0      -29.251526   -2.290844    2.630281
      6          7           0      -28.419445    0.513847   -1.644970
      7          6           0      -27.851776   -0.493773   -2.429584
      8          6           0      -27.546110    0.050333   -3.792702
      9          6           0      -27.579717    1.579017   -3.556548
     10          6           0      -28.446945    1.650422   -2.273269
     11          6           0      -26.217483    2.301001   -3.309875
     12          6           0      -28.507349   -0.415252   -4.950374
     13          6           0      -27.807019   -0.873537   -6.189858
     14          1           0      -28.367518   -0.356309   -7.527879
     15          7           0      -30.057951    2.165293    0.225231
     16          6           0      -29.930731    3.080580   -0.832886
     17          6           0      -30.579144    4.287895   -0.507454
     18          6           0      -31.175268    4.150896    0.833514
     19          6           0      -30.781475    2.829951    1.232982
     20          6           0      -30.541938    5.550265   -1.318231
     21          6           0      -31.971882    5.163225    1.765976
     22          8           0      -32.391993    4.814424    2.843725
     23          6           0      -32.316500    6.565690    1.285455
     24          7           0      -29.943852    0.027002    2.328943
     25          6           0      -30.584148    1.006529    3.018179
     26          6           0      -30.841498    0.540359    4.530402
     27          6           0      -30.544380   -1.021944    4.475236
     28          6           0      -29.857428   -1.125146    3.047284
     29          6           0      -29.996927    1.251362    5.623696
     30          6           0      -31.821903   -1.926590    4.598526
     31          6           0      -31.668766   -2.928847    5.664229
     32          7           0      -28.574860   -1.637824    0.363124
     33          6           0      -28.687273   -2.607119    1.358719
     34          6           0      -28.055992   -3.824782    0.928095
     35          6           0      -27.610181   -3.544871   -0.347553
     36          6           0      -27.951662   -2.267644   -0.663230
     37          6           0      -28.053638   -5.113641    1.790876
     38          6           0      -26.891210   -4.080640   -1.488849
     39          8           0      -26.308502   -5.139221   -1.573319
     40          6           0      -26.857151   -2.928896   -2.611695
     41          6           0      -25.452613   -2.603138   -2.919943
     42          8           0      -24.610474   -2.204898   -2.073003
     43          8           0      -25.235654   -2.846791   -4.244473
     44          6           0      -23.800653   -2.934153   -4.624156
     45          1           0      -28.960840    3.610605   -2.667669
     46          1           0      -31.515834    2.783329    3.298441
     47          1           0      -29.147999   -3.053029    3.404751
     48          1           0      -26.522648   -0.130469   -4.123462
     49          1           0      -28.032043    2.136299   -4.377057
     50          1           0      -25.381122    1.867292   -3.859610
     51          1           0      -26.035934    2.274089   -2.235126
     52          1           0      -26.211264    3.375568   -3.490755
     53          1           0      -29.162689    0.436714   -5.130434
     54          1           0      -29.191394   -1.195110   -4.614433
     55          1           0      -27.892388   -1.955468   -6.087452
     56          1           0      -26.780703   -0.506669   -6.186046
     57          1           0      -31.465164    5.804691   -1.839293
     58          1           0      -29.829556    5.429131   -2.133288
     59          1           0      -30.255053    6.476546   -0.821158
     60          1           0      -32.975731    6.981151    2.046643
     61          1           0      -32.697206    6.558650    0.263706
     62          1           0      -31.399744    7.122084    1.088116
     63          1           0      -31.858575    0.795323    4.828585
     64          1           0      -29.824421   -1.260496    5.259502
     65          1           0      -29.241718    1.955559    5.273056
     66          1           0      -29.452098    0.556063    6.262791
     67          1           0      -30.700426    1.792176    6.257272
     68          1           0      -31.943395   -2.482444    3.668066
     69          1           0      -32.738969   -1.387670    4.835659
     70          1           0      -32.192194   -2.572774    6.551939
     71          1           0      -30.669645   -3.271181    5.931466
     72          1           0      -32.095838   -3.875271    5.332397
     73          1           0      -28.817326   -5.022324    2.563606
     74          1           0      -27.049207   -5.362421    2.136454
     75          1           0      -28.398921   -5.888744    1.107714
     76          1           0      -27.373912   -3.238252   -3.520542
     77          1           0      -23.702880   -3.262580   -5.658759
     78          1           0      -23.405871   -3.762424   -4.035354
     79          1           0      -23.352626   -1.970620   -4.379698
     80         12           0       29.173022    0.682230   -0.655964
     81          6           0       27.392021   -2.315483    0.007520
     82          6           0       26.192959    2.402580   -0.084349
     83          6           0       31.034153    3.340164   -0.101235
     84          6           0       32.166466   -1.414968   -0.868136
     85          7           0       27.040648    0.072126    0.160473
     86          6           0       26.539264   -1.185075    0.075772
     87          6           0       25.026686   -1.131741    0.194601
     88          6           0       24.655484    0.226784   -0.400242
     89          6           0       26.033189    0.987067   -0.044012
     90          6           0       24.393297    0.318478   -1.904633
     91          6           0       24.600160   -1.402893    1.703041
     92          6           0       23.468146   -2.347769    1.806391
     93          1           0       22.366841   -2.031924    2.837089
     94          7           0       28.711590    2.662696   -0.101689
     95          6           0       27.400279    3.189170    0.004521
     96          6           0       27.548483    4.596674    0.276802
     97          6           0       28.918360    4.963066    0.199183
     98          6           0       29.650513    3.659492    0.016115
     99          6           0       26.325945    5.472231    0.533190
    100          6           0       29.475321    6.314595    0.415336
    101          8           0       28.708839    7.234074    0.674551
    102          6           0       30.917984    6.699722    0.446110
    103          7           0       31.388314    0.872722   -0.410888
    104          6           0       31.819453    2.149692   -0.395633
    105          6           0       33.348279    2.209628   -0.565755
    106          6           0       33.739026    0.679837   -0.974697
    107          6           0       32.366195   -0.017705   -0.792235
    108          6           0       33.862348    3.364367   -1.538318
    109          6           0       34.908381    0.043467   -0.160000
    110          6           0       34.536318   -0.901183    1.033340
    111          7           0       29.699019   -1.341494   -0.489487
    112          6           0       30.936276   -2.023456   -0.668328
    113          6           0       30.658328   -3.524458   -0.727587
    114          6           0       29.310315   -3.611561   -0.418543
    115          6           0       28.784806   -2.274714   -0.305341
    116          6           0       31.566168   -4.743498   -0.980553
    117          6           0       28.221964   -4.521802   -0.252559
    118          8           0       28.176240   -5.745127   -0.392129
    119          6           0       27.063349   -3.687824    0.163775
    120          6           0       26.895478   -4.048549    1.657526
    121          8           0       27.561630   -3.632746    2.603210
    122          8           0       25.862536   -5.023190    1.739884
    123          6           0       25.597107   -5.608123    2.991179
    124          1           0       25.279129    2.996010   -0.010360
    125          1           0       31.548412    4.302967   -0.077308
    126          1           0       32.972144   -2.122943   -1.069955
    127          1           0       24.518071   -1.851984   -0.446053
    128          1           0       23.798233    0.780959   -0.019720
    129          1           0       24.169196   -0.640257   -2.371407
    130          1           0       25.135924    0.940624   -2.404773
    131          1           0       23.457867    0.878141   -1.939250
    132          1           0       24.269106   -0.462572    2.143969
    133          1           0       25.429549   -1.652667    2.364812
    134          1           0       23.983739   -3.281310    2.028843
    135          1           0       22.985259   -2.408976    0.831225
    136          1           0       26.077012    6.112233   -0.313067
    137          1           0       26.482263    6.026620    1.457409
    138          1           0       25.446278    4.851761    0.704983
    139          1           0       31.319280    6.593674   -0.562066
    140          1           0       31.546117    6.138058    1.138630
    141          1           0       31.043263    7.775024    0.567180
    142          1           0       33.698354    2.375591    0.452848
    143          1           0       33.932501    0.647896   -2.046382
    144          1           0       33.137685    4.176062   -1.600970
    145          1           0       34.230304    3.098111   -2.529895
    146          1           0       34.826955    3.624721   -1.099793
    147          1           0       35.605031    0.790607    0.219346
    148          1           0       35.402494   -0.567932   -0.914691
    149          1           0       35.404965   -0.649945    1.642422
    150          1           0       34.520448   -1.976153    0.852325
    151          1           0       33.618016   -0.519591    1.480141
    152          1           0       31.218047   -5.318903   -1.837644
    153          1           0       31.255661   -5.314284   -0.105921
    154          1           0       32.599037   -4.400130   -0.926643
    155          1           0       26.173194   -4.006125   -0.378937
    156          1           0       24.803220   -6.356019    2.984491
    157          1           0       25.294528   -4.808053    3.665600
    158          1           0       26.538489   -6.070868    3.288792
 ---------------------------------------------------------------------

 SCF Done:  E(RCAM-B3LYP) =  -4069.78501692     A.U. after   18 cycles

 Excitation energies and oscillator strengths:

 Excited State   1:      Singlet-A      1.6842 eV  736.14 nm  f=0.3532  <S**2>=0.000
     309 -> 315        0.19726
     312 -> 314        0.68021
     309 <- 315        0.11213
 This state for optimization and/or second-order correction.
 Total Energy, E(TD-HF/TD-DFT) =  -4069.72312204
 Copying the excited state density for this state as the 1-particle RhoCI density.

 Excited State   2:      Singlet-A      1.7438 eV  711.02 nm  f=0.3963  <S**2>=0.000
     310 -> 316       -0.17837
     311 -> 313        0.68463
     310 <- 316       -0.10695

 Excited State   3:      Singlet-A      2.1915 eV  565.74 nm  f=0.0566  <S**2>=0.000
     309 -> 314        0.61452
     312 -> 315       -0.33942

 Excited State   4:      Singlet-A      2.2018 eV  563.09 nm  f=0.1592  <S**2>=0.000
     310 -> 313        0.65400
     311 -> 316        0.24979

 Excited State   5:      Singlet-A      3.1142 eV  398.12 nm  f=0.0000  <S**2>=0.000
     312 -> 313        0.70711

 The electronic state is 1-A.
 Alpha  occ. eigenvalues --  -46.91310 -46.87183 -19.25665 -19.24718 -19.21411
 Alpha  occ. eigenvalues --  -19.19888 -19.19519 -19.19040 -19.18921 -19.17582
 Alpha  occ. eigenvalues --  -14.42416 -14.42064 -14.41951 -14.41505 -14.40252
 Alpha  occ. eigenvalues --  -14.39770 -14.39290 -14.38557 -10.40601 -10.39434
 Alpha  occ. eigenvalues --  -10.36343 -10.35041 -10.34570 -10.34135 -10.32184
 Alpha  occ. eigenvalues --  -10.31839 -10.31437 -10.31412 -10.31316 -10.31061
 Alpha  occ. eigenvalues --  -10.31051 -10.30983 -10.30840 -10.30631 -10.30623
 Alpha  occ. eigenvalues --  -10.30622 -10.30439 -10.30090 -10.29921 -10.29476
 Alpha  occ. eigenvalues --  -10.29401 -10.29100 -10.28942 -10.28790 -10.28671
 Alpha  occ. eigenvalues --  -10.28530 -10.28421 -10.28382 -10.28209 -10.28156
 Alpha  occ. eigenvalues --  -10.28139 -10.28064 -10.27916 -10.27903 -10.27866
 Alpha  occ. eigenvalues --  -10.27769 -10.27761 -10.27673 -10.27644 -10.27616
 Alpha  occ. eigenvalues --  -10.27614 -10.27564 -10.27412 -10.27363 -10.27221
 Alpha  occ. eigenvalues --  -10.27172 -10.27115 -10.27103 -10.26952 -10.26790
 Alpha  occ. eigenvalues --  -10.26728 -10.26505 -10.26371 -10.26354 -10.26242
 Alpha  occ. eigenvalues --  -10.26124 -10.26089 -10.25795 -10.25779 -10.25714
 Alpha  occ. eigenvalues --  -10.25677 -10.25338 -10.25281 -10.24986 -10.24657
 Alpha  occ. eigenvalues --  -10.24358  -3.19510  -3.15911  -1.94351  -1.94017
 Alpha  occ. eigenvalues --   -1.93765  -1.90816  -1.90355  -1.90236  -1.15828
 Alpha  occ. eigenvalues --   -1.15762  -1.11710  -1.10327  -1.09609  -1.09366
 Alpha  occ. eigenvalues --   -1.08659  -1.06339  -1.04945  -1.04210  -1.03458
 Alpha  occ. eigenvalues --   -1.03345  -1.02846  -1.02556  -1.01429  -1.01284
 Alpha  occ. eigenvalues --   -0.94388  -0.92584  -0.89211  -0.89179  -0.88730
 Alpha  occ. eigenvalues --   -0.88665  -0.88033  -0.87809  -0.87275  -0.87032
 Alpha  occ. eigenvalues --   -0.86857  -0.86418  -0.85829  -0.85580  -0.84787
 Alpha  occ. eigenvalues --   -0.84316  -0.83833  -0.83670  -0.82911  -0.82711
 Alpha  occ. eigenvalues --   -0.82113  -0.81650  -0.81196  -0.80864  -0.80667
 Alpha  occ. eigenvalues --   -0.80281  -0.78237  -0.78045  -0.77326  -0.77279
 Alpha  occ. eigenvalues --   -0.76886  -0.76779  -0.76011  -0.75738  -0.75214
 Alpha  occ. eigenvalues --   -0.74887  -0.72885  -0.72755  -0.71848  -0.70932
 Alpha  occ. eigenvalues --   -0.69925  -0.68721  -0.68612  -0.68119  -0.67594
 Alpha  occ. eigenvalues --   -0.67325  -0.66875  -0.66547  -0.65519  -0.65350
 Alpha  occ. eigenvalues --   -0.65182  -0.64977  -0.64720  -0.64574  -0.64551
 Alpha  occ. eigenvalues --   -0.64045  -0.62220  -0.61949  -0.60324  -0.60120
 Alpha  occ. eigenvalues --   -0.59939  -0.59776  -0.59279  -0.59252  -0.58908
 Alpha  occ. eigenvalues --   -0.58268  -0.58212  -0.57693  -0.57625  -0.57043
 Alpha  occ. eigenvalues --   -0.56207  -0.56162  -0.55966  -0.55685  -0.55647
 Alpha  occ. eigenvalues --   -0.55510  -0.54998  -0.54956  -0.54565  -0.53845
 Alpha  occ. eigenvalues --   -0.53684  -0.53560  -0.53438  -0.53399  -0.53041
 Alpha  occ. eigenvalues --   -0.52648  -0.52629  -0.52587  -0.52187  -0.51970
 Alpha  occ. eigenvalues --   -0.51889  -0.51826  -0.51676  -0.51558  -0.51398
 Alpha  occ. eigenvalues --   -0.51312  -0.51033  -0.50898  -0.50560  -0.50462
 Alpha  occ. eigenvalues --   -0.50190  -0.50111  -0.49974  -0.49806  -0.49456
 Alpha  occ. eigenvalues --   -0.49413  -0.49409  -0.49235  -0.49110  -0.48956
 Alpha  occ. eigenvalues --   -0.48721  -0.48484  -0.48272  -0.47954  -0.47764
 Alpha  occ. eigenvalues --   -0.47679  -0.47476  -0.47261  -0.47174  -0.46856
 Alpha  occ. eigenvalues --   -0.46790  -0.46649  -0.46461  -0.46149  -0.46100
 Alpha  occ. eigenvalues --   -0.45952  -0.45907  -0.45875  -0.45850  -0.45776
 Alpha  occ. eigenvalues --   -0.45442  -0.45409  -0.45308  -0.45151  -0.45086
 Alpha  occ. eigenvalues --   -0.44748  -0.44678  -0.44576  -0.44458  -0.44455
 Alpha  occ. eigenvalues --   -0.44338  -0.44144  -0.43799  -0.43482  -0.43402
 Alpha  occ. eigenvalues --   -0.43358  -0.43313  -0.43009  -0.42922  -0.42878
 Alpha  occ. eigenvalues --   -0.42616  -0.42337  -0.42282  -0.42048  -0.41943
 Alpha  occ. eigenvalues --   -0.41883  -0.41606  -0.41305  -0.41227  -0.41016
 Alpha  occ. eigenvalues --   -0.40982  -0.40952  -0.40484  -0.40433  -0.40090
 Alpha  occ. eigenvalues --   -0.40076  -0.39178  -0.39157  -0.38844  -0.38565
 Alpha  occ. eigenvalues --   -0.38357  -0.38274  -0.37930  -0.37850  -0.37832
 Alpha  occ. eigenvalues --   -0.37642  -0.36761  -0.36522  -0.36335  -0.36332
 Alpha  occ. eigenvalues --   -0.35992  -0.35777  -0.35222  -0.34248  -0.34223
 Alpha  occ. eigenvalues --   -0.34144  -0.33353  -0.33158  -0.31764  -0.31470
 Alpha  occ. eigenvalues --   -0.31275  -0.30861  -0.30816  -0.30574  -0.30222
 Alpha  occ. eigenvalues --   -0.29987  -0.29564  -0.29485  -0.24056  -0.23971
 Alpha  occ. eigenvalues --   -0.21531  -0.21044
 Alpha virt. eigenvalues --   -0.09014  -0.08538  -0.02622  -0.01271  -0.00612
 Alpha virt. eigenvalues --    0.00126   0.00736   0.02163   0.02791   0.03445
 Alpha virt. eigenvalues --    0.04504   0.04700   0.05160   0.05403   0.05889

 Mulliken charges:
               1
     1  Mg   0.836508
     2  C   -0.017272
     3  C   -0.093348
     4  C   -0.052661
     5  C   -0.080157
     6  N   -0.248955
     7  C   -0.021757
     8  C   -0.040977
     9  C   -0.078635
    10  C    0.007130
    11  C    0.066229
    12  C    0.084151
    13  C   -0.064160
    14  H    0.014341
    15  N   -0.438757
    16  C    0.227550
    17  C   -0.127637
    18  C   -0.044662
    19  C    0.133378
    20  C    0.086868
    21  C    0.029708
    22  O   -0.182041
    23  C    0.052828
    24  N   -0.286439
    25  C    0.051534
    26  C   -0.061430
    27  C   -0.034528
    28  C    0.042344
    29  C    0.054085
    30  C    0.073732
    31  C   -0.018448
    32  N   -0.355007
    33  C    0.116756
    34  C   -0.202365
    35  C    0.058985
    36  C    0.084204
    37  C    0.134355
    38  C    0.027032
    39  O   -0.153461
    40  C    0.027151
    41  C    0.210816
    42  O   -0.254021
    43  O   -0.341523
    44  C    0.182450
    45  H   -0.036345
    46  H   -0.006345
    47  H   -0.029033
    48  H    0.004854
    49  H   -0.000627
    50  H    0.022967
    51  H    0.021880
    52  H    0.010890
    53  H    0.006686
    54  H    0.004980
    55  H    0.043002
    56  H    0.032306
    57  H    0.027969
    58  H   -0.000582
    59  H    0.023535
    60  H    0.045129
    61  H    0.025193
    62  H    0.027633
    63  H    0.011527
    64  H    0.015266
    65  H    0.022284
    66  H    0.008769
    67  H    0.015456
    68  H    0.011053
    69  H    0.012778
    70  H    0.016482
    71  H    0.008623
    72  H    0.004068
    73  H    0.011017
    74  H    0.043399
    75  H    0.026488
    76  H    0.026261
    77  H    0.041804
    78  H    0.046542
    79  H    0.050200
    80  Mg   0.808494
    81  C    0.026556
    82  C   -0.060733
    83  C   -0.021877
    84  C   -0.054829
    85  N   -0.238504
    86  C   -0.066721
    87  C   -0.007335
    88  C   -0.085877
    89  C    0.025285
    90  C    0.085415
    91  C    0.072667
    92  C   -0.063567
    93  H    0.018188
    94  N   -0.411438
    95  C    0.127349
    96  C   -0.147942
    97  C    0.024186
    98  C    0.084048
    99  C    0.141738
   100  C   -0.053940
   101  O   -0.216893
   102  C    0.078842
   103  N   -0.260284
   104  C    0.038665
   105  C   -0.046166
   106  C    0.025420
   107  C   -0.014247
   108  C    0.052469
   109  C    0.002700
   110  C    0.007457
   111  N   -0.333209
   112  C    0.096743
   113  C   -0.206555
   114  C    0.019540
   115  C    0.125888
   116  C    0.134628
   117  C    0.005924
   118  O   -0.180139
   119  C    0.016396
   120  C    0.215309
   121  O   -0.202551
   122  O   -0.345883
   123  C    0.186829
   124  H   -0.020648
   125  H   -0.066448
   126  H   -0.026116
   127  H   -0.009636
   128  H    0.002560
   129  H    0.020039
   130  H    0.025888
   131  H    0.005828
   132  H    0.007754
   133  H    0.031963
   134  H    0.024949
   135  H    0.024300
   136  H    0.034537
   137  H    0.037886
   138  H   -0.012198
   139  H    0.019227
   140  H    0.050496
   141  H    0.019659
   142  H    0.023823
   143  H    0.010332
   144  H    0.032470
   145  H    0.011775
   146  H    0.010040
   147  H    0.015631
   148  H    0.005368
   149  H    0.012268
   150  H    0.025464
   151  H    0.040073
   152  H    0.049517
   153  H    0.045735
   154  H    0.017029
   155  H    0.029902
   156  H    0.038727
   157  H    0.024815
   158  H    0.034945
 Sum of Mulliken charges =  -0.00000

 Dipole moment (field-independent basis, Debye):
    X=              0.4123    Y=              3.3042    Z=             -5.4731  Tot=              6.4065
 Quadrupole moment (field-independent basis, Debye-Ang):
   XX=           -274.9683   YY=           -554.3978   ZZ=           -489.8093
   XY=            -80.3768   XZ=            -51.9774   YZ=            -28.4304

 Normal termination of Gaussian 16 at Tue Sep 14 20:37:32 2021.
