 Gaussian 16, Revision A.03,
 Gaussian 16:  ES64L-G16RevA.03 25-Dec-2016

 -----------------------------------
 #p cam-b3lyp/Def2SVP td=(nstates=5)
 -----------------------------------

 --------------------------------
 TDDFT excited states in gaussian
 --------------------------------
 Symbolic Z-matrix:
 Charge =  0 Multiplicity = 1

                         Standard orientation:
 ---------------------------------------------------------------------
 Center     Atomic      Atomic             Coordinates (Angstroms)
 Number     Number       Type             X           Y           Z
 ---------------------------------------------------------------------
      1         12           0      -19.318386    0.265138    0.204413
      2          6           0      -17.953415   -2.683483   -0.811698
      3          6           0      -16.088101    1.472648    0.573768
      4          6           0      -20.665451    3.275299    0.834445
      5          6           0      -22.497197   -0.828634   -0.837026
      6          7           0      -17.251872   -0.457254   -0.342983
      7          6           0      -16.993165   -1.730732   -0.701731
      8          6           0      -15.554597   -1.959984   -0.990418
      9          6           0      -14.920622   -0.683904   -0.152445
     10          6           0      -16.163852    0.205152    0.060826
     11          6           0      -14.189420   -1.120117    1.151416
     12          6           0      -15.307892   -1.852918   -2.486892
     13          6           0      -15.755536   -0.526987   -3.259716
     14          1           0      -14.869910    0.067624   -4.347605
     15          7           0      -18.507980    2.110407    0.639982
     16          6           0      -17.139706    2.387041    0.888128
     17          6           0      -17.071164    3.705905    1.422962
     18          6           0      -18.334615    4.281856    1.471109
     19          6           0      -19.268603    3.236724    1.019505
     20          6           0      -15.709962    4.246365    1.811320
     21          6           0      -18.684573    5.705309    1.833788
     22          8           0      -17.714183    6.442849    2.138083
     23          6           0      -19.955113    6.326430    1.663573
     24          7           0      -21.279281    1.148742   -0.192306
     25          6           0      -21.583867    2.408074    0.233859
     26          6           0      -23.065752    2.752908   -0.048642
     27          6           0      -23.631271    1.397859   -0.592716
     28          6           0      -22.385437    0.528552   -0.617325
     29          6           0      -23.801418    3.292854    1.159170
     30          6           0      -24.328717    1.593427   -2.042840
     31          6           0      -25.641296    0.820328   -2.214413
     32          7           0      -20.171749   -1.442168   -0.671024
     33          6           0      -21.459691   -1.835050   -0.848473
     34          6           0      -21.433236   -3.248466   -1.110065
     35          6           0      -20.069697   -3.703621   -1.077064
     36          6           0      -19.350595   -2.545720   -0.830879
     37          6           0      -22.583819   -4.052503   -1.611016
     38          6           0      -19.139991   -4.769390   -1.271558
     39          8           0      -19.457743   -5.940117   -1.516078
     40          6           0      -17.764146   -4.160718   -1.072965
     41          6           0      -17.086739   -4.876711    0.035307
     42          8           0      -16.936052   -6.080239   -0.040740
     43          8           0      -16.608850   -4.071067    1.023304
     44          6           0      -15.917520   -4.764617    2.111866
     45          1           0      -15.104011    1.758852    0.950431
     46          1           0      -21.106320    4.175764    1.266778
     47          1           0      -23.469700   -1.295807   -1.007559
     48          1           0      -15.114279   -2.911047   -0.690747
     49          1           0      -14.090038   -0.234890   -0.698624
     50          1           0      -13.151472   -0.790448    1.124035
     51          1           0      -14.191018   -2.210376    1.163190
     52          1           0      -14.660580   -0.779171    2.074212
     53          1           0      -15.724392   -2.751615   -2.942300
     54          1           0      -14.245153   -2.084084   -2.558346
     55          1           0      -15.930808    0.348649   -2.634563
     56          1           0      -16.655671   -0.867263   -3.770814
     57          1           0      -15.287939    4.652435    0.891833
     58          1           0      -15.081382    3.417972    2.135654
     59          1           0      -15.694642    5.003662    2.595711
     60          1           0      -19.861127    7.396162    1.473999
     61          1           0      -20.669796    6.082240    2.450569
     62          1           0      -20.315731    5.954682    0.705440
     63          1           0      -22.996887    3.493801   -0.845923
     64          1           0      -24.286311    0.952822    0.156013
     65          1           0      -23.164800    3.462905    2.027035
     66          1           0      -24.728754    2.838402    1.506868
     67          1           0      -24.001062    4.324574    0.868220
     68          1           0      -23.696574    1.297702   -2.880188
     69          1           0      -24.508341    2.643616   -2.272234
     70          1           0      -26.460161    1.538963   -2.194732
     71          1           0      -25.781625    0.190235   -1.335866
     72          1           0      -25.680290    0.247603   -3.141131
     73          1           0      -23.410096   -4.232004   -0.924215
     74          1           0      -22.148562   -4.998355   -1.935727
     75          1           0      -23.069433   -3.584547   -2.467411
     76          1           0      -17.219179   -4.337213   -2.000765
     77          1           0      -15.093934   -5.330137    1.675040
     78          1           0      -16.576593   -5.386041    2.718341
     79          1           0      -15.593247   -4.055969    2.873806
     80         12           0       19.393406   -0.121408   -0.681349
     81          6           0       16.662133    0.480669    1.589431
     82          6           0       20.064444   -2.965873    0.935599
     83          6           0       22.364640   -0.125582   -2.231349
     84          6           0       18.822858    3.104817   -1.934427
     85          7           0       18.505145   -1.065480    1.065514
     86          6           0       17.297896   -0.772532    1.722493
     87          6           0       16.864323   -1.948255    2.678655
     88          6           0       18.012415   -2.983444    2.479074
     89          6           0       18.897473   -2.332253    1.383165
     90          6           0       18.814385   -3.370874    3.695521
     91          6           0       15.368880   -2.491993    2.366832
     92          6           0       14.425955   -2.541307    3.575389
     93          1           0       13.845892   -3.973289    3.875909
     94          7           0       20.942718   -1.455675   -0.753855
     95          6           0       21.061310   -2.567596   -0.021219
     96          6           0       22.319151   -3.263636   -0.297742
     97          6           0       23.025703   -2.359308   -1.163720
     98          6           0       22.122569   -1.232007   -1.417937
     99          6           0       22.670511   -4.563672    0.287646
    100          6           0       24.507955   -2.564362   -1.608356
    101          8           0       25.056445   -1.811522   -2.395714
    102          6           0       25.348040   -3.703281   -1.125144
    103          7           0       20.391476    1.253988   -1.868191
    104          6           0       21.589357    0.955015   -2.508409
    105          6           0       22.011850    2.109701   -3.475043
    106          6           0       20.687730    2.950133   -3.611822
    107          6           0       19.880350    2.383655   -2.444087
    108          6           0       23.320867    2.897582   -3.143186
    109          6           0       19.945733    2.753219   -4.962134
    110          6           0       19.306284    3.950785   -5.618380
    111          7           0       18.069362    1.507832   -0.248502
    112          6           0       17.969355    2.734017   -0.842164
    113          6           0       16.732878    3.442279   -0.290513
    114          6           0       16.170326    2.578736    0.618088
    115          6           0       17.054903    1.447007    0.662579
    116          6           0       16.255891    4.778638   -0.812117
    117          6           0       15.107647    2.352148    1.581349
    118          8           0       14.187766    3.164565    1.812211
    119          6           0       15.440257    0.948076    2.367402
    120          6           0       15.787242    1.107722    3.832892
    121          8           0       16.694353    1.883413    4.193871
    122          8           0       14.882699    0.454595    4.671128
    123          6           0       14.952600    0.938989    6.044821
    124          1           0       20.277474   -3.955936    1.343560
    125          1           0       23.321388   -0.240054   -2.744493
    126          1           0       18.637087    4.045150   -2.458499
    127          1           0       16.868857   -1.466926    3.656416
    128          1           0       17.499472   -3.921554    2.262669
    129          1           0       18.518961   -2.830373    4.594890
    130          1           0       19.773655   -2.934937    3.418551
    131          1           0       18.762304   -4.435420    3.925827
    132          1           0       15.557408   -3.481069    1.950285
    133          1           0       14.950652   -1.920689    1.538525
    134          1           0       13.656643   -1.789436    3.399473
    135          1           0       14.975966   -2.245919    4.469800
    136          1           0       23.594911   -4.677690    0.852986
    137          1           0       22.943785   -5.178625   -0.569068
    138          1           0       21.841328   -5.122801    0.721710
    139          1           0       24.830579   -4.600051   -1.468039
    140          1           0       25.285256   -3.694163   -0.036631
    141          1           0       26.342297   -3.528861   -1.534489
    142          1           0       22.190577    1.597844   -4.420673
    143          1           0       20.829392    4.005781   -3.381421
    144          1           0       23.757750    2.347006   -2.310369
    145          1           0       23.167612    3.957738   -2.943518
    146          1           0       24.085144    2.765507   -3.910044
    147          1           0       19.195176    2.045490   -4.610688
    148          1           0       20.524351    2.242893   -5.732384
    149          1           0       19.542016    3.862088   -6.678946
    150          1           0       19.722519    4.899411   -5.277793
    151          1           0       18.230645    3.782883   -5.559046
    152          1           0       16.968563    5.098595   -1.572050
    153          1           0       16.334996    5.504659   -0.003267
    154          1           0       15.221399    4.693322   -1.144142
    155          1           0       14.604785    0.265075    2.213762
    156          1           0       14.087528    1.507745    6.382969
    157          1           0       15.838762    1.535278    6.262675
    158          1           0       15.027841    0.051968    6.673291
 ---------------------------------------------------------------------

 SCF Done:  E(RCAM-B3LYP) =  -4069.79764275     A.U. after   18 cycles

 Excitation energies and oscillator strengths:

 Excited State   1:      Singlet-A      1.6979 eV  730.20 nm  f=0.4131  <S**2>=0.000
     310 -> 316        0.17304
     312 -> 314        0.68830
     310 <- 316        0.10783
 This state for optimization and/or second-order correction.
 Total Energy, E(TD-HF/TD-DFT) =  -4069.73524467
 Copying the excited state density for this state as the 1-particle RhoCI density.

 Excited State   2:      Singlet-A      1.7419 eV  711.78 nm  f=0.3965  <S**2>=0.000
     309 -> 315       -0.17691
     311 -> 313        0.68518
     309 <- 315       -0.10390

 Excited State   3:      Singlet-A      2.2176 eV  559.09 nm  f=0.1299  <S**2>=0.000
     309 -> 313        0.65047
     311 -> 315        0.25335

 Excited State   4:      Singlet-A      2.2865 eV  542.24 nm  f=0.0916  <S**2>=0.000
     310 -> 314        0.63011
     312 -> 316       -0.31285

 Excited State   5:      Singlet-A      2.9249 eV  423.89 nm  f=0.0000  <S**2>=0.000
     312 -> 313        0.70710

 The electronic state is 1-A.
 Alpha  occ. eigenvalues --  -46.89113 -46.88388 -19.26709 -19.26400 -19.20863
 Alpha  occ. eigenvalues --  -19.19936 -19.19485 -19.18554 -19.18284 -19.18164
 Alpha  occ. eigenvalues --  -14.42574 -14.42084 -14.42066 -14.41658 -14.39794
 Alpha  occ. eigenvalues --  -14.39691 -14.39375 -14.38610 -10.40845 -10.39474
 Alpha  occ. eigenvalues --  -10.36513 -10.34933 -10.34839 -10.34455 -10.32751
 Alpha  occ. eigenvalues --  -10.31755 -10.31684 -10.31599 -10.31223 -10.31192
 Alpha  occ. eigenvalues --  -10.30968 -10.30656 -10.30524 -10.30392 -10.30342
 Alpha  occ. eigenvalues --  -10.30216 -10.30128 -10.29963 -10.29789 -10.29510
 Alpha  occ. eigenvalues --  -10.29204 -10.29143 -10.29050 -10.29014 -10.28871
 Alpha  occ. eigenvalues --  -10.28570 -10.28566 -10.28463 -10.28380 -10.28346
 Alpha  occ. eigenvalues --  -10.28282 -10.28245 -10.28212 -10.28055 -10.28027
 Alpha  occ. eigenvalues --  -10.27736 -10.27725 -10.27472 -10.27403 -10.27369
 Alpha  occ. eigenvalues --  -10.27364 -10.27300 -10.27297 -10.27235 -10.27228
 Alpha  occ. eigenvalues --  -10.27180 -10.27085 -10.27000 -10.26951 -10.26776
 Alpha  occ. eigenvalues --  -10.26549 -10.26514 -10.26469 -10.26345 -10.26153
 Alpha  occ. eigenvalues --  -10.26150 -10.25926 -10.25728 -10.25623 -10.25555
 Alpha  occ. eigenvalues --  -10.25538 -10.25506 -10.25434 -10.25225 -10.24978
 Alpha  occ. eigenvalues --  -10.24556  -3.17566  -3.17040  -1.92442  -1.92041
 Alpha  occ. eigenvalues --   -1.91921  -1.91848  -1.91479  -1.91368  -1.17424
 Alpha  occ. eigenvalues --   -1.16354  -1.10117  -1.09059  -1.09051  -1.08400
 Alpha  occ. eigenvalues --   -1.08000  -1.07969  -1.04989  -1.04547  -1.03927
 Alpha  occ. eigenvalues --   -1.03304  -1.02736  -1.02652  -1.01891  -1.01520
 Alpha  occ. eigenvalues --   -0.94077  -0.92642  -0.89287  -0.89124  -0.89051
 Alpha  occ. eigenvalues --   -0.88755  -0.88753  -0.88041  -0.87797  -0.87337
 Alpha  occ. eigenvalues --   -0.87236  -0.86330  -0.86130  -0.85851  -0.85105
 Alpha  occ. eigenvalues --   -0.84296  -0.84135  -0.83670  -0.83356  -0.82809
 Alpha  occ. eigenvalues --   -0.82727  -0.81943  -0.81464  -0.81214  -0.80905
 Alpha  occ. eigenvalues --   -0.80241  -0.78631  -0.78439  -0.77997  -0.77617
 Alpha  occ. eigenvalues --   -0.77066  -0.76939  -0.76233  -0.76169  -0.74963
 Alpha  occ. eigenvalues --   -0.74714  -0.72519  -0.72458  -0.72131  -0.70980
 Alpha  occ. eigenvalues --   -0.70154  -0.69129  -0.69010  -0.68851  -0.68412
 Alpha  occ. eigenvalues --   -0.67923  -0.67135  -0.66726  -0.66566  -0.65348
 Alpha  occ. eigenvalues --   -0.65342  -0.65222  -0.65001  -0.64905  -0.64398
 Alpha  occ. eigenvalues --   -0.64363  -0.63833  -0.62603  -0.60297  -0.60248
 Alpha  occ. eigenvalues --   -0.59783  -0.59741  -0.59346  -0.58929  -0.58834
 Alpha  occ. eigenvalues --   -0.58533  -0.58393  -0.58342  -0.58028  -0.57328
 Alpha  occ. eigenvalues --   -0.56849  -0.56592  -0.56266  -0.55811  -0.55439
 Alpha  occ. eigenvalues --   -0.55166  -0.55127  -0.54935  -0.54527  -0.54259
 Alpha  occ. eigenvalues --   -0.53779  -0.53762  -0.53524  -0.53488  -0.53143
 Alpha  occ. eigenvalues --   -0.53080  -0.52610  -0.52490  -0.52466  -0.51895
 Alpha  occ. eigenvalues --   -0.51841  -0.51832  -0.51626  -0.51497  -0.51439
 Alpha  occ. eigenvalues --   -0.51282  -0.51143  -0.51086  -0.50926  -0.50835
 Alpha  occ. eigenvalues --   -0.50336  -0.50257  -0.49618  -0.49604  -0.49476
 Alpha  occ. eigenvalues --   -0.49382  -0.49166  -0.49124  -0.48800  -0.48758
 Alpha  occ. eigenvalues --   -0.48692  -0.48633  -0.48483  -0.48330  -0.48165
 Alpha  occ. eigenvalues --   -0.48155  -0.47963  -0.47634  -0.47246  -0.47102
 Alpha  occ. eigenvalues --   -0.47032  -0.46764  -0.46731  -0.46493  -0.46433
 Alpha  occ. eigenvalues --   -0.46412  -0.46058  -0.46030  -0.45956  -0.45743
 Alpha  occ. eigenvalues --   -0.45684  -0.45648  -0.45378  -0.45239  -0.44864
 Alpha  occ. eigenvalues --   -0.44664  -0.44627  -0.44580  -0.44546  -0.44337
 Alpha  occ. eigenvalues --   -0.44151  -0.44042  -0.43824  -0.43737  -0.43622
 Alpha  occ. eigenvalues --   -0.43555  -0.43210  -0.43006  -0.42860  -0.42818
 Alpha  occ. eigenvalues --   -0.42678  -0.42446  -0.42310  -0.42253  -0.41911
 Alpha  occ. eigenvalues --   -0.41790  -0.41734  -0.41714  -0.41278  -0.41157
 Alpha  occ. eigenvalues --   -0.41131  -0.40965  -0.40794  -0.40567  -0.40487
 Alpha  occ. eigenvalues --   -0.40186  -0.39534  -0.39510  -0.39200  -0.39142
 Alpha  occ. eigenvalues --   -0.38685  -0.38302  -0.37835  -0.37819  -0.37700
 Alpha  occ. eigenvalues --   -0.37524  -0.37437  -0.37426  -0.36894  -0.36427
 Alpha  occ. eigenvalues --   -0.36117  -0.35974  -0.35164  -0.34701  -0.34445
 Alpha  occ. eigenvalues --   -0.33999  -0.33111  -0.32894  -0.31785  -0.31561
 Alpha  occ. eigenvalues --   -0.31398  -0.30881  -0.30703  -0.30449  -0.30397
 Alpha  occ. eigenvalues --   -0.30104  -0.29788  -0.28993  -0.24302  -0.24178
 Alpha  occ. eigenvalues --   -0.21672  -0.20785
 Alpha virt. eigenvalues --   -0.09145  -0.08434  -0.01887  -0.01325  -0.00052
 Alpha virt. eigenvalues --    0.00145   0.01338   0.01779   0.02010   0.02320
 Alpha virt. eigenvalues --    0.02794   0.04525   0.04982   0.05505   0.05535

 Mulliken charges:
               1
     1  Mg   0.798106
     2  C    0.011920
     3  C   -0.057741
     4  C   -0.074862
     5  C   -0.069406
     6  N   -0.239874
     7  C   -0.031509
     8  C   -0.030225
     9  C   -0.077636
    10  C    0.066869
    11  C    0.065546
    12  C    0.047159
    13  C   -0.074955
    14  H    0.019485
    15  N   -0.433578
    16  C    0.129038
    17  C   -0.132403
    18  C   -0.006646
    19  C    0.148041
    20  C    0.133176
    21  C   -0.016198
    22  O   -0.242193
    23  C    0.084002
    24  N   -0.253742
    25  C    0.012190
    26  C   -0.005333
    27  C   -0.034241
    28  C    0.078931
    29  C    0.065240
    30  C    0.032754
    31  C   -0.000108
    32  N   -0.354114
    33  C    0.076924
    34  C   -0.160992
    35  C    0.052216
    36  C    0.082329
    37  C    0.092187
    38  C   -0.004229
    39  O   -0.166242
    40  C   -0.005008
    41  C    0.184396
    42  O   -0.197435
    43  O   -0.322796
    44  C    0.181850
    45  H   -0.028798
    46  H   -0.058538
    47  H   -0.033117
    48  H   -0.003205
    49  H    0.010777
    50  H    0.015825
    51  H    0.005756
    52  H    0.017979
    53  H    0.000125
    54  H    0.007551
    55  H    0.057212
    56  H    0.043819
    57  H    0.029016
    58  H    0.009155
    59  H    0.039498
    60  H    0.033996
    61  H    0.054619
    62  H    0.027239
    63  H    0.023328
    64  H    0.016273
    65  H    0.015926
    66  H    0.029063
    67  H    0.005127
    68  H    0.011787
    69  H    0.004202
    70  H    0.012591
    71  H    0.012476
    72  H    0.024992
    73  H    0.015350
    74  H    0.034377
    75  H    0.015772
    76  H    0.059720
    77  H    0.045653
    78  H    0.040591
    79  H    0.032972
    80  Mg   0.838921
    81  C   -0.085775
    82  C   -0.073226
    83  C   -0.080473
    84  C   -0.091739
    85  N   -0.300410
    86  C   -0.058246
    87  C   -0.033057
    88  C   -0.060019
    89  C    0.087833
    90  C    0.072295
    91  C    0.046875
    92  C   -0.051489
    93  H    0.010859
    94  N   -0.369163
    95  C    0.094546
    96  C   -0.130002
    97  C   -0.034172
    98  C    0.097040
    99  C    0.117786
   100  C   -0.018377
   101  O   -0.206455
   102  C    0.074190
   103  N   -0.329459
   104  C    0.078684
   105  C   -0.014123
   106  C   -0.051148
   107  C    0.040963
   108  C    0.083603
   109  C    0.023089
   110  C    0.033902
   111  N   -0.304520
   112  C    0.131407
   113  C   -0.210490
   114  C    0.055749
   115  C    0.126758
   116  C    0.140656
   117  C    0.068204
   118  O   -0.187317
   119  C    0.029221
   120  C    0.231178
   121  O   -0.228387
   122  O   -0.337449
   123  C    0.158767
   124  H   -0.037792
   125  H   -0.010926
   126  H   -0.028610
   127  H    0.019753
   128  H    0.008388
   129  H    0.005480
   130  H    0.020672
   131  H    0.020463
   132  H    0.007944
   133  H    0.014271
   134  H    0.041789
   135  H    0.032811
   136  H    0.024573
   137  H    0.006571
   138  H    0.018703
   139  H    0.028796
   140  H    0.031854
   141  H    0.041572
   142  H    0.004106
   143  H    0.004861
   144  H    0.017568
   145  H    0.023632
   146  H    0.013199
   147  H    0.005369
   148  H    0.010968
   149  H    0.005713
   150  H    0.020913
   151  H    0.021825
   152  H    0.000842
   153  H    0.035312
   154  H    0.044337
   155  H    0.029861
   156  H    0.045585
   157  H    0.055287
   158  H    0.027277
 Sum of Mulliken charges =  -0.00000

 Dipole moment (field-independent basis, Debye):
    X=             -1.5911    Y=              0.1189    Z=              1.4441  Tot=              2.1520
 Quadrupole moment (field-independent basis, Debye-Ang):
   XX=           -446.8772   YY=           -560.7167   ZZ=           -492.7849
   XY=           -160.1782   XZ=            -44.1326   YZ=            -41.8657

 Normal termination of Gaussian 16 at Wed Sep 15 18:31:46 2021.
