 Gaussian 16, Revision A.03,
 Gaussian 16:  ES64L-G16RevA.03 25-Dec-2016

 ----------------------------------------------------------
 #p cam-b3lyp/Def2SVP td=(nstates=5) density=(transition=1)
 ----------------------------------------------------------

 --------------------------------
 TDDFT excited states in gaussian
 --------------------------------
 Symbolic Z-matrix:
 Charge =  0 Multiplicity = 1

                         Standard orientation:
 ---------------------------------------------------------------------
 Center     Atomic      Atomic             Coordinates (Angstroms)
 Number     Number       Type             X           Y           Z
 ---------------------------------------------------------------------
      1         12           0      -11.678473    0.117768   -0.676773
      2          6           0       -8.687717   -1.428544    0.176070
      3          6           0      -13.392063   -2.832170    0.282414
      4          6           0      -14.515009    1.857250   -0.372765
      5          6           0       -9.893872    3.147966   -0.925294
      6          7           0      -11.089594   -1.838033    0.498028
      7          6           0       -9.788275   -2.277853    0.459784
      8          6           0       -9.673973   -3.695243    0.926170
      9          6           0      -11.166715   -4.222933    0.712523
     10          6           0      -11.985947   -2.899590    0.509042
     11          6           0      -11.380445   -5.262687   -0.499875
     12          6           0       -9.045302   -3.756746    2.412249
     13          6           0       -8.360844   -4.988438    2.729527
     14          1           0       -8.892632   -5.681483    4.001926
     15          7           0      -13.693422   -0.410817   -0.307344
     16          6           0      -14.198843   -1.687912    0.064947
     17          6           0      -15.643832   -1.573107    0.167506
     18          6           0      -16.014448   -0.222047   -0.039045
     19          6           0      -14.717330    0.470992   -0.342193
     20          6           0      -16.493943   -2.707524    0.603992
     21          6           0      -17.494797    0.330028    0.099219
     22          8           0      -18.368176   -0.486921    0.386958
     23          6           0      -17.892191    1.713644   -0.403530
     24          7           0      -12.070202    2.192138   -0.557769
     25          6           0      -13.359788    2.615018   -0.557067
     26          6           0      -13.492813    4.260478   -0.478358
     27          6           0      -11.995460    4.671112   -0.879495
     28          6           0      -11.239826    3.305829   -0.823016
     29          6           0      -14.532156    4.913760   -1.466090
     30          6           0      -11.376491    5.694205    0.074751
     31          6           0      -10.871592    7.061106   -0.446297
     32          7           0       -9.693997    0.687280   -0.713446
     33          6           0       -9.136613    1.924489   -0.858460
     34          6           0       -7.708073    1.790220   -0.936492
     35          6           0       -7.505928    0.439688   -0.462063
     36          6           0       -8.773688   -0.147064   -0.308967
     37          6           0       -6.716040    2.898989   -1.138369
     38          6           0       -6.485302   -0.494701   -0.035374
     39          8           0       -5.298788   -0.441221   -0.152487
     40          6           0       -7.196056   -1.844429    0.370012
     41          6           0       -6.871161   -3.045692   -0.544998
     42          8           0       -6.937485   -3.027655   -1.755304
     43          8           0       -6.393743   -4.118683    0.235593
     44          6           0       -5.881925   -5.253282   -0.472002
     45          1           0      -13.855222   -3.790587    0.522855
     46          1           0      -15.348553    2.486001   -0.053409
     47          1           0       -9.382614    4.106873   -1.028101
     48          1           0       -9.148750   -4.327408    0.209454
     49          1           0      -11.489748   -4.700580    1.638215
     50          1           0      -11.768802   -6.167462   -0.032436
     51          1           0      -10.463144   -5.465132   -1.051890
     52          1           0      -12.140676   -4.823164   -1.146255
     53          1           0       -9.919342   -3.663652    3.056616
     54          1           0       -8.477188   -2.826373    2.434195
     55          1           0       -7.312313   -4.723921    2.860966
     56          1           0       -8.495879   -5.709609    1.923485
     57          1           0      -15.948879   -3.650995    0.580471
     58          1           0      -17.309587   -2.854780   -0.104362
     59          1           0      -16.849600   -2.566199    1.624868
     60          1           0      -17.435404    2.531880    0.154080
     61          1           0      -18.979836    1.777139   -0.356865
     62          1           0      -17.613708    1.766313   -1.456100
     63          1           0      -13.667472    4.443578    0.581509
     64          1           0      -11.864111    4.970424   -1.919560
     65          1           0      -15.355563    5.346927   -0.898973
     66          1           0      -14.928764    4.148084   -2.133908
     67          1           0      -13.993793    5.685006   -2.017997
     68          1           0      -10.590482    5.250012    0.685052
     69          1           0      -12.010319    5.973650    0.916187
     70          1           0       -9.794888    7.232991   -0.448208
     71          1           0      -11.276455    7.792541    0.253541
     72          1           0      -11.216111    7.248242   -1.464056
     73          1           0       -5.781058    2.434816   -1.453118
     74          1           0       -6.312559    3.330624   -0.222943
     75          1           0       -7.059447    3.715799   -1.772638
     76          1           0       -6.786294   -2.044477    1.360447
     77          1           0       -6.067766   -6.036685    0.263456
     78          1           0       -4.795925   -5.224982   -0.559166
     79          1           0       -6.351601   -5.346467   -1.450378
     80         12           0       10.692773    0.924951   -0.277948
     81          6           0       12.129165   -2.195573   -1.070209
     82          6           0        7.961131   -0.764276    0.858629
     83          6           0        9.642931    3.838053    1.168814
     84          6           0       13.870101    2.340171   -1.053676
     85          7           0       10.167883   -1.285315    0.006715
     86          6           0       10.795237   -2.383931   -0.507017
     87          6           0       10.090927   -3.694246   -0.114711
     88          6           0        8.632704   -3.068408    0.139131
     89          6           0        8.932634   -1.604777    0.347505
     90          6           0        7.601901   -3.277101   -1.002543
     91          6           0       10.661329   -4.385276    1.204568
     92          6           0       10.460523   -5.880468    1.397393
     93          1           0        9.514782   -6.450672    2.475803
     94          7           0        8.987231    1.560948    0.866703
     95          6           0        7.939094    0.714441    1.083626
     96          6           0        6.837965    1.399915    1.599531
     97          6           0        7.266360    2.777806    1.689388
     98          6           0        8.695816    2.806297    1.268919
     99          6           0        5.493517    0.768469    1.940325
    100          6           0        6.352704    3.884009    2.166481
    101          8           0        5.168372    3.613305    2.493270
    102          6           0        6.755039    5.400808    2.179491
    103          7           0       11.649997    2.754716   -0.022509
    104          6           0       10.974519    3.843978    0.591535
    105          6           0       11.720633    5.122770    0.330190
    106          6           0       13.148856    4.665102   -0.037204
    107          6           0       12.898228    3.193167   -0.477026
    108          6           0       11.244922    6.076036   -0.789351
    109          6           0       14.152288    4.700881    1.232414
    110          6           0       14.829795    6.016279    1.585908
    111          7           0       12.549780    0.218407   -1.106732
    112          6           0       13.726586    0.903513   -1.369368
    113          6           0       14.724262    0.054893   -1.810792
    114          6           0       14.128223   -1.217194   -1.769042
    115          6           0       12.810198   -1.058528   -1.308704
    116          6           0       16.100390    0.478251   -2.217650
    117          6           0       14.310859   -2.531706   -2.096341
    118          8           0       15.228664   -3.073736   -2.679981
    119          6           0       13.123083   -3.246306   -1.418139
    120          6           0       13.724574   -3.968858   -0.249846
    121          8           0       14.337529   -3.435373    0.621793
    122          8           0       13.527353   -5.344716   -0.380066
    123          6           0       14.223026   -6.085901    0.613744
    124          1           0        6.993654   -1.237663    1.039814
    125          1           0        9.282664    4.836102    1.428567
    126          1           0       14.762474    2.864235   -1.401574
    127          1           0        9.969959   -4.371569   -0.959451
    128          1           0        8.227176   -3.582271    1.010235
    129          1           0        7.028130   -4.133006   -0.646026
    130          1           0        8.077369   -3.550744   -1.944354
    131          1           0        6.936657   -2.419544   -1.104604
    132          1           0       10.194749   -3.954519    2.090537
    133          1           0       11.711735   -4.100766    1.269955
    134          1           0       11.467619   -6.256626    1.583051
    135          1           0       10.149239   -6.288522    0.435916
    136          1           0        4.573999    1.328663    1.767419
    137          1           0        5.699481    0.531097    2.983776
    138          1           0        5.319500   -0.099496    1.304321
    139          1           0        6.953431    5.731552    1.160364
    140          1           0        7.628373    5.400981    2.831415
    141          1           0        6.071325    6.075255    2.694836
    142          1           0       11.771282    5.646016    1.284495
    143          1           0       13.581479    5.262666   -0.839693
    144          1           0       11.919721    6.164457   -1.640598
    145          1           0       10.728646    6.943974   -0.378650
    146          1           0       10.400989    5.548886   -1.234028
    147          1           0       14.879552    3.954787    0.912844
    148          1           0       13.648392    4.352994    2.134368
    149          1           0       14.655582    6.235539    2.638973
    150          1           0       14.404657    6.814095    0.976303
    151          1           0       15.911269    5.951872    1.463275
    152          1           0       16.784694   -0.182341   -1.686041
    153          1           0       16.344813    1.488504   -1.887081
    154          1           0       16.279865    0.366738   -3.287113
    155          1           0       12.706788   -3.956800   -2.131448
    156          1           0       15.203772   -6.373150    0.235617
    157          1           0       13.785118   -7.064981    0.811707
    158          1           0       14.354068   -5.523211    1.536455
 ---------------------------------------------------------------------

 SCF Done:  E(RCAM-B3LYP) =  -4069.75652101     A.U. after   18 cycles

 Excitation energies and oscillator strengths:

 Excited State   1:      Singlet-A      1.6827 eV  736.81 nm  f=0.5396  <S**2>=0.000
     309 -> 316       -0.16888
     311 -> 313        0.16108
     312 -> 314        0.66886
     309 <- 316       -0.10525
 This state for optimization and/or second-order correction.
 Total Energy, E(TD-HF/TD-DFT) =  -4069.69468262
 Copying the excited state density for this state as the 1-particle RhoCI density.

 Excited State   2:      Singlet-A      1.7084 eV  725.71 nm  f=0.2713  <S**2>=0.000
     310 -> 315       -0.18053
     311 -> 313        0.66315
     312 -> 314       -0.16184
     310 <- 315       -0.10521

 Excited State   3:      Singlet-A      2.1440 eV  578.29 nm  f=0.1261  <S**2>=0.000
     310 -> 313        0.65023
     311 -> 315        0.26037

 Excited State   4:      Singlet-A      2.2457 eV  552.10 nm  f=0.1075  <S**2>=0.000
     309 -> 314        0.63688
     312 -> 316        0.29199

 Excited State   5:      Singlet-A      2.7394 eV  452.60 nm  f=0.0000  <S**2>=0.000
     312 -> 313        0.70700

 The electronic state is 1-A.
 Alpha  occ. eigenvalues --  -46.90205 -46.89783 -19.25311 -19.25137 -19.20837
 Alpha  occ. eigenvalues --  -19.20745 -19.19682 -19.18235 -19.17994 -19.17752
 Alpha  occ. eigenvalues --  -14.43066 -14.42567 -14.42296 -14.41993 -14.40180
 Alpha  occ. eigenvalues --  -14.39709 -14.39101 -14.39062 -10.40082 -10.39612
 Alpha  occ. eigenvalues --  -10.36366 -10.34895 -10.33997 -10.33257 -10.32304
 Alpha  occ. eigenvalues --  -10.32213 -10.31793 -10.31600 -10.31531 -10.31477
 Alpha  occ. eigenvalues --  -10.31168 -10.30949 -10.30916 -10.30835 -10.30606
 Alpha  occ. eigenvalues --  -10.30545 -10.30457 -10.30119 -10.29836 -10.29635
 Alpha  occ. eigenvalues --  -10.29262 -10.29125 -10.29008 -10.28629 -10.28493
 Alpha  occ. eigenvalues --  -10.28490 -10.28469 -10.28217 -10.28216 -10.28206
 Alpha  occ. eigenvalues --  -10.28158 -10.28118 -10.28099 -10.28088 -10.27952
 Alpha  occ. eigenvalues --  -10.27935 -10.27842 -10.27793 -10.27760 -10.27751
 Alpha  occ. eigenvalues --  -10.27629 -10.27609 -10.27565 -10.27442 -10.27354
 Alpha  occ. eigenvalues --  -10.27293 -10.27240 -10.27029 -10.26849 -10.26691
 Alpha  occ. eigenvalues --  -10.26455 -10.26421 -10.26412 -10.26405 -10.26394
 Alpha  occ. eigenvalues --  -10.26377 -10.26279 -10.26250 -10.25995 -10.25832
 Alpha  occ. eigenvalues --  -10.25669 -10.25654 -10.25592 -10.25447 -10.24611
 Alpha  occ. eigenvalues --  -10.24059  -3.18497  -3.18201  -1.93395  -1.93051
 Alpha  occ. eigenvalues --   -1.92945  -1.92795  -1.92710  -1.92468  -1.17557
 Alpha  occ. eigenvalues --   -1.16084  -1.10772  -1.10278  -1.09958  -1.09415
 Alpha  occ. eigenvalues --   -1.08739  -1.07187  -1.05646  -1.04894  -1.04543
 Alpha  occ. eigenvalues --   -1.03812  -1.02897  -1.02368  -1.01816  -1.01578
 Alpha  occ. eigenvalues --   -0.94240  -0.92228  -0.89196  -0.88856  -0.88624
 Alpha  occ. eigenvalues --   -0.88586  -0.88358  -0.88169  -0.87461  -0.86998
 Alpha  occ. eigenvalues --   -0.86857  -0.86410  -0.85793  -0.85793  -0.84282
 Alpha  occ. eigenvalues --   -0.84079  -0.83550  -0.83352  -0.82817  -0.82689
 Alpha  occ. eigenvalues --   -0.82222  -0.81791  -0.81138  -0.80588  -0.80243
 Alpha  occ. eigenvalues --   -0.80240  -0.77971  -0.77817  -0.77316  -0.77300
 Alpha  occ. eigenvalues --   -0.76824  -0.76751  -0.76117  -0.75882  -0.75576
 Alpha  occ. eigenvalues --   -0.74920  -0.73509  -0.72643  -0.72153  -0.71331
 Alpha  occ. eigenvalues --   -0.69384  -0.69219  -0.68423  -0.68394  -0.68334
 Alpha  occ. eigenvalues --   -0.67442  -0.67061  -0.66494  -0.66214  -0.65902
 Alpha  occ. eigenvalues --   -0.65267  -0.64798  -0.64653  -0.64493  -0.64121
 Alpha  occ. eigenvalues --   -0.64082  -0.62823  -0.62728  -0.60422  -0.60050
 Alpha  occ. eigenvalues --   -0.59635  -0.59517  -0.59463  -0.59084  -0.58978
 Alpha  occ. eigenvalues --   -0.58927  -0.58557  -0.57994  -0.57959  -0.57450
 Alpha  occ. eigenvalues --   -0.56397  -0.56315  -0.55696  -0.55325  -0.55229
 Alpha  occ. eigenvalues --   -0.54972  -0.54954  -0.54836  -0.53993  -0.53748
 Alpha  occ. eigenvalues --   -0.53457  -0.53234  -0.53112  -0.52708  -0.52703
 Alpha  occ. eigenvalues --   -0.52591  -0.52510  -0.52434  -0.52156  -0.52079
 Alpha  occ. eigenvalues --   -0.51737  -0.51722  -0.51631  -0.51348  -0.51118
 Alpha  occ. eigenvalues --   -0.51023  -0.50785  -0.50719  -0.50483  -0.50186
 Alpha  occ. eigenvalues --   -0.50070  -0.50065  -0.49730  -0.49695  -0.49658
 Alpha  occ. eigenvalues --   -0.49600  -0.49253  -0.49203  -0.49133  -0.48886
 Alpha  occ. eigenvalues --   -0.48746  -0.48723  -0.48440  -0.48325  -0.48003
 Alpha  occ. eigenvalues --   -0.47875  -0.47837  -0.47292  -0.47242  -0.47108
 Alpha  occ. eigenvalues --   -0.47012  -0.46938  -0.46911  -0.46496  -0.46405
 Alpha  occ. eigenvalues --   -0.46286  -0.46257  -0.46154  -0.45914  -0.45909
 Alpha  occ. eigenvalues --   -0.45671  -0.45660  -0.45227  -0.45176  -0.44979
 Alpha  occ. eigenvalues --   -0.44939  -0.44748  -0.44626  -0.44499  -0.44492
 Alpha  occ. eigenvalues --   -0.44062  -0.43949  -0.43756  -0.43666  -0.43509
 Alpha  occ. eigenvalues --   -0.43365  -0.43245  -0.43140  -0.43095  -0.42847
 Alpha  occ. eigenvalues --   -0.42699  -0.42669  -0.42491  -0.42490  -0.42412
 Alpha  occ. eigenvalues --   -0.42180  -0.42074  -0.41445  -0.41409  -0.41212
 Alpha  occ. eigenvalues --   -0.41064  -0.41060  -0.40964  -0.40905  -0.40451
 Alpha  occ. eigenvalues --   -0.40424  -0.40219  -0.39784  -0.39294  -0.38635
 Alpha  occ. eigenvalues --   -0.38391  -0.38172  -0.37714  -0.37711  -0.37534
 Alpha  occ. eigenvalues --   -0.37053  -0.37053  -0.36861  -0.36697  -0.36493
 Alpha  occ. eigenvalues --   -0.36219  -0.35594  -0.35410  -0.34948  -0.34785
 Alpha  occ. eigenvalues --   -0.34247  -0.33305  -0.33263  -0.31571  -0.31340
 Alpha  occ. eigenvalues --   -0.31237  -0.30347  -0.30201  -0.29948  -0.29910
 Alpha  occ. eigenvalues --   -0.29811  -0.29394  -0.29151  -0.24299  -0.24216
 Alpha  occ. eigenvalues --   -0.21928  -0.21152
 Alpha virt. eigenvalues --   -0.09480  -0.08766  -0.02373  -0.01632   0.00034
 Alpha virt. eigenvalues --    0.00407   0.01344   0.01536   0.02181   0.02708
 Alpha virt. eigenvalues --    0.04401   0.04574   0.04681   0.05246   0.05598

 Mulliken charges:
               1
     1  Mg  11.998873
     2  C    6.012097
     3  C    5.972276
     4  C    5.986663
     5  C    6.027949
     6  N    6.991205
     7  C    5.971942
     8  C    6.013576
     9  C    5.987934
    10  C    6.041640
    11  C    5.998568
    12  C    6.001599
    13  C    6.004180
    14  H    0.988946
    15  N    6.990072
    16  C    6.056873
    17  C    6.008622
    18  C    6.021843
    19  C    6.034163
    20  C    5.992856
    21  C    6.012157
    22  O    8.020352
    23  C    5.996158
    24  N    7.014456
    25  C    6.024989
    26  C    5.991432
    27  C    6.008408
    28  C    5.961837
    29  C    5.998647
    30  C    6.002281
    31  C    6.000928
    32  N    7.002746
    33  C    5.951994
    34  C    5.980558
    35  C    5.988111
    36  C    5.972873
    37  C    6.002734
    38  C    5.983138
    39  O    7.969375
    40  C    5.997579
    41  C    5.994612
    42  O    7.995072
    43  O    7.996874
    44  C    6.003101
    45  H    1.008420
    46  H    1.007674
    47  H    0.993331
    48  H    0.997323
    49  H    1.003961
    50  H    1.003218
    51  H    1.013956
    52  H    0.995759
    53  H    0.987928
    54  H    1.008953
    55  H    1.003108
    56  H    0.996030
    57  H    1.018860
    58  H    1.016439
    59  H    1.018523
    60  H    1.011756
    61  H    1.012980
    62  H    1.008187
    63  H    1.002351
    64  H    0.999140
    65  H    0.999914
    66  H    0.996155
    67  H    1.010588
    68  H    1.004892
    69  H    0.991218
    70  H    1.003406
    71  H    0.995891
    72  H    0.996782
    73  H    0.986395
    74  H    0.977354
    75  H    0.981672
    76  H    0.989713
    77  H    0.993812
    78  H    0.996884
    79  H    0.995137
    80  Mg  11.999968
    81  C    6.000229
    82  C    5.992684
    83  C    5.996878
    84  C    6.007942
    85  N    6.997276
    86  C    5.992429
    87  C    6.002735
    88  C    5.997012
    89  C    6.009388
    90  C    5.999093
    91  C    6.000459
    92  C    6.000558
    93  H    0.997162
    94  N    6.997505
    95  C    6.011799
    96  C    6.004151
    97  C    6.003505
    98  C    6.009884
    99  C    5.999416
   100  C    6.002341
   101  O    8.007108
   102  C    5.999836
   103  N    7.003470
   104  C    6.006881
   105  C    5.997385
   106  C    6.001921
   107  C    5.989995
   108  C    6.000531
   109  C    6.000404
   110  C    5.999955
   111  N    7.000450
   112  C    5.989648
   113  C    5.994759
   114  C    5.997683
   115  C    5.994687
   116  C    6.000956
   117  C    5.995797
   118  O    7.991162
   119  C    6.001428
   120  C    5.998894
   121  O    7.998981
   122  O    7.999261
   123  C    6.001162
   124  H    1.001491
   125  H    1.002569
   126  H    0.998693
   127  H    0.999537
   128  H    1.000556
   129  H    1.001253
   130  H    1.002765
   131  H    0.998957
   132  H    0.997017
   133  H    1.001253
   134  H    1.000112
   135  H    0.999645
   136  H    1.005018
   137  H    1.003936
   138  H    1.005558
   139  H    1.002361
   140  H    1.001417
   141  H    1.003613
   142  H    1.000253
   143  H    0.999742
   144  H    1.003099
   145  H    1.000231
   146  H    0.999747
   147  H    1.001617
   148  H    0.997479
   149  H    0.998808
   150  H    0.998937
   151  H    1.000272
   152  H    0.996033
   153  H    0.994952
   154  H    0.995335
   155  H    0.997090
   156  H    0.998984
   157  H    0.998112
   158  H    0.998792
 Sum of Mulliken charges = 624.00000

 Dipole moment (field-independent basis, Debye):
    X=            -12.8929    Y=             -0.6524    Z=              1.5684  Tot=             13.0043
 Quadrupole moment (field-independent basis, Debye-Ang):
   XX=            197.0860   YY=             -1.3414   ZZ=             -1.5322
   XY=             34.3186   XZ=              6.1543   YZ=              2.4820

 Normal termination of Gaussian 16 at Wed Sep 22 05:48:50 2021.
