 Gaussian 16, Revision A.03,
 Gaussian 16:  ES64L-G16RevA.03 25-Dec-2016

 -----------------------------------
 #p cam-b3lyp/Def2SVP td=(nstates=5)
 -----------------------------------

 --------------------------------
 TDDFT excited states in gaussian
 --------------------------------
 Symbolic Z-matrix:
 Charge =  0 Multiplicity = 1

                         Standard orientation:
 ---------------------------------------------------------------------
 Center     Atomic      Atomic             Coordinates (Angstroms)
 Number     Number       Type             X           Y           Z
 ---------------------------------------------------------------------
      1         12           0       12.517376    0.063916    0.531252
      2          6           0        9.232334   -0.150006   -0.596554
      3          6           0       13.201053    2.354477   -1.843057
      4          6           0       15.775736   -0.138318    1.407421
      5          6           0       11.867051   -2.620346    2.595617
      6          7           0       11.297048    0.981818   -1.074865
      7          6           0        9.934162    0.892063   -1.201517
      8          6           0        9.451034    1.820810   -2.249719
      9          6           0       10.674528    2.610461   -2.729177
     10          6           0       11.840260    1.995427   -1.841065
     11          6           0       10.984214    2.657216   -4.217404
     12          6           0        8.228174    2.754265   -1.702567
     13          6           0        6.855686    2.624377   -2.403756
     14          1           0        6.005003    3.841619   -2.671263
     15          7           0       14.222962    1.060918   -0.037256
     16          6           0       14.317736    1.983038   -1.068738
     17          6           0       15.665376    2.399242   -1.211848
     18          6           0       16.450915    1.679615   -0.271068
     19          6           0       15.479979    0.834289    0.431312
     20          6           0       15.983051    3.576056   -2.215159
     21          6           0       17.971098    1.762627   -0.144489
     22          8           0       18.666207    1.078638    0.621928
     23          6           0       18.707678    2.770348   -0.912260
     24          7           0       13.766377   -1.342619    1.636427
     25          6           0       15.031606   -1.154505    1.949881
     26          6           0       15.572491   -2.327957    2.797572
     27          6           0       14.210836   -2.727954    3.490914
     28          6           0       13.176369   -2.170444    2.518332
     29          6           0       16.231708   -3.580115    2.109239
     30          6           0       13.970195   -2.194890    4.984019
     31          6           0       13.974519   -0.738855    5.212081
     32          7           0       10.883460   -1.262059    0.964405
     33          6           0       10.761118   -2.334422    1.869648
     34          6           0        9.438743   -2.868625    1.793973
     35          6           0        8.817602   -2.116375    0.816971
     36          6           0        9.716102   -1.073828    0.416472
     37          6           0        8.974773   -4.107715    2.387335
     38          6           0        7.582996   -1.841329    0.248186
     39          8           0        6.482722   -2.390404    0.366305
     40          6           0        7.775021   -0.628210   -0.771830
     41          6           0        7.617961   -1.225191   -2.131243
     42          8           0        8.224901   -2.106881   -2.702194
     43          8           0        6.573640   -0.590862   -2.667047
     44          6           0        6.213019   -0.985091   -4.068271
     45          1           0       13.239766    3.235589   -2.486909
     46          1           0       16.803813   -0.057953    1.764701
     47          1           0       11.658874   -3.426266    3.302151
     48          1           0        9.077151    1.173254   -3.041832
     49          1           0       10.577667    3.644549   -2.399190
     50          1           0       11.688941    1.826510   -4.216467
     51          1           0       11.358549    3.609376   -4.593810
     52          1           0       10.204532    2.417392   -4.939859
     53          1           0        8.548588    3.795461   -1.724299
     54          1           0        7.926044    2.524317   -0.680523
     55          1           0        6.230357    2.039294   -1.728788
     56          1           0        6.912881    2.016797   -3.305925
     57          1           0       16.780123    3.251650   -2.883874
     58          1           0       16.394845    4.264730   -1.477323
     59          1           0       15.197542    3.903308   -2.896395
     60          1           0       18.526464    2.658449   -1.980352
     61          1           0       19.752020    2.462107   -0.868928
     62          1           0       18.607371    3.794931   -0.553190
     63          1           0       16.148545   -1.911957    3.624255
     64          1           0       14.259606   -3.815681    3.535674
     65          1           0       15.752429   -3.923937    1.193414
     66          1           0       16.193275   -4.326165    2.903800
     67          1           0       17.270296   -3.374569    1.848685
     68          1           0       14.711597   -2.558056    5.696153
     69          1           0       12.942924   -2.369912    5.303549
     70          1           0       12.969998   -0.441260    4.914570
     71          1           0       14.664616   -0.111989    4.646541
     72          1           0       14.091947   -0.372776    6.231502
     73          1           0        9.308048   -4.868574    1.680550
     74          1           0        7.896053   -4.191254    2.516383
     75          1           0        9.327446   -4.258648    3.408189
     76          1           0        7.117770    0.217152   -0.567867
     77          1           0        6.552716   -0.147626   -4.678076
     78          1           0        5.140237   -1.164973   -4.134377
     79          1           0        6.708224   -1.862160   -4.485900
     80         12           0      -12.172789   -0.251141   -0.526066
     81          6           0      -11.475537    2.688953    1.035182
     82          6           0       -8.966053   -0.128980   -2.012812
     83          6           0      -12.436199   -3.523500   -1.139637
     84          6           0      -15.181495   -0.559241    1.447606
     85          7           0      -10.496141    1.133973   -0.482653
     86          6           0      -10.366687    2.234574    0.181154
     87          6           0       -9.118315    3.080598   -0.255817
     88          6           0       -8.489840    2.272594   -1.454283
     89          6           0       -9.376272    0.981839   -1.380447
     90          6           0       -8.351460    3.021038   -2.780752
     91          6           0       -8.108327    3.390648    1.001443
     92          6           0       -8.144744    2.470361    2.210785
     93          1           0       -6.970842    2.425078    3.188932
     94          7           0      -10.864589   -1.627539   -1.443919
     95          6           0       -9.650550   -1.390157   -2.042374
     96          6           0       -9.123097   -2.590245   -2.529173
     97          6           0      -10.089103   -3.635591   -2.261720
     98          6           0      -11.198838   -2.957520   -1.541333
     99          6           0       -7.847824   -2.603421   -3.351923
    100          6           0       -9.900567   -5.110157   -2.661629
    101          8           0       -8.842909   -5.422703   -3.253298
    102          6           0      -10.834033   -6.170636   -2.413698
    103          7           0      -13.571435   -1.909492    0.220305
    104          6           0      -13.500680   -3.063177   -0.380740
    105          6           0      -14.711887   -3.987337   -0.068202
    106          6           0      -15.626756   -3.025041    0.720454
    107          6           0      -14.791993   -1.685452    0.829625
    108          6           0      -15.398791   -4.532540   -1.268046
    109          6           0      -16.079752   -3.618796    2.136685
    110          6           0      -17.611731   -3.996109    2.277338
    111          7           0      -13.246421    0.835664    0.858101
    112          6           0      -14.446084    0.643069    1.554599
    113          6           0      -14.719571    1.861187    2.379082
    114          6           0      -13.558872    2.630616    2.215813
    115          6           0      -12.673501    1.966358    1.315941
    116          6           0      -15.865593    2.165266    3.214718
    117          6           0      -12.978399    3.805417    2.681813
    118          8           0      -13.354775    4.702657    3.450148
    119          6           0      -11.654417    3.952741    1.879407
    120          6           0      -11.691719    5.308402    1.134643
    121          8           0      -10.860671    6.199713    1.172970
    122          8           0      -12.821879    5.444425    0.357766
    123          6           0      -12.997497    6.705519   -0.372334
    124          1           0       -7.944781   -0.023313   -2.384264
    125          1           0      -12.654772   -4.548204   -1.446644
    126          1           0      -16.173052   -0.591383    1.903694
    127          1           0       -9.513505    3.979466   -0.729814
    128          1           0       -7.494557    1.894836   -1.218112
    129          1           0       -9.002282    2.566365   -3.527360
    130          1           0       -7.336401    2.974051   -3.176845
    131          1           0       -8.540017    4.093893   -2.740616
    132          1           0       -8.363130    4.427082    1.224013
    133          1           0       -7.044816    3.329920    0.769450
    134          1           0       -8.279665    1.486389    1.762435
    135          1           0       -9.077284    2.710644    2.721721
    136          1           0       -7.853865   -3.028543   -4.355921
    137          1           0       -7.054618   -3.053614   -2.754595
    138          1           0       -7.508808   -1.577229   -3.492372
    139          1           0      -11.821859   -6.096122   -2.868048
    140          1           0      -11.115709   -6.188658   -1.361355
    141          1           0      -10.421976   -7.164997   -2.582770
    142          1           0      -14.540926   -4.895169    0.510196
    143          1           0      -16.502253   -2.703913    0.155982
    144          1           0      -15.196546   -5.582662   -1.478278
    145          1           0      -14.994307   -4.087334   -2.177753
    146          1           0      -16.475553   -4.386658   -1.183572
    147          1           0      -15.935182   -2.840953    2.887687
    148          1           0      -15.595761   -4.556080    2.407833
    149          1           0      -17.704957   -4.977427    2.740857
    150          1           0      -18.014488   -4.133960    1.273819
    151          1           0      -18.020438   -3.250030    2.959076
    152          1           0      -16.697630    1.660287    2.723436
    153          1           0      -16.053087    3.239436    3.234504
    154          1           0      -15.598055    1.851163    4.223176
    155          1           0      -10.796271    4.192150    2.506972
    156          1           0      -14.061619    6.844028   -0.564477
    157          1           0      -12.546914    6.795316   -1.360640
    158          1           0      -12.565748    7.570313    0.132333
 ---------------------------------------------------------------------

 SCF Done:  E(RCAM-B3LYP) =  -4069.75536361     A.U. after   19 cycles

 Excitation energies and oscillator strengths:

 Excited State   1:      Singlet-A      1.7029 eV  728.06 nm  f=0.4251  <S**2>=0.000
     309 -> 315       -0.10256
     310 -> 316       -0.13418
     311 -> 313       -0.44106
     312 -> 314        0.52707
 This state for optimization and/or second-order correction.
 Total Energy, E(TD-HF/TD-DFT) =  -4069.69278158
 Copying the excited state density for this state as the 1-particle RhoCI density.

 Excited State   2:      Singlet-A      1.7074 eV  726.17 nm  f=0.3844  <S**2>=0.000
     309 -> 315        0.12381
     310 -> 316       -0.11251
     311 -> 313        0.52904
     312 -> 314        0.43917

 Excited State   3:      Singlet-A      2.1770 eV  569.52 nm  f=0.1418  <S**2>=0.000
     310 -> 314        0.65142
     312 -> 316        0.26308

 Excited State   4:      Singlet-A      2.2508 eV  550.84 nm  f=0.1189  <S**2>=0.000
     309 -> 313        0.64215
     311 -> 315       -0.27240

 Excited State   5:      Singlet-A      2.8691 eV  432.13 nm  f=0.0000  <S**2>=0.000
     312 -> 313        0.70707

 The electronic state is 1-A.
 Alpha  occ. eigenvalues --  -46.90273 -46.89315 -19.25010 -19.24873 -19.20087
 Alpha  occ. eigenvalues --  -19.19039 -19.18932 -19.18647 -19.18177 -19.17369
 Alpha  occ. eigenvalues --  -14.43155 -14.41973 -14.41886 -14.41803 -14.40499
 Alpha  occ. eigenvalues --  -14.39779 -14.39677 -14.38959 -10.39694 -10.38579
 Alpha  occ. eigenvalues --  -10.35053 -10.34680 -10.34206 -10.34122 -10.32958
 Alpha  occ. eigenvalues --  -10.31729 -10.31664 -10.31491 -10.31397 -10.31227
 Alpha  occ. eigenvalues --  -10.31181 -10.30714 -10.30699 -10.30606 -10.30601
 Alpha  occ. eigenvalues --  -10.30336 -10.30257 -10.30078 -10.29763 -10.29594
 Alpha  occ. eigenvalues --  -10.29260 -10.29222 -10.29080 -10.28986 -10.28959
 Alpha  occ. eigenvalues --  -10.28770 -10.28645 -10.28527 -10.28516 -10.28434
 Alpha  occ. eigenvalues --  -10.28363 -10.28263 -10.28252 -10.28127 -10.27854
 Alpha  occ. eigenvalues --  -10.27837 -10.27774 -10.27687 -10.27523 -10.27503
 Alpha  occ. eigenvalues --  -10.27481 -10.27457 -10.27448 -10.27142 -10.27131
 Alpha  occ. eigenvalues --  -10.27054 -10.27023 -10.26994 -10.26874 -10.26785
 Alpha  occ. eigenvalues --  -10.26662 -10.26474 -10.26441 -10.26370 -10.26353
 Alpha  occ. eigenvalues --  -10.26243 -10.26127 -10.26000 -10.25974 -10.25780
 Alpha  occ. eigenvalues --  -10.25598 -10.25572 -10.25565 -10.24850 -10.24707
 Alpha  occ. eigenvalues --  -10.24629  -3.18680  -3.17723  -1.93558  -1.93169
 Alpha  occ. eigenvalues --   -1.92947  -1.92626  -1.92158  -1.92041  -1.16972
 Alpha  occ. eigenvalues --   -1.16116  -1.09105  -1.09019  -1.08527  -1.07562
 Alpha  occ. eigenvalues --   -1.07328  -1.07324  -1.05397  -1.04994  -1.04470
 Alpha  occ. eigenvalues --   -1.04231  -1.03601  -1.03359  -1.02604  -1.02207
 Alpha  occ. eigenvalues --   -0.92961  -0.92185  -0.89631  -0.89395  -0.89195
 Alpha  occ. eigenvalues --   -0.88948  -0.88725  -0.88343  -0.88286  -0.87939
 Alpha  occ. eigenvalues --   -0.87757  -0.87574  -0.86840  -0.85250  -0.84613
 Alpha  occ. eigenvalues --   -0.84604  -0.84263  -0.84158  -0.83047  -0.82908
 Alpha  occ. eigenvalues --   -0.82467  -0.81987  -0.81536  -0.81427  -0.80715
 Alpha  occ. eigenvalues --   -0.80235  -0.78726  -0.78443  -0.77642  -0.77362
 Alpha  occ. eigenvalues --   -0.77357  -0.76926  -0.76322  -0.75923  -0.75342
 Alpha  occ. eigenvalues --   -0.75236  -0.73454  -0.73358  -0.71915  -0.71653
 Alpha  occ. eigenvalues --   -0.69527  -0.69364  -0.69067  -0.68889  -0.68364
 Alpha  occ. eigenvalues --   -0.67752  -0.67189  -0.66797  -0.66000  -0.65735
 Alpha  occ. eigenvalues --   -0.65614  -0.65365  -0.64828  -0.64792  -0.64505
 Alpha  occ. eigenvalues --   -0.63943  -0.63311  -0.62031  -0.60863  -0.60414
 Alpha  occ. eigenvalues --   -0.59916  -0.59898  -0.59282  -0.58906  -0.58593
 Alpha  occ. eigenvalues --   -0.58482  -0.58233  -0.57981  -0.57898  -0.57219
 Alpha  occ. eigenvalues --   -0.56413  -0.56287  -0.55748  -0.55575  -0.55569
 Alpha  occ. eigenvalues --   -0.55459  -0.55030  -0.54806  -0.54774  -0.54676
 Alpha  occ. eigenvalues --   -0.54514  -0.53835  -0.53475  -0.53365  -0.53231
 Alpha  occ. eigenvalues --   -0.53220  -0.52967  -0.52839  -0.52665  -0.52558
 Alpha  occ. eigenvalues --   -0.52189  -0.52162  -0.51879  -0.51444  -0.51217
 Alpha  occ. eigenvalues --   -0.51139  -0.51066  -0.50892  -0.50646  -0.50349
 Alpha  occ. eigenvalues --   -0.50228  -0.49863  -0.49774  -0.49702  -0.49524
 Alpha  occ. eigenvalues --   -0.49432  -0.49190  -0.49177  -0.48962  -0.48958
 Alpha  occ. eigenvalues --   -0.48781  -0.48505  -0.48480  -0.48330  -0.48252
 Alpha  occ. eigenvalues --   -0.48051  -0.47616  -0.47370  -0.47347  -0.47146
 Alpha  occ. eigenvalues --   -0.47087  -0.46811  -0.46798  -0.46716  -0.46643
 Alpha  occ. eigenvalues --   -0.46215  -0.46135  -0.45969  -0.45843  -0.45787
 Alpha  occ. eigenvalues --   -0.45682  -0.45226  -0.45206  -0.44966  -0.44831
 Alpha  occ. eigenvalues --   -0.44608  -0.44558  -0.44443  -0.44413  -0.44089
 Alpha  occ. eigenvalues --   -0.44031  -0.43777  -0.43699  -0.43545  -0.43338
 Alpha  occ. eigenvalues --   -0.43167  -0.42917  -0.42645  -0.42625  -0.42478
 Alpha  occ. eigenvalues --   -0.42203  -0.42197  -0.42088  -0.42041  -0.41965
 Alpha  occ. eigenvalues --   -0.41806  -0.41584  -0.41445  -0.41046  -0.40945
 Alpha  occ. eigenvalues --   -0.40909  -0.40811  -0.40689  -0.40673  -0.40137
 Alpha  occ. eigenvalues --   -0.39932  -0.39794  -0.39501  -0.39030  -0.38915
 Alpha  occ. eigenvalues --   -0.38669  -0.38040  -0.38004  -0.37991  -0.37800
 Alpha  occ. eigenvalues --   -0.37668  -0.36989  -0.36810  -0.36486  -0.36359
 Alpha  occ. eigenvalues --   -0.36341  -0.36098  -0.34777  -0.34451  -0.34272
 Alpha  occ. eigenvalues --   -0.34256  -0.33994  -0.33454  -0.31565  -0.31453
 Alpha  occ. eigenvalues --   -0.31038  -0.31017  -0.30875  -0.30505  -0.30424
 Alpha  occ. eigenvalues --   -0.30115  -0.29958  -0.28968  -0.24892  -0.23991
 Alpha  occ. eigenvalues --   -0.21618  -0.21415
 Alpha virt. eigenvalues --   -0.09478  -0.08953  -0.01849  -0.01593   0.00018
 Alpha virt. eigenvalues --    0.00307   0.00667   0.02041   0.02266   0.02489
 Alpha virt. eigenvalues --    0.05055   0.05308   0.05366   0.05493   0.06122

 Mulliken charges:
               1
     1  Mg   0.804327
     2  C   -0.001813
     3  C   -0.056908
     4  C   -0.056511
     5  C   -0.102507
     6  N   -0.309892
     7  C   -0.028092
     8  C   -0.016371
     9  C   -0.002638
    10  C   -0.048536
    11  C    0.052484
    12  C    0.041295
    13  C   -0.079787
    14  H    0.019773
    15  N   -0.378178
    16  C    0.181685
    17  C   -0.165992
    18  C   -0.026685
    19  C    0.105794
    20  C    0.128350
    21  C    0.003888
    22  O   -0.216884
    23  C    0.054157
    24  N   -0.227522
    25  C    0.004211
    26  C    0.006928
    27  C   -0.066285
    28  C    0.078686
    29  C    0.091299
    30  C    0.063818
    31  C   -0.038706
    32  N   -0.322750
    33  C    0.102258
    34  C   -0.118778
    35  C    0.060337
    36  C    0.066519
    37  C    0.105434
    38  C    0.014183
    39  O   -0.191033
    40  C   -0.025011
    41  C    0.199710
    42  O   -0.213000
    43  O   -0.318152
    44  C    0.160208
    45  H   -0.030979
    46  H   -0.012947
    47  H   -0.027815
    48  H    0.022333
    49  H    0.007290
    50  H    0.027522
    51  H    0.019829
    52  H    0.018063
    53  H    0.017737
    54  H    0.019292
    55  H    0.036344
    56  H    0.017781
    57  H    0.016196
    58  H    0.039205
    59  H    0.030059
    60  H    0.018157
    61  H    0.019340
    62  H    0.052885
    63  H   -0.008499
    64  H   -0.003704
    65  H    0.027783
    66  H    0.020233
    67  H    0.028505
    68  H    0.010782
    69  H    0.003940
    70  H    0.002614
    71  H    0.016285
    72  H    0.015327
    73  H    0.051180
    74  H    0.031693
    75  H    0.014516
    76  H    0.028962
    77  H    0.029975
    78  H    0.050462
    79  H    0.056340
    80  Mg   0.825694
    81  C    0.014921
    82  C   -0.064091
    83  C   -0.034097
    84  C   -0.085244
    85  N   -0.280180
    86  C   -0.033699
    87  C   -0.003319
    88  C   -0.057102
    89  C    0.024143
    90  C    0.073129
    91  C    0.009578
    92  C   -0.045486
    93  H    0.045001
    94  N   -0.376628
    95  C    0.139147
    96  C   -0.133761
    97  C   -0.051275
    98  C    0.179064
    99  C    0.139996
   100  C    0.018777
   101  O   -0.238484
   102  C    0.063153
   103  N   -0.229394
   104  C   -0.016329
   105  C   -0.028415
   106  C    0.002417
   107  C    0.020927
   108  C    0.047852
   109  C    0.001383
   110  C   -0.010176
   111  N   -0.376958
   112  C    0.118746
   113  C   -0.164186
   114  C    0.035695
   115  C    0.123877
   116  C    0.127123
   117  C    0.044545
   118  O   -0.184538
   119  C   -0.043080
   120  C    0.174884
   121  O   -0.212694
   122  O   -0.339352
   123  C    0.178647
   124  H   -0.011262
   125  H   -0.063573
   126  H   -0.026613
   127  H    0.025526
   128  H    0.012714
   129  H    0.017671
   130  H    0.012587
   131  H    0.020051
   132  H    0.032614
   133  H    0.017003
   134  H    0.030329
   135  H    0.016020
   136  H    0.036905
   137  H    0.023248
   138  H   -0.021650
   139  H    0.042030
   140  H    0.019946
   141  H    0.027845
   142  H    0.019271
   143  H    0.008037
   144  H    0.006291
   145  H    0.010238
   146  H    0.018236
   147  H    0.012633
   148  H    0.017266
   149  H    0.010696
   150  H    0.016155
   151  H    0.026457
   152  H    0.022222
   153  H    0.042449
   154  H    0.050553
   155  H    0.029770
   156  H    0.033861
   157  H    0.019634
   158  H    0.044626
 Sum of Mulliken charges =  -0.00000

 Dipole moment (field-independent basis, Debye):
    X=             -3.2211    Y=              1.8784    Z=             -2.6933  Tot=              4.5998
 Quadrupole moment (field-independent basis, Debye-Ang):
   XX=           -398.7218   YY=           -522.2772   ZZ=           -501.8770
   XY=             77.0950   XZ=             23.3552   YZ=            -56.4128

 Normal termination of Gaussian 16 at Tue Sep 14 21:43:30 2021.
