 Gaussian 16, Revision A.03,
 Gaussian 16:  ES64L-G16RevA.03 25-Dec-2016

 -----------------------------------
 #p cam-b3lyp/Def2SVP td=(nstates=5)
 -----------------------------------

 --------------------------------
 TDDFT excited states in gaussian
 --------------------------------
 Symbolic Z-matrix:
 Charge =  0 Multiplicity = 1

                         Standard orientation:
 ---------------------------------------------------------------------
 Center     Atomic      Atomic             Coordinates (Angstroms)
 Number     Number       Type             X           Y           Z
 ---------------------------------------------------------------------
      1         12           0      -26.854238   -0.634751   -0.186343
      2          6           0      -25.191949    2.253005   -1.270366
      3          6           0      -28.271805    1.289365    2.425988
      4          6           0      -28.200409   -3.477364    1.093055
      5          6           0      -24.851569   -2.496403   -2.294563
      6          7           0      -26.845665    1.516235    0.347606
      7          6           0      -26.210097    2.519915   -0.389060
      8          6           0      -26.813570    3.913773    0.012993
      9          6           0      -27.689358    3.561383    1.220947
     10          6           0      -27.565681    2.006368    1.385515
     11          6           0      -27.197103    4.316238    2.485112
     12          6           0      -27.533373    4.499032   -1.195872
     13          6           0      -27.631168    6.011810   -1.305996
     14          1           0      -27.289054    6.859520   -0.059908
     15          7           0      -28.078495   -1.084697    1.502499
     16          6           0      -28.524696   -0.160242    2.466013
     17          6           0      -29.298026   -0.830038    3.496904
     18          6           0      -29.379561   -2.231883    3.133843
     19          6           0      -28.517955   -2.314684    1.877342
     20          6           0      -30.045234   -0.106870    4.624711
     21          6           0      -30.111557   -3.386905    3.789848
     22          8           0      -30.062159   -4.507361    3.300113
     23          6           0      -31.049755   -3.094786    4.897193
     24          7           0      -26.589356   -2.704163   -0.626251
     25          6           0      -27.333204   -3.668613   -0.016386
     26          6           0      -27.089403   -5.034353   -0.710176
     27          6           0      -26.051817   -4.722961   -1.857522
     28          6           0      -25.869609   -3.192400   -1.688312
     29          6           0      -26.595177   -6.073610    0.311979
     30          6           0      -26.550181   -5.038069   -3.292950
     31          6           0      -25.937027   -6.355142   -3.758433
     32          7           0      -25.234464   -0.307120   -1.469556
     33          6           0      -24.457093   -1.129733   -2.214529
     34          6           0      -23.334112   -0.318032   -2.743510
     35          6           0      -23.623762    0.993061   -2.502486
     36          6           0      -24.776511    0.936275   -1.678142
     37          6           0      -22.230054   -0.941196   -3.581040
     38          6           0      -23.240716    2.393702   -2.724805
     39          8           0      -22.277442    2.845631   -3.332016
     40          6           0      -24.294569    3.216313   -2.008930
     41          6           0      -23.547977    4.168744   -1.171912
     42          8           0      -22.975550    4.002769   -0.086317
     43          8           0      -23.504281    5.369064   -1.851157
     44          6           0      -22.751393    6.439052   -1.233570
     45          1           0      -28.753185    1.930632    3.166970
     46          1           0      -28.755917   -4.323034    1.503879
     47          1           0      -24.202258   -3.163540   -2.865465
     48          1           0      -25.903237    4.448099    0.287500
     49          1           0      -28.664882    4.003428    1.018573
     50          1           0      -26.748723    3.684520    3.252104
     51          1           0      -28.095398    4.623086    3.020097
     52          1           0      -26.470337    5.092067    2.245063
     53          1           0      -28.506065    4.006224   -1.189972
     54          1           0      -27.073197    4.106547   -2.101912
     55          1           0      -28.627188    6.269746   -1.663331
     56          1           0      -26.932536    6.207462   -2.120227
     57          1           0      -29.822725    0.958289    4.690931
     58          1           0      -29.787716   -0.553892    5.585826
     59          1           0      -31.110818   -0.306133    4.517316
     60          1           0      -31.874467   -2.499479    4.504534
     61          1           0      -30.518468   -2.727694    5.775271
     62          1           0      -31.551213   -3.995619    5.251081
     63          1           0      -28.051975   -5.392831   -1.074219
     64          1           0      -25.136325   -5.233762   -1.556247
     65          1           0      -25.638283   -6.549827    0.100238
     66          1           0      -27.376561   -6.822450    0.184231
     67          1           0      -26.440654   -5.683646    1.317645
     68          1           0      -26.091147   -4.356356   -4.009172
     69          1           0      -27.635768   -5.084512   -3.381292
     70          1           0      -26.785721   -6.900285   -4.171232
     71          1           0      -25.611447   -7.008499   -2.949337
     72          1           0      -25.140966   -6.266204   -4.498200
     73          1           0      -22.193610   -2.030823   -3.568381
     74          1           0      -21.240113   -0.579497   -3.305736
     75          1           0      -22.459414   -0.761224   -4.631919
     76          1           0      -24.893049    3.718649   -2.768223
     77          1           0      -21.767171    6.044434   -0.979913
     78          1           0      -23.213060    6.829440   -0.326354
     79          1           0      -22.466929    7.086199   -2.062563
     80         12           0       26.869156   -0.713420    0.206640
     81          6           0       25.452937    2.366196    1.267068
     82          6           0       27.945878    1.051473   -2.663524
     83          6           0       27.902091   -3.536565   -1.061127
     84          6           0       25.445499   -2.260721    2.977136
     85          7           0       26.705338    1.505111   -0.626929
     86          6           0       26.158092    2.544825    0.084133
     87          6           0       26.360912    3.896010   -0.580315
     88          6           0       27.062475    3.406522   -1.919141
     89          6           0       27.295550    1.900115   -1.726549
     90          6           0       26.266268    3.843726   -3.145159
     91          6           0       27.258260    4.804137    0.288936
     92          6           0       26.956508    6.350822    0.324060
     93          1           0       26.125636    6.957449   -0.831131
     94          7           0       27.870411   -1.183200   -1.582375
     95          6           0       28.140183   -0.328303   -2.651431
     96          6           0       28.831819   -1.104597   -3.692738
     97          6           0       28.911331   -2.440777   -3.180878
     98          6           0       28.241497   -2.388846   -1.867240
     99          6           0       29.220130   -0.553793   -4.959355
    100          6           0       29.526318   -3.673610   -3.835607
    101          8           0       29.431978   -4.792852   -3.307264
    102          6           0       30.399011   -3.543415   -5.021682
    103          7           0       26.607313   -2.647205    0.815935
    104          6           0       27.223891   -3.638930    0.167700
    105          6           0       26.917380   -5.020549    0.831821
    106          6           0       26.311311   -4.577117    2.201121
    107          6           0       26.078294   -3.109364    2.024747
    108          6           0       26.026875   -5.975332   -0.042163
    109          6           0       27.443937   -4.853895    3.262142
    110          6           0       28.446085   -3.717583    3.664464
    111          7           0       25.784521   -0.112053    1.857529
    112          6           0       25.258261   -0.885585    2.907959
    113          6           0       24.468693    0.007519    3.791883
    114          6           0       24.488027    1.237850    3.145407
    115          6           0       25.287890    1.183017    2.023618
    116          6           0       23.642329   -0.549850    4.848711
    117          6           0       23.871811    2.560949    3.206507
    118          8           0       23.053868    2.974130    4.020724
    119          6           0       24.456053    3.368967    1.954473
    120          6           0       23.367059    3.844930    1.067186
    121          8           0       22.937797    3.267287    0.072609
    122          8           0       22.905832    5.089806    1.535413
    123          6           0       21.801735    5.774065    0.901315
    124          1           0       28.519783    1.553213   -3.445915
    125          1           0       28.239506   -4.512348   -1.417788
    126          1           0       25.088967   -2.848869    3.824978
    127          1           0       25.420976    4.410300   -0.782297
    128          1           0       27.979875    3.988530   -2.002797
    129          1           0       26.829648    4.421331   -3.877174
    130          1           0       25.356923    4.412246   -2.950132
    131          1           0       26.008372    2.931278   -3.684414
    132          1           0       28.306423    4.692826    0.011592
    133          1           0       27.118245    4.339445    1.265545
    134          1           0       27.884268    6.918415    0.260148
    135          1           0       26.644720    6.553517    1.348648
    136          1           0       30.277693   -0.788758   -5.081311
    137          1           0       28.859438    0.468656   -5.067382
    138          1           0       28.556856   -1.112578   -5.620357
    139          1           0       29.857655   -3.299714   -5.936316
    140          1           0       30.889485   -4.497245   -5.215023
    141          1           0       31.045462   -2.681097   -4.861123
    142          1           0       27.938051   -5.401709    0.865032
    143          1           0       25.440749   -5.174636    2.472835
    144          1           0       26.657615   -6.674953   -0.590773
    145          1           0       25.389639   -5.335689   -0.651955
    146          1           0       25.397346   -6.520003    0.661292
    147          1           0       27.916189   -5.811292    3.041065
    148          1           0       26.890717   -4.888231    4.201160
    149          1           0       29.408633   -4.228062    3.677567
    150          1           0       28.261711   -3.319486    4.663108
    151          1           0       28.535986   -2.886476    2.965816
    152          1           0       23.059334   -1.371557    4.434718
    153          1           0       22.951558    0.239248    5.147523
    154          1           0       24.229238   -0.735403    5.747863
    155          1           0       24.942144    4.227659    2.418613
    156          1           0       20.844180    5.596091    1.390111
    157          1           0       21.849317    5.685100   -0.184112
    158          1           0       22.117144    6.811396    1.016983
 ---------------------------------------------------------------------

 SCF Done:  E(RCAM-B3LYP) =  -4069.80456829     A.U. after   19 cycles

 Excitation energies and oscillator strengths:

 Excited State   1:      Singlet-A      1.6782 eV  738.80 nm  f=0.3955  <S**2>=0.000
     310 -> 316        0.17298
     311 -> 313        0.68712
     310 <- 316        0.10455
 This state for optimization and/or second-order correction.
 Total Energy, E(TD-HF/TD-DFT) =  -4069.74289645
 Copying the excited state density for this state as the 1-particle RhoCI density.

 Excited State   2:      Singlet-A      1.7491 eV  708.84 nm  f=0.3734  <S**2>=0.000
     309 -> 315        0.18984
     312 -> 314        0.68132
     309 <- 315        0.10804

 Excited State   3:      Singlet-A      2.1968 eV  564.39 nm  f=0.1206  <S**2>=0.000
     310 -> 313        0.64517
     311 -> 316       -0.27390

 Excited State   4:      Singlet-A      2.2728 eV  545.50 nm  f=0.0724  <S**2>=0.000
     309 -> 314        0.62313
     312 -> 315       -0.32197

 Excited State   5:      Singlet-A      3.1178 eV  397.66 nm  f=0.0000  <S**2>=0.000
     312 -> 313        0.70711

 The electronic state is 1-A.
 Alpha  occ. eigenvalues --  -46.89099 -46.88482 -19.24436 -19.23955 -19.19858
 Alpha  occ. eigenvalues --  -19.19774 -19.19295 -19.19278 -19.19188 -19.18713
 Alpha  occ. eigenvalues --  -14.42171 -14.42101 -14.41722 -14.41261 -14.40101
 Alpha  occ. eigenvalues --  -14.39661 -14.39183 -14.38894 -10.39457 -10.39342
 Alpha  occ. eigenvalues --  -10.35462 -10.35384 -10.35351 -10.35263 -10.31974
 Alpha  occ. eigenvalues --  -10.31187 -10.31159 -10.31137 -10.30984 -10.30973
 Alpha  occ. eigenvalues --  -10.30949 -10.30746 -10.30631 -10.30428 -10.30365
 Alpha  occ. eigenvalues --  -10.30291 -10.30191 -10.30066 -10.29519 -10.29327
 Alpha  occ. eigenvalues --  -10.29211 -10.29164 -10.29038 -10.29005 -10.28847
 Alpha  occ. eigenvalues --  -10.28574 -10.28385 -10.28212 -10.28152 -10.28027
 Alpha  occ. eigenvalues --  -10.28017 -10.27758 -10.27751 -10.27650 -10.27596
 Alpha  occ. eigenvalues --  -10.27578 -10.27559 -10.27545 -10.27531 -10.27423
 Alpha  occ. eigenvalues --  -10.27380 -10.27369 -10.27258 -10.27216 -10.27117
 Alpha  occ. eigenvalues --  -10.27018 -10.26787 -10.26777 -10.26508 -10.26484
 Alpha  occ. eigenvalues --  -10.26477 -10.26406 -10.26347 -10.26273 -10.26209
 Alpha  occ. eigenvalues --  -10.25728 -10.25509 -10.25487 -10.25315 -10.25287
 Alpha  occ. eigenvalues --  -10.25256 -10.25242 -10.25070 -10.24989 -10.24755
 Alpha  occ. eigenvalues --  -10.24672  -3.17496  -3.17025  -1.92410  -1.91932
 Alpha  occ. eigenvalues --   -1.91910  -1.91828  -1.91492  -1.91313  -1.15773
 Alpha  occ. eigenvalues --   -1.14629  -1.10440  -1.09991  -1.09634  -1.09181
 Alpha  occ. eigenvalues --   -1.07221  -1.06845  -1.04735  -1.04302  -1.04017
 Alpha  occ. eigenvalues --   -1.03069  -1.02769  -1.02619  -1.01608  -1.01350
 Alpha  occ. eigenvalues --   -0.93351  -0.91955  -0.89858  -0.89250  -0.88763
 Alpha  occ. eigenvalues --   -0.88633  -0.88361  -0.87947  -0.87309  -0.87089
 Alpha  occ. eigenvalues --   -0.86836  -0.86711  -0.86159  -0.85579  -0.84291
 Alpha  occ. eigenvalues --   -0.84107  -0.83864  -0.83274  -0.82709  -0.82619
 Alpha  occ. eigenvalues --   -0.82365  -0.81968  -0.80876  -0.80806  -0.80413
 Alpha  occ. eigenvalues --   -0.80002  -0.78920  -0.78079  -0.77242  -0.77079
 Alpha  occ. eigenvalues --   -0.76829  -0.76795  -0.75939  -0.75760  -0.74753
 Alpha  occ. eigenvalues --   -0.74518  -0.72517  -0.72100  -0.71276  -0.70988
 Alpha  occ. eigenvalues --   -0.69210  -0.69043  -0.68884  -0.68471  -0.67906
 Alpha  occ. eigenvalues --   -0.67813  -0.67053  -0.66680  -0.65406  -0.64976
 Alpha  occ. eigenvalues --   -0.64899  -0.64653  -0.64615  -0.64433  -0.64157
 Alpha  occ. eigenvalues --   -0.63877  -0.62108  -0.61505  -0.60302  -0.60105
 Alpha  occ. eigenvalues --   -0.59628  -0.59335  -0.59074  -0.59016  -0.58775
 Alpha  occ. eigenvalues --   -0.58332  -0.58034  -0.57846  -0.57620  -0.57137
 Alpha  occ. eigenvalues --   -0.56250  -0.55868  -0.55747  -0.55462  -0.55301
 Alpha  occ. eigenvalues --   -0.55069  -0.54755  -0.54249  -0.53929  -0.53821
 Alpha  occ. eigenvalues --   -0.53613  -0.53581  -0.53397  -0.53299  -0.53296
 Alpha  occ. eigenvalues --   -0.53123  -0.52890  -0.52799  -0.52738  -0.52299
 Alpha  occ. eigenvalues --   -0.51870  -0.51781  -0.51703  -0.51470  -0.51357
 Alpha  occ. eigenvalues --   -0.51277  -0.50753  -0.50735  -0.50578  -0.50314
 Alpha  occ. eigenvalues --   -0.49876  -0.49809  -0.49755  -0.49600  -0.49530
 Alpha  occ. eigenvalues --   -0.49287  -0.49232  -0.49005  -0.48996  -0.48878
 Alpha  occ. eigenvalues --   -0.48627  -0.48496  -0.48357  -0.48146  -0.48051
 Alpha  occ. eigenvalues --   -0.47842  -0.47565  -0.47379  -0.47332  -0.47112
 Alpha  occ. eigenvalues --   -0.46920  -0.46713  -0.46649  -0.46378  -0.46075
 Alpha  occ. eigenvalues --   -0.46014  -0.45963  -0.45867  -0.45362  -0.45214
 Alpha  occ. eigenvalues --   -0.44988  -0.44970  -0.44715  -0.44584  -0.44431
 Alpha  occ. eigenvalues --   -0.44372  -0.44224  -0.44203  -0.44200  -0.44019
 Alpha  occ. eigenvalues --   -0.43901  -0.43634  -0.43575  -0.43389  -0.43380
 Alpha  occ. eigenvalues --   -0.43286  -0.43158  -0.43019  -0.42927  -0.42784
 Alpha  occ. eigenvalues --   -0.42601  -0.42524  -0.42343  -0.41921  -0.41860
 Alpha  occ. eigenvalues --   -0.41664  -0.41510  -0.41273  -0.41225  -0.41050
 Alpha  occ. eigenvalues --   -0.40991  -0.40633  -0.40417  -0.40315  -0.39957
 Alpha  occ. eigenvalues --   -0.39824  -0.39342  -0.38910  -0.38548  -0.38447
 Alpha  occ. eigenvalues --   -0.38004  -0.37942  -0.37739  -0.37719  -0.37394
 Alpha  occ. eigenvalues --   -0.37082  -0.36605  -0.36429  -0.36289  -0.36090
 Alpha  occ. eigenvalues --   -0.35827  -0.35652  -0.34345  -0.34145  -0.34069
 Alpha  occ. eigenvalues --   -0.34006  -0.33264  -0.32600  -0.31558  -0.31439
 Alpha  occ. eigenvalues --   -0.31256  -0.31167  -0.30931  -0.30793  -0.30257
 Alpha  occ. eigenvalues --   -0.30125  -0.29966  -0.29313  -0.23850  -0.23785
 Alpha  occ. eigenvalues --   -0.20918  -0.20753
 Alpha virt. eigenvalues --   -0.08651  -0.08113  -0.01675  -0.01445   0.00203
 Alpha virt. eigenvalues --    0.00267   0.01842   0.02215   0.02528   0.03358
 Alpha virt. eigenvalues --    0.04860   0.05119   0.05153   0.05223   0.05763

 Mulliken charges:
               1
     1  Mg   0.819575
     2  C   -0.001573
     3  C   -0.062418
     4  C   -0.049452
     5  C   -0.063042
     6  N   -0.299524
     7  C   -0.121808
     8  C    0.023398
     9  C   -0.072141
    10  C    0.088155
    11  C    0.047569
    12  C    0.044024
    13  C   -0.030763
    14  H    0.030293
    15  N   -0.363602
    16  C    0.139375
    17  C   -0.154988
    18  C   -0.043592
    19  C    0.067679
    20  C    0.127887
    21  C    0.011809
    22  O   -0.199344
    23  C    0.049165
    24  N   -0.300421
    25  C    0.068928
    26  C   -0.058291
    27  C   -0.010006
    28  C    0.028447
    29  C    0.054667
    30  C    0.057270
    31  C   -0.011229
    32  N   -0.319251
    33  C    0.103419
    34  C   -0.191843
    35  C    0.027762
    36  C    0.105657
    37  C    0.107764
    38  C    0.039865
    39  O   -0.159265
    40  C    0.037412
    41  C    0.197728
    42  O   -0.232000
    43  O   -0.337882
    44  C    0.191716
    45  H   -0.027677
    46  H   -0.005029
    47  H   -0.030826
    48  H    0.010659
    49  H    0.014857
    50  H    0.011779
    51  H    0.006954
    52  H    0.029389
    53  H   -0.005480
    54  H    0.003360
    55  H    0.027370
    56  H    0.033818
    57  H    0.020964
    58  H    0.019232
    59  H    0.028870
    60  H    0.047467
    61  H    0.037049
    62  H    0.017611
    63  H    0.015747
    64  H    0.017514
    65  H    0.007134
    66  H    0.020780
    67  H    0.033859
    68  H    0.010939
    69  H    0.016080
    70  H    0.002394
    71  H    0.006565
    72  H    0.025377
    73  H   -0.003245
    74  H    0.037551
    75  H    0.027397
    76  H    0.052199
    77  H    0.027359
    78  H    0.040724
    79  H    0.034128
    80  Mg   0.821080
    81  C    0.030411
    82  C   -0.107810
    83  C   -0.061725
    84  C   -0.079807
    85  N   -0.200750
    86  C   -0.088509
    87  C   -0.039392
    88  C   -0.030686
    89  C    0.038605
    90  C    0.062996
    91  C    0.035487
    92  C   -0.045785
    93  H    0.027987
    94  N   -0.333884
    95  C    0.142444
    96  C   -0.171138
    97  C   -0.048876
    98  C    0.118341
    99  C    0.141182
   100  C    0.013182
   101  O   -0.220267
   102  C    0.057285
   103  N   -0.336844
   104  C    0.016383
   105  C   -0.060052
   106  C    0.004117
   107  C    0.025620
   108  C    0.091677
   109  C   -0.015102
   110  C    0.015178
   111  N   -0.395350
   112  C    0.152181
   113  C   -0.185231
   114  C    0.030589
   115  C    0.122645
   116  C    0.129681
   117  C    0.041174
   118  O   -0.160930
   119  C   -0.039273
   120  C    0.232535
   121  O   -0.216950
   122  O   -0.361711
   123  C    0.186994
   124  H   -0.014581
   125  H   -0.010702
   126  H   -0.032462
   127  H    0.024596
   128  H    0.002100
   129  H    0.002996
   130  H    0.024016
   131  H    0.005983
   132  H    0.006704
   133  H    0.011616
   134  H    0.020913
   135  H    0.030080
   136  H    0.040044
   137  H    0.014432
   138  H    0.038060
   139  H    0.028242
   140  H    0.036988
   141  H    0.029772
   142  H    0.014456
   143  H    0.008533
   144  H    0.034309
   145  H    0.027516
   146  H    0.007528
   147  H    0.020644
   148  H    0.002248
   149  H    0.010442
   150  H    0.021415
   151  H    0.027522
   152  H    0.036521
   153  H    0.019150
   154  H    0.021695
   155  H    0.045233
   156  H    0.053707
   157  H    0.030221
   158  H    0.022361
 Sum of Mulliken charges =  -0.00000

 Dipole moment (field-independent basis, Debye):
    X=             -1.3437    Y=              1.3921    Z=             -2.0041  Tot=              2.7857
 Quadrupole moment (field-independent basis, Debye-Ang):
   XX=            -86.6066   YY=           -489.1359   ZZ=           -494.1037
   XY=              7.1953   XZ=            -88.6913   YZ=             -6.7320

 Normal termination of Gaussian 16 at Wed Sep 15 20:57:28 2021.
