 Gaussian 16, Revision A.03,
 Gaussian 16:  ES64L-G16RevA.03 25-Dec-2016

 ----------------------------------------------------------
 #p cam-b3lyp/Def2SVP td=(nstates=5) density=(transition=1)
 ----------------------------------------------------------

 --------------------------------
 TDDFT excited states in gaussian
 --------------------------------
 Symbolic Z-matrix:
 Charge =  0 Multiplicity = 1

                         Standard orientation:
 ---------------------------------------------------------------------
 Center     Atomic      Atomic             Coordinates (Angstroms)
 Number     Number       Type             X           Y           Z
 ---------------------------------------------------------------------
      1         12           0       20.506040   -0.803832    0.122752
      2          6           0       19.677280    2.159532   -1.599397
      3          6           0       21.935407    1.122387    2.584053
      4          6           0       21.400965   -3.580499    1.787009
      5          6           0       19.565270   -2.710504   -2.656230
      6          7           0       20.607720    1.358550    0.431053
      7          6           0       20.245925    2.407071   -0.302771
      8          6           0       20.526724    3.799796    0.298926
      9          6           0       21.501206    3.308147    1.475735
     10          6           0       21.376173    1.804152    1.471444
     11          6           0       22.933280    3.753212    1.304221
     12          6           0       19.204369    4.568901    0.855183
     13          6           0       19.348438    6.093576    0.847475
     14          1           0       18.316697    6.823557   -0.050582
     15          7           0       21.397459   -1.211455    2.044507
     16          6           0       21.968960   -0.225393    2.886326
     17          6           0       22.266515   -0.874391    4.143303
     18          6           0       22.099727   -2.243287    3.953825
     19          6           0       21.592429   -2.422708    2.557311
     20          6           0       22.883847   -0.167018    5.334926
     21          6           0       22.276642   -3.414940    4.892276
     22          8           0       21.992596   -4.517744    4.525578
     23          6           0       22.729317   -3.238797    6.307408
     24          7           0       20.680176   -2.830151   -0.414639
     25          6           0       21.007612   -3.810890    0.475675
     26          6           0       20.803243   -5.160568   -0.266861
     27          6           0       19.758449   -4.899339   -1.336950
     28          6           0       19.995118   -3.384390   -1.541126
     29          6           0       22.114927   -5.575368   -0.931894
     30          6           0       18.371335   -5.259645   -0.952109
     31          6           0       17.847733   -4.826830    0.394962
     32          7           0       19.738042   -0.423582   -1.750299
     33          6           0       19.407010   -1.271213   -2.790693
     34          6           0       18.882271   -0.469073   -3.906639
     35          6           0       18.953936    0.861086   -3.457620
     36          6           0       19.461612    0.834156   -2.187377
     37          6           0       18.441780   -0.974561   -5.212163
     38          6           0       18.578683    2.221208   -3.737174
     39          8           0       17.981943    2.728172   -4.732090
     40          6           0       19.029355    3.105741   -2.480374
     41          6           0       20.026062    4.108045   -3.002182
     42          8           0       20.940531    3.806254   -3.710256
     43          8           0       19.847948    5.443004   -2.548213
     44          6           0       21.004099    6.357276   -2.795682
     45          1           0       22.439911    1.713794    3.350217
     46          1           0       21.768685   -4.499380    2.249200
     47          1           0       19.094128   -3.246585   -3.483048
     48          1           0       20.954818    4.455108   -0.460652
     49          1           0       21.073153    3.758922    2.371948
     50          1           0       23.048951    4.642883    1.923048
     51          1           0       23.215394    3.880107    0.258821
     52          1           0       23.506545    2.991157    1.832078
     53          1           0       19.005334    4.265349    1.883435
     54          1           0       18.320274    4.267216    0.293159
     55          1           0       20.384286    6.210054    0.528135
     56          1           0       19.331399    6.512862    1.853280
     57          1           0       22.678995    0.887504    5.154133
     58          1           0       23.950574   -0.329717    5.183561
     59          1           0       22.441309   -0.480109    6.280786
     60          1           0       21.830977   -2.783506    6.724649
     61          1           0       23.565018   -2.551288    6.435097
     62          1           0       22.956738   -4.206414    6.756045
     63          1           0       20.531600   -6.003755    0.367290
     64          1           0       19.895346   -5.450292   -2.266847
     65          1           0       22.249749   -5.425624   -2.003157
     66          1           0       22.261752   -6.635171   -0.723914
     67          1           0       22.927084   -5.054148   -0.423831
     68          1           0       18.186457   -6.329477   -1.051810
     69          1           0       17.757484   -4.774222   -1.710598
     70          1           0       17.081535   -4.079869    0.185402
     71          1           0       18.472039   -4.389815    1.174860
     72          1           0       17.328072   -5.674039    0.842220
     73          1           0       19.321891   -1.315433   -5.757323
     74          1           0       17.927714   -0.123077   -5.657905
     75          1           0       17.799032   -1.849469   -5.105768
     76          1           0       18.097732    3.513007   -2.087111
     77          1           0       21.016013    6.678143   -3.837269
     78          1           0       21.967893    5.906086   -2.555456
     79          1           0       20.976584    7.313380   -2.273772
     80         12           0      -20.823190   -0.628993   -0.356021
     81          6           0      -18.927628    2.344267    0.069165
     82          6           0      -23.558775    1.226458    0.903304
     83          6           0      -22.594269   -3.368990   -0.350201
     84          6           0      -17.911656   -2.288606   -1.286205
     85          7           0      -21.205657    1.581813    0.424755
     86          6           0      -20.261628    2.578077    0.376188
     87          6           0      -20.815710    3.945292    0.739571
     88          6           0      -22.294234    3.513526    1.129173
     89          6           0      -22.389500    2.023460    0.766818
     90          6           0      -22.618835    3.909759    2.566479
     91          6           0      -20.752121    4.901208   -0.471918
     92          6           0      -20.442211    6.425064   -0.214347
     93          1           0      -20.683051    6.987522    1.206374
     94          7           0      -22.833270   -1.017946    0.125721
     95          6           0      -23.752399   -0.138124    0.698102
     96          6           0      -25.022186   -0.859363    0.879123
     97          6           0      -24.771583   -2.192202    0.416047
     98          6           0      -23.355109   -2.194830    0.002995
     99          6           0      -26.181433   -0.273674    1.488715
    100          6           0      -25.730730   -3.377350    0.368949
    101          8           0      -25.338220   -4.504965    0.029582
    102          6           0      -27.184135   -3.181134    0.554506
    103          7           0      -20.298125   -2.580878   -0.662252
    104          6           0      -21.241508   -3.525376   -0.705211
    105          6           0      -20.618216   -4.929588   -0.994302
    106          6           0      -19.185215   -4.537948   -1.476027
    107          6           0      -19.080139   -3.086593   -1.126408
    108          6           0      -20.692278   -5.931584    0.213579
    109          6           0      -19.202826   -4.751118   -3.037905
    110          6           0      -19.539070   -3.556659   -3.995808
    111          7           0      -18.849867   -0.112836   -0.677093
    112          6           0      -17.764617   -0.927697   -1.047146
    113          6           0      -16.536374   -0.094761   -1.044311
    114          6           0      -16.957864    1.139961   -0.564907
    115          6           0      -18.323970    1.146310   -0.378065
    116          6           0      -15.230167   -0.713155   -1.192084
    117          6           0      -16.425051    2.420360   -0.105849
    118          8           0      -15.252222    2.773178   -0.053977
    119          6           0      -17.694873    3.275127    0.361856
    120          6           0      -17.570761    3.688320    1.780869
    121          8           0      -18.029285    3.093235    2.751822
    122          8           0      -16.851895    4.896967    1.844796
    123          6           0      -16.522835    5.514815    3.109432
    124          1           0      -24.495380    1.770769    1.043806
    125          1           0      -23.133709   -4.318009   -0.389905
    126          1           0      -17.080596   -2.905826   -1.632973
    127          1           0      -20.293317    4.400198    1.581554
    128          1           0      -22.953779    4.153718    0.543930
    129          1           0      -23.507783    4.528657    2.683118
    130          1           0      -21.825930    4.417225    3.115968
    131          1           0      -22.880373    2.987495    3.086955
    132          1           0      -21.676915    4.859601   -1.047227
    133          1           0      -19.969416    4.419892   -1.059298
    134          1           0      -21.095214    7.051358   -0.821247
    135          1           0      -19.473456    6.598335   -0.682928
    136          1           0      -27.005876   -0.439451    0.794935
    137          1           0      -25.961655    0.724537    1.866132
    138          1           0      -26.236227   -0.867853    2.401428
    139          1           0      -27.466469   -2.964462    1.585212
    140          1           0      -27.708468   -4.099905    0.292453
    141          1           0      -27.466501   -2.280702    0.009748
    142          1           0      -21.311916   -5.244988   -1.773699
    143          1           0      -18.421748   -5.192287   -1.054492
    144          1           0      -21.558209   -6.584564    0.103775
    145          1           0      -20.667366   -5.328624    1.120704
    146          1           0      -19.777162   -6.521595    0.165908
    147          1           0      -19.735037   -5.674367   -3.267835
    148          1           0      -18.142959   -4.829063   -3.282021
    149          1           0      -20.214112   -4.004647   -4.724427
    150          1           0      -18.666572   -3.180018   -4.531205
    151          1           0      -20.066891   -2.715356   -3.547987
    152          1           0      -15.173505   -1.566760   -0.517827
    153          1           0      -14.500307    0.027488   -0.863627
    154          1           0      -14.987349   -0.868750   -2.242891
    155          1           0      -17.646872    4.159001   -0.274951
    156          1           0      -15.520839    5.271663    3.462120
    157          1           0      -17.349258    5.438682    3.816226
    158          1           0      -16.602437    6.569126    2.842956
 ---------------------------------------------------------------------

 SCF Done:  E(RCAM-B3LYP) =  -4069.80360078     A.U. after   17 cycles

 Excitation energies and oscillator strengths:

 Excited State   1:      Singlet-A      1.6957 eV  731.16 nm  f=0.3710  <S**2>=0.000
     309 -> 315       -0.17411
     311 -> 313        0.68766
     309 <- 315       -0.10610
 This state for optimization and/or second-order correction.
 Total Energy, E(TD-HF/TD-DFT) =  -4069.74128397
 Copying the excited state density for this state as the 1-particle RhoCI density.

 Excited State   2:      Singlet-A      1.7491 eV  708.86 nm  f=0.3731  <S**2>=0.000
     310 -> 316       -0.18983
     312 -> 314        0.68129
     310 <- 316       -0.10804

 Excited State   3:      Singlet-A      2.1842 eV  567.65 nm  f=0.1180  <S**2>=0.000
     309 -> 313        0.64719
     311 -> 315        0.27033

 Excited State   4:      Singlet-A      2.2728 eV  545.51 nm  f=0.0723  <S**2>=0.000
     310 -> 314        0.62313
     312 -> 316        0.32197

 Excited State   5:      Singlet-A      2.9874 eV  415.03 nm  f=0.0000  <S**2>=0.000
     312 -> 313        0.70710

 The electronic state is 1-A.
 Alpha  occ. eigenvalues --  -46.88602 -46.88487 -19.24477 -19.23963 -19.20022
 Alpha  occ. eigenvalues --  -19.19866 -19.19300 -19.19062 -19.18719 -19.18218
 Alpha  occ. eigenvalues --  -14.43394 -14.42106 -14.41319 -14.41266 -14.39685
 Alpha  occ. eigenvalues --  -14.39666 -14.39035 -14.38899 -10.39465 -10.39377
 Alpha  occ. eigenvalues --  -10.35356 -10.35268 -10.35167 -10.34719 -10.31829
 Alpha  occ. eigenvalues --  -10.31662 -10.31250 -10.31168 -10.31099 -10.30989
 Alpha  occ. eigenvalues --  -10.30927 -10.30751 -10.30587 -10.30498 -10.30433
 Alpha  occ. eigenvalues --  -10.30369 -10.30296 -10.30197 -10.29417 -10.29368
 Alpha  occ. eigenvalues --  -10.29216 -10.29169 -10.29010 -10.28853 -10.28835
 Alpha  occ. eigenvalues --  -10.28781 -10.28365 -10.28346 -10.28288 -10.28223
 Alpha  occ. eigenvalues --  -10.28217 -10.28179 -10.28107 -10.28022 -10.27564
 Alpha  occ. eigenvalues --  -10.27535 -10.27508 -10.27429 -10.27375 -10.27263
 Alpha  occ. eigenvalues --  -10.27221 -10.27202 -10.27122 -10.27105 -10.27098
 Alpha  occ. eigenvalues --  -10.27023 -10.26791 -10.26672 -10.26629 -10.26570
 Alpha  occ. eigenvalues --  -10.26490 -10.26411 -10.26397 -10.26350 -10.25734
 Alpha  occ. eigenvalues --  -10.25599 -10.25374 -10.25322 -10.25292 -10.25258
 Alpha  occ. eigenvalues --  -10.25094 -10.25086 -10.25073 -10.24677 -10.24438
 Alpha  occ. eigenvalues --  -10.24404  -3.17097  -3.17030  -1.92019  -1.91937
 Alpha  occ. eigenvalues --   -1.91528  -1.91497  -1.91413  -1.91318  -1.15592
 Alpha  occ. eigenvalues --   -1.14637  -1.12097  -1.09639  -1.09187  -1.07360
 Alpha  occ. eigenvalues --   -1.07228  -1.06632  -1.05276  -1.04740  -1.04022
 Alpha  occ. eigenvalues --   -1.03517  -1.03074  -1.02914  -1.01747  -1.01354
 Alpha  occ. eigenvalues --   -0.92930  -0.91960  -0.90027  -0.89863  -0.89418
 Alpha  occ. eigenvalues --   -0.88812  -0.88639  -0.88365  -0.87827  -0.87314
 Alpha  occ. eigenvalues --   -0.86914  -0.86716  -0.86199  -0.86163  -0.84686
 Alpha  occ. eigenvalues --   -0.84113  -0.83551  -0.83279  -0.82625  -0.82610
 Alpha  occ. eigenvalues --   -0.82453  -0.81972  -0.81092  -0.80811  -0.80419
 Alpha  occ. eigenvalues --   -0.79902  -0.78925  -0.78892  -0.77326  -0.77086
 Alpha  occ. eigenvalues --   -0.77084  -0.76834  -0.76265  -0.75766  -0.74969
 Alpha  occ. eigenvalues --   -0.74759  -0.72437  -0.72105  -0.71313  -0.71282
 Alpha  occ. eigenvalues --   -0.69683  -0.69213  -0.68889  -0.68829  -0.67822
 Alpha  occ. eigenvalues --   -0.67818  -0.67103  -0.66685  -0.65809  -0.64981
 Alpha  occ. eigenvalues --   -0.64919  -0.64657  -0.64437  -0.64183  -0.64163
 Alpha  occ. eigenvalues --   -0.63388  -0.61748  -0.61512  -0.60364  -0.60308
 Alpha  occ. eigenvalues --   -0.59919  -0.59341  -0.59126  -0.59021  -0.58962
 Alpha  occ. eigenvalues --   -0.58588  -0.58040  -0.57851  -0.57574  -0.57143
 Alpha  occ. eigenvalues --   -0.56376  -0.56255  -0.55741  -0.55468  -0.55308
 Alpha  occ. eigenvalues --   -0.54766  -0.54521  -0.54254  -0.54070  -0.53962
 Alpha  occ. eigenvalues --   -0.53934  -0.53828  -0.53699  -0.53596  -0.53301
 Alpha  occ. eigenvalues --   -0.53129  -0.53024  -0.52744  -0.52415  -0.52302
 Alpha  occ. eigenvalues --   -0.51862  -0.51786  -0.51614  -0.51509  -0.51476
 Alpha  occ. eigenvalues --   -0.51281  -0.50821  -0.50741  -0.50713  -0.50583
 Alpha  occ. eigenvalues --   -0.50184  -0.49990  -0.49881  -0.49760  -0.49672
 Alpha  occ. eigenvalues --   -0.49567  -0.49535  -0.49189  -0.49055  -0.49001
 Alpha  occ. eigenvalues --   -0.48884  -0.48501  -0.48362  -0.48281  -0.48202
 Alpha  occ. eigenvalues --   -0.48056  -0.47714  -0.47631  -0.47571  -0.47338
 Alpha  occ. eigenvalues --   -0.47156  -0.46926  -0.46689  -0.46654  -0.46336
 Alpha  occ. eigenvalues --   -0.46080  -0.45969  -0.45858  -0.45538  -0.45385
 Alpha  occ. eigenvalues --   -0.45366  -0.45200  -0.44994  -0.44938  -0.44588
 Alpha  occ. eigenvalues --   -0.44301  -0.44229  -0.44208  -0.44150  -0.44024
 Alpha  occ. eigenvalues --   -0.43906  -0.43712  -0.43638  -0.43483  -0.43395
 Alpha  occ. eigenvalues --   -0.43291  -0.43136  -0.43088  -0.42933  -0.42832
 Alpha  occ. eigenvalues --   -0.42529  -0.42505  -0.42446  -0.41927  -0.41803
 Alpha  occ. eigenvalues --   -0.41669  -0.41538  -0.41279  -0.41023  -0.40996
 Alpha  occ. eigenvalues --   -0.40910  -0.40641  -0.40359  -0.40320  -0.40252
 Alpha  occ. eigenvalues --   -0.39827  -0.39727  -0.39504  -0.39348  -0.38553
 Alpha  occ. eigenvalues --   -0.38324  -0.37723  -0.37696  -0.37399  -0.37265
 Alpha  occ. eigenvalues --   -0.37108  -0.37086  -0.36610  -0.36410  -0.36174
 Alpha  occ. eigenvalues --   -0.36098  -0.35657  -0.34663  -0.34499  -0.34152
 Alpha  occ. eigenvalues --   -0.34012  -0.33269  -0.33186  -0.31694  -0.31350
 Alpha  occ. eigenvalues --   -0.31172  -0.30936  -0.30798  -0.30294  -0.30130
 Alpha  occ. eigenvalues --   -0.29990  -0.29317  -0.29309  -0.24123  -0.23855
 Alpha  occ. eigenvalues --   -0.21367  -0.20758
 Alpha virt. eigenvalues --   -0.08941  -0.08118  -0.01719  -0.01680   0.00262
 Alpha virt. eigenvalues --    0.00456   0.02193   0.02209   0.03284   0.03354
 Alpha virt. eigenvalues --    0.04673   0.04854   0.05113   0.05319   0.05638

 Mulliken charges:
               1
     1  Mg  11.994416
     2  C    6.020296
     3  C    5.977636
     4  C    5.981811
     5  C    6.017074
     6  N    7.009090
     7  C    5.960142
     8  C    6.014809
     9  C    5.981067
    10  C    6.044653
    11  C    5.995351
    12  C    6.001341
    13  C    6.000385
    14  H    1.003705
    15  N    6.987774
    16  C    6.053892
    17  C    6.009298
    18  C    6.024908
    19  C    6.032363
    20  C    5.998201
    21  C    6.011141
    22  O    8.028473
    23  C    5.996739
    24  N    7.000517
    25  C    6.027463
    26  C    5.997046
    27  C    6.004601
    28  C    5.969973
    29  C    6.001250
    30  C    6.006422
    31  C    5.999907
    32  N    7.000217
    33  C    5.954157
    34  C    5.968571
    35  C    5.996538
    36  C    5.970101
    37  C    6.002126
    38  C    5.987601
    39  O    7.968509
    40  C    5.995886
    41  C    5.994445
    42  O    7.997714
    43  O    7.997043
    44  C    6.002750
    45  H    1.009970
    46  H    1.004290
    47  H    0.992434
    48  H    1.002480
    49  H    1.007029
    50  H    1.008946
    51  H    1.015220
    52  H    0.994570
    53  H    0.988189
    54  H    1.006795
    55  H    0.996826
    56  H    0.994177
    57  H    1.015781
    58  H    1.015384
    59  H    1.015282
    60  H    1.007886
    61  H    1.007382
    62  H    1.014687
    63  H    0.999296
    64  H    0.999493
    65  H    1.012719
    66  H    1.001980
    67  H    0.993405
    68  H    0.992358
    69  H    1.006871
    70  H    1.006673
    71  H    0.983171
    72  H    0.997255
    73  H    0.977326
    74  H    0.985934
    75  H    0.978898
    76  H    0.993297
    77  H    0.998417
    78  H    0.994243
    79  H    0.993931
    80  Mg  12.000020
    81  C    5.999750
    82  C    6.000066
    83  C    6.000309
    84  C    5.999933
    85  N    6.999889
    86  C    6.000295
    87  C    5.999885
    88  C    6.000140
    89  C    5.999728
    90  C    6.000025
    91  C    5.999975
    92  C    5.999998
    93  H    0.999999
    94  N    7.000073
    95  C    5.999561
    96  C    5.999833
    97  C    5.999810
    98  C    5.999709
    99  C    6.000096
   100  C    5.999846
   101  O    7.999702
   102  C    6.000076
   103  N    7.000092
   104  C    5.999659
   105  C    6.000031
   106  C    5.999905
   107  C    6.000227
   108  C    6.000033
   109  C    5.999965
   110  C    5.999921
   111  N    6.999985
   112  C    6.000282
   113  C    6.000407
   114  C    5.999959
   115  C    6.000345
   116  C    5.999895
   117  C    6.000206
   118  O    8.000295
   119  C    6.000016
   120  C    6.000020
   121  O    8.000042
   122  O    8.000024
   123  C    5.999970
   124  H    0.999847
   125  H    0.999949
   126  H    1.000172
   127  H    0.999997
   128  H    0.999933
   129  H    0.999940
   130  H    0.999851
   131  H    1.000004
   132  H    1.000094
   133  H    0.999960
   134  H    1.000031
   135  H    1.000006
   136  H    0.999804
   137  H    0.999823
   138  H    0.999778
   139  H    0.999882
   140  H    0.999831
   141  H    0.999956
   142  H    1.000043
   143  H    1.000042
   144  H    1.000007
   145  H    0.999968
   146  H    0.999904
   147  H    1.000103
   148  H    1.000041
   149  H    1.000099
   150  H    1.000032
   151  H    1.000026
   152  H    1.000182
   153  H    1.000215
   154  H    1.000301
   155  H    1.000103
   156  H    1.000023
   157  H    1.000008
   158  H    1.000052
 Sum of Mulliken charges = 624.00000

 Dipole moment (field-independent basis, Debye):
    X=              4.5685    Y=             -2.1919    Z=              9.4716  Tot=             10.7418
 Quadrupole moment (field-independent basis, Debye-Ang):
   XX=            178.9465   YY=              1.3949   ZZ=              2.6835
   XY=            -48.4204   XZ=            196.6286   YZ=             -7.0069

 Normal termination of Gaussian 16 at Tue Sep 21 17:36:34 2021.
