 Gaussian 16, Revision A.03,
 Gaussian 16:  ES64L-G16RevA.03 25-Dec-2016

 -----------------------------------
 #p cam-b3lyp/Def2SVP td=(nstates=5)
 -----------------------------------

 --------------------------------
 TDDFT excited states in gaussian
 --------------------------------
 Symbolic Z-matrix:
 Charge =  0 Multiplicity = 1

                         Standard orientation:
 ---------------------------------------------------------------------
 Center     Atomic      Atomic             Coordinates (Angstroms)
 Number     Number       Type             X           Y           Z
 ---------------------------------------------------------------------
      1         12           0       28.587612    0.450455   -0.171295
      2          6           0       25.992025   -1.851492    0.292653
      3          6           0       26.141036    2.890540   -0.026652
      4          6           0       31.018176    2.736675   -0.258234
      5          6           0       30.912248   -2.057341    0.554938
      6          7           0       26.212171    0.457258    0.323836
      7          6           0       25.403171   -0.619289    0.344840
      8          6           0       23.943378   -0.274656    0.517633
      9          6           0       24.066060    1.241419    0.104113
     10          6           0       25.542569    1.617730    0.172269
     11          6           0       23.577884    1.433100   -1.356619
     12          6           0       23.440863   -0.656589    1.915697
     13          6           0       24.343916   -0.426468    3.145340
     14          1           0       23.692134    0.279818    4.328228
     15          7           0       28.589515    2.496076   -0.157801
     16          6           0       27.473667    3.288253   -0.216608
     17          6           0       27.862285    4.621754   -0.693972
     18          6           0       29.311815    4.677950   -0.626416
     19          6           0       29.682991    3.256273   -0.351655
     20          6           0       26.836842    5.811219   -0.833046
     21          6           0       30.193313    5.916485   -0.805477
     22          8           0       29.717510    6.958428   -1.161459
     23          6           0       31.674949    5.822858   -0.580837
     24          7           0       30.697411    0.332929    0.339082
     25          6           0       31.563737    1.419531    0.117451
     26          6           0       33.090638    1.050707    0.345120
     27          6           0       33.001341   -0.536968    0.544894
     28          6           0       31.429180   -0.795589    0.433752
     29          6           0       34.205882    1.506446   -0.722747
     30          6           0       33.656258   -1.151117    1.865079
     31          6           0       34.262059   -2.611066    1.569171
     32          7           0       28.542518   -1.589460    0.280553
     33          6           0       29.575422   -2.487115    0.459213
     34          6           0       29.024048   -3.830348    0.589541
     35          6           0       27.616045   -3.701589    0.471625
     36          6           0       27.362966   -2.286686    0.361449
     37          6           0       29.802348   -5.118942    0.641076
     38          6           0       26.267481   -4.354581    0.524513
     39          8           0       25.961675   -5.498483    0.777636
     40          6           0       25.225991   -3.168443    0.353417
     41          6           0       24.456511   -3.452039   -0.907351
     42          8           0       23.538115   -4.305280   -0.992967
     43          8           0       24.814853   -2.537202   -1.886856
     44          6           0       24.002103   -2.541786   -3.057082
     45          1           0       25.363178    3.655636   -0.073464
     46          1           0       31.895257    3.351947   -0.470552
     47          1           0       31.657735   -2.855031    0.580449
     48          1           0       23.326111   -0.733580   -0.254454
     49          1           0       23.528763    1.977851    0.700137
     50          1           0       24.192308    2.232120   -1.772239
     51          1           0       22.502136    1.601148   -1.381776
     52          1           0       23.779134    0.652704   -2.091172
     53          1           0       23.311354   -1.738201    1.893466
     54          1           0       22.479141   -0.168336    2.073635
     55          1           0       25.179596    0.209442    2.854224
     56          1           0       24.660563   -1.400130    3.518154
     57          1           0       26.547792    6.284420    0.105768
     58          1           0       25.940731    5.460875   -1.345352
     59          1           0       27.131359    6.621788   -1.498639
     60          1           0       32.152131    6.803340   -0.591678
     61          1           0       32.181127    5.192737   -1.312432
     62          1           0       31.720047    5.492236    0.457171
     63          1           0       33.254266    1.559034    1.294604
     64          1           0       33.447898   -1.062243   -0.298874
     65          1           0       34.567163    2.485016   -0.408706
     66          1           0       33.798497    1.550216   -1.732429
     67          1           0       35.002991    0.762719   -0.725683
     68          1           0       32.896643   -1.359526    2.618419
     69          1           0       34.392178   -0.469580    2.292445
     70          1           0       33.768955   -3.369229    2.177696
     71          1           0       35.325528   -2.615979    1.806351
     72          1           0       34.127181   -3.049522    0.581002
     73          1           0       30.470052   -5.081977    1.501170
     74          1           0       30.404348   -5.218504   -0.262387
     75          1           0       29.158603   -5.987654    0.778054
     76          1           0       24.522245   -3.320991    1.171388
     77          1           0       24.310352   -1.726005   -3.710581
     78          1           0       22.942278   -2.556003   -2.802189
     79          1           0       24.199904   -3.407393   -3.689243
     80         12           0      -28.675196    0.373046    0.248102
     81          6           0      -26.801223   -2.382162   -0.820401
     82          6           0      -28.458789    1.725655   -2.883068
     83          6           0      -30.150553    3.092622    1.417898
     84          6           0      -28.659024   -1.065265    3.520322
     85          7           0      -27.677917   -0.267260   -1.624656
     86          6           0      -27.021552   -1.448042   -1.892303
     87          6           0      -26.798591   -1.605882   -3.385063
     88          6           0      -27.087467   -0.156059   -3.942235
     89          6           0      -27.881806    0.432587   -2.726805
     90          6           0      -25.827158    0.641804   -4.251684
     91          6           0      -27.626812   -2.828108   -3.925516
     92          6           0      -27.628568   -2.936012   -5.475701
     93          1           0      -26.402735   -2.412797   -6.195094
     94          7           0      -29.223587    2.093599   -0.590624
     95          6           0      -28.963833    2.539325   -1.880462
     96          6           0      -29.454182    3.912601   -2.092252
     97          6           0      -29.985941    4.280546   -0.818072
     98          6           0      -29.786092    3.134583    0.065094
     99          6           0      -29.393237    4.604476   -3.402337
    100          6           0      -30.612478    5.605281   -0.466655
    101          8           0      -31.100112    5.831673    0.675389
    102          6           0      -30.758117    6.697116   -1.491721
    103          7           0      -29.368192    0.906562    2.207368
    104          6           0      -29.939049    2.100005    2.372731
    105          6           0      -30.245059    2.358609    3.913382
    106          6           0      -29.711527    0.992407    4.623158
    107          6           0      -29.203066    0.235514    3.395435
    108          6           0      -29.487994    3.675201    4.362086
    109          6           0      -30.842142    0.141740    5.345117
    110          6           0      -31.159925    0.545447    6.813544
    111          7           0      -27.874132   -1.283580    1.214757
    112          6           0      -28.030774   -1.824886    2.518092
    113          6           0      -27.335893   -3.183829    2.593445
    114          6           0      -26.778339   -3.413467    1.339689
    115          6           0      -27.208468   -2.256304    0.513959
    116          6           0      -27.289875   -4.127297    3.754331
    117          6           0      -26.044595   -4.335094    0.504280
    118          8           0      -25.530685   -5.434136    0.735360
    119          6           0      -26.181122   -3.788799   -1.002725
    120          6           0      -24.862167   -3.772614   -1.740912
    121          8           0      -24.079618   -2.861980   -1.700417
    122          8           0      -24.779052   -4.843378   -2.659475
    123          6           0      -23.798344   -4.721995   -3.748604
    124          1           0      -28.261557    2.042073   -3.909791
    125          1           0      -30.623313    3.999339    1.801471
    126          1           0      -28.525658   -1.509923    4.508827
    127          1           0      -25.750339   -1.862449   -3.532797
    128          1           0      -27.750910   -0.107162   -4.806294
    129          1           0      -25.912357    0.928860   -5.299641
    130          1           0      -24.961616    0.035537   -3.985505
    131          1           0      -25.822926    1.624095   -3.779861
    132          1           0      -28.542986   -2.737414   -3.342824
    133          1           0      -27.136857   -3.709381   -3.512871
    134          1           0      -28.522076   -2.379280   -5.758320
    135          1           0      -27.737755   -3.987968   -5.739072
    136          1           0      -28.717028    5.433836   -3.195678
    137          1           0      -30.370860    4.911240   -3.773198
    138          1           0      -28.945166    4.096363   -4.257203
    139          1           0      -31.425629    6.353550   -2.280777
    140          1           0      -29.706133    6.803026   -1.759611
    141          1           0      -31.082217    7.669655   -1.122314
    142          1           0      -31.333836    2.414223    3.880358
    143          1           0      -28.781140    1.049246    5.189778
    144          1           0      -28.891812    4.143527    3.579115
    145          1           0      -28.805997    3.448200    5.181947
    146          1           0      -30.272598    4.393294    4.598661
    147          1           0      -30.713409   -0.929806    5.195107
    148          1           0      -31.759146    0.349053    4.794504
    149          1           0      -32.228681    0.752504    6.855249
    150          1           0      -30.514906    1.379743    7.089534
    151          1           0      -30.959867   -0.266129    7.513536
    152          1           0      -27.952350   -4.954223    3.497628
    153          1           0      -27.606537   -3.619646    4.666242
    154          1           0      -26.337473   -4.604039    3.985230
    155          1           0      -26.903790   -4.440734   -1.492614
    156          1           0      -22.841460   -4.965714   -3.287769
    157          1           0      -23.885094   -3.753321   -4.241203
    158          1           0      -24.091073   -5.453808   -4.501029
 ---------------------------------------------------------------------

 SCF Done:  E(RCAM-B3LYP) =  -4069.81643258     A.U. after   17 cycles

 Excitation energies and oscillator strengths:

 Excited State   1:      Singlet-A      1.7141 eV  723.31 nm  f=0.3802  <S**2>=0.000
     310 -> 315        0.19945
     312 -> 314        0.68036
     310 <- 315        0.11163
 This state for optimization and/or second-order correction.
 Total Energy, E(TD-HF/TD-DFT) =  -4069.75344012
 Copying the excited state density for this state as the 1-particle RhoCI density.

 Excited State   2:      Singlet-A      1.7468 eV  709.77 nm  f=0.3614  <S**2>=0.000
     309 -> 316       -0.19411
     311 -> 313        0.68068
     309 <- 316       -0.10946

 Excited State   3:      Singlet-A      2.2374 eV  554.14 nm  f=0.1044  <S**2>=0.000
     309 -> 313        0.63522
     311 -> 316        0.29910

 Excited State   4:      Singlet-A      2.2903 eV  541.35 nm  f=0.0345  <S**2>=0.000
     310 -> 314        0.58797
     312 -> 315       -0.38618

 Excited State   5:      Singlet-A      3.0392 eV  407.94 nm  f=0.0000  <S**2>=0.000
     312 -> 313        0.70711

 The electronic state is 1-A.
 Alpha  occ. eigenvalues --  -46.90393 -46.88055 -19.26036 -19.23959 -19.20283
 Alpha  occ. eigenvalues --  -19.20009 -19.19542 -19.19166 -19.19037 -19.18376
 Alpha  occ. eigenvalues --  -14.42258 -14.42134 -14.41810 -14.41543 -14.40521
 Alpha  occ. eigenvalues --  -14.39935 -14.39861 -14.39472 -10.39971 -10.39403
 Alpha  occ. eigenvalues --  -10.35784 -10.35517 -10.35303 -10.35231 -10.32828
 Alpha  occ. eigenvalues --  -10.31976 -10.31829 -10.31742 -10.31126 -10.30899
 Alpha  occ. eigenvalues --  -10.30847 -10.30739 -10.30595 -10.30584 -10.30350
 Alpha  occ. eigenvalues --  -10.30341 -10.30299 -10.30208 -10.30097 -10.29884
 Alpha  occ. eigenvalues --  -10.29604 -10.29579 -10.29547 -10.29461 -10.29262
 Alpha  occ. eigenvalues --  -10.29210 -10.29088 -10.28954 -10.28533 -10.28525
 Alpha  occ. eigenvalues --  -10.28521 -10.28438 -10.28389 -10.28282 -10.28175
 Alpha  occ. eigenvalues --  -10.28123 -10.28063 -10.27991 -10.27906 -10.27791
 Alpha  occ. eigenvalues --  -10.27785 -10.27744 -10.27722 -10.27719 -10.27692
 Alpha  occ. eigenvalues --  -10.27597 -10.27560 -10.27146 -10.26888 -10.26871
 Alpha  occ. eigenvalues --  -10.26603 -10.26426 -10.26426 -10.26421 -10.26292
 Alpha  occ. eigenvalues --  -10.26258 -10.26218 -10.26204 -10.26174 -10.25970
 Alpha  occ. eigenvalues --  -10.25943 -10.25884 -10.25749 -10.25553 -10.25383
 Alpha  occ. eigenvalues --  -10.25135  -3.18756  -3.16737  -1.93619  -1.93231
 Alpha  occ. eigenvalues --   -1.93046  -1.91642  -1.91178  -1.91068  -1.16453
 Alpha  occ. eigenvalues --   -1.15458  -1.11503  -1.10654  -1.09098  -1.07791
 Alpha  occ. eigenvalues --   -1.07757  -1.07046  -1.04783  -1.04312  -1.03885
 Alpha  occ. eigenvalues --   -1.03451  -1.02960  -1.02782  -1.01894  -1.01360
 Alpha  occ. eigenvalues --   -0.92510  -0.91590  -0.89016  -0.88898  -0.88561
 Alpha  occ. eigenvalues --   -0.88335  -0.87813  -0.87738  -0.87548  -0.87343
 Alpha  occ. eigenvalues --   -0.86710  -0.86306  -0.86046  -0.85663  -0.84848
 Alpha  occ. eigenvalues --   -0.84232  -0.83348  -0.82922  -0.82710  -0.82176
 Alpha  occ. eigenvalues --   -0.81915  -0.81880  -0.80805  -0.80739  -0.80365
 Alpha  occ. eigenvalues --   -0.79985  -0.78947  -0.77535  -0.77402  -0.77287
 Alpha  occ. eigenvalues --   -0.76960  -0.76704  -0.76418  -0.75745  -0.75321
 Alpha  occ. eigenvalues --   -0.74528  -0.72812  -0.72058  -0.72051  -0.71453
 Alpha  occ. eigenvalues --   -0.69931  -0.69402  -0.69395  -0.68599  -0.68259
 Alpha  occ. eigenvalues --   -0.68218  -0.67158  -0.67049  -0.65896  -0.65495
 Alpha  occ. eigenvalues --   -0.65112  -0.64893  -0.64836  -0.64627  -0.63927
 Alpha  occ. eigenvalues --   -0.63748  -0.63716  -0.61248  -0.60621  -0.60029
 Alpha  occ. eigenvalues --   -0.59478  -0.59272  -0.58956  -0.58680  -0.58177
 Alpha  occ. eigenvalues --   -0.57794  -0.57778  -0.57495  -0.57345  -0.56757
 Alpha  occ. eigenvalues --   -0.56293  -0.56135  -0.56090  -0.55930  -0.55489
 Alpha  occ. eigenvalues --   -0.55062  -0.54506  -0.54299  -0.54222  -0.53937
 Alpha  occ. eigenvalues --   -0.53666  -0.53663  -0.53227  -0.53213  -0.53061
 Alpha  occ. eigenvalues --   -0.52785  -0.52495  -0.52193  -0.51927  -0.51883
 Alpha  occ. eigenvalues --   -0.51732  -0.51636  -0.51440  -0.51422  -0.51139
 Alpha  occ. eigenvalues --   -0.51086  -0.50815  -0.50697  -0.50552  -0.50465
 Alpha  occ. eigenvalues --   -0.50047  -0.50046  -0.49939  -0.49716  -0.49551
 Alpha  occ. eigenvalues --   -0.49518  -0.49410  -0.49303  -0.48988  -0.48933
 Alpha  occ. eigenvalues --   -0.48865  -0.48690  -0.48487  -0.48375  -0.48090
 Alpha  occ. eigenvalues --   -0.48037  -0.47569  -0.47369  -0.47312  -0.47237
 Alpha  occ. eigenvalues --   -0.46948  -0.46860  -0.46671  -0.46315  -0.46162
 Alpha  occ. eigenvalues --   -0.46081  -0.46058  -0.45713  -0.45689  -0.45577
 Alpha  occ. eigenvalues --   -0.45556  -0.45324  -0.45204  -0.45188  -0.45142
 Alpha  occ. eigenvalues --   -0.44882  -0.44839  -0.44631  -0.44248  -0.44160
 Alpha  occ. eigenvalues --   -0.43974  -0.43954  -0.43856  -0.43636  -0.43449
 Alpha  occ. eigenvalues --   -0.43385  -0.43267  -0.43105  -0.43053  -0.42984
 Alpha  occ. eigenvalues --   -0.42876  -0.42783  -0.42533  -0.42324  -0.42224
 Alpha  occ. eigenvalues --   -0.42212  -0.42082  -0.42001  -0.41734  -0.41496
 Alpha  occ. eigenvalues --   -0.41267  -0.41234  -0.40892  -0.40374  -0.40314
 Alpha  occ. eigenvalues --   -0.40168  -0.39919  -0.39207  -0.39097  -0.39057
 Alpha  occ. eigenvalues --   -0.38944  -0.38480  -0.38203  -0.38121  -0.37969
 Alpha  occ. eigenvalues --   -0.37274  -0.37191  -0.36781  -0.36633  -0.36317
 Alpha  occ. eigenvalues --   -0.36254  -0.35874  -0.34687  -0.34516  -0.34392
 Alpha  occ. eigenvalues --   -0.34126  -0.33158  -0.33156  -0.31372  -0.31296
 Alpha  occ. eigenvalues --   -0.31205  -0.30912  -0.30902  -0.30608  -0.30496
 Alpha  occ. eigenvalues --   -0.30470  -0.30011  -0.29730  -0.24033  -0.23966
 Alpha  occ. eigenvalues --   -0.21393  -0.20409
 Alpha virt. eigenvalues --   -0.08634  -0.07868  -0.02120  -0.02078  -0.00192
 Alpha virt. eigenvalues --    0.00095   0.00765   0.02008   0.02188   0.03277
 Alpha virt. eigenvalues --    0.04437   0.04510   0.04974   0.05490   0.05895

 Mulliken charges:
               1
     1  Mg   0.821344
     2  C    0.141326
     3  C   -0.072397
     4  C   -0.088191
     5  C   -0.079395
     6  N   -0.220278
     7  C   -0.143018
     8  C    0.066447
     9  C   -0.054805
    10  C   -0.010676
    11  C    0.063591
    12  C    0.064043
    13  C   -0.078567
    14  H    0.015500
    15  N   -0.372578
    16  C    0.163217
    17  C   -0.137170
    18  C   -0.058536
    19  C    0.190600
    20  C    0.093535
    21  C   -0.010341
    22  O   -0.168291
    23  C    0.051851
    24  N   -0.300579
    25  C   -0.021013
    26  C   -0.011934
    27  C   -0.040261
    28  C    0.045005
    29  C    0.055020
    30  C    0.036441
    31  C   -0.036875
    32  N   -0.352632
    33  C    0.125099
    34  C   -0.196528
    35  C    0.022502
    36  C    0.045490
    37  C    0.117943
    38  C    0.064006
    39  O   -0.137406
    40  C   -0.139019
    41  C    0.228295
    42  O   -0.237474
    43  O   -0.322918
    44  C    0.183484
    45  H   -0.018135
    46  H   -0.048441
    47  H   -0.045697
    48  H    0.002314
    49  H   -0.000442
    50  H    0.003825
    51  H    0.026708
    52  H    0.004879
    53  H    0.013110
    54  H    0.020357
    55  H    0.050676
    56  H    0.037473
    57  H    0.040188
    58  H    0.005490
    59  H    0.031851
    60  H    0.019337
    61  H    0.059873
    62  H    0.032468
    63  H    0.026035
    64  H    0.015640
    65  H    0.028247
    66  H    0.025957
    67  H    0.028341
    68  H    0.025555
    69  H    0.018997
    70  H    0.017231
    71  H    0.020681
    72  H    0.021742
    73  H    0.015707
    74  H    0.029790
    75  H    0.034199
    76  H    0.055834
    77  H    0.031227
    78  H    0.037711
    79  H    0.027414
    80  Mg   0.842089
    81  C   -0.020542
    82  C   -0.090095
    83  C   -0.079635
    84  C   -0.078343
    85  N   -0.250686
    86  C   -0.044718
    87  C   -0.012987
    88  C   -0.082150
    89  C   -0.014503
    90  C    0.091558
    91  C    0.015926
    92  C   -0.044477
    93  H    0.032165
    94  N   -0.411453
    95  C    0.200974
    96  C   -0.144021
    97  C   -0.033959
    98  C    0.153125
    99  C    0.122192
   100  C   -0.007224
   101  O   -0.241933
   102  C    0.080580
   103  N   -0.275389
   104  C    0.019551
   105  C   -0.035736
   106  C    0.002849
   107  C    0.012036
   108  C    0.060821
   109  C    0.002621
   110  C    0.023782
   111  N   -0.368222
   112  C    0.111823
   113  C   -0.177362
   114  C    0.032715
   115  C    0.112076
   116  C    0.110961
   117  C    0.072028
   118  O   -0.179418
   119  C   -0.071633
   120  C    0.225346
   121  O   -0.190686
   122  O   -0.375625
   123  C    0.183811
   124  H   -0.034868
   125  H   -0.005897
   126  H   -0.023957
   127  H    0.008536
   128  H    0.003670
   129  H    0.006437
   130  H    0.036721
   131  H    0.014641
   132  H    0.016668
   133  H    0.015054
   134  H    0.036664
   135  H    0.035926
   136  H    0.032159
   137  H    0.035684
   138  H    0.012025
   139  H    0.044587
   140  H    0.019931
   141  H    0.028090
   142  H    0.024688
   143  H    0.018542
   144  H    0.031729
   145  H    0.016263
   146  H    0.027660
   147  H    0.011362
   148  H   -0.004947
   149  H    0.019967
   150  H    0.018634
   151  H    0.014667
   152  H    0.037878
   153  H    0.005622
   154  H    0.037482
   155  H    0.063008
   156  H    0.049898
   157  H    0.033268
   158  H    0.033977
 Sum of Mulliken charges =  -0.00000

 Dipole moment (field-independent basis, Debye):
    X=              1.8263    Y=              4.6495    Z=             -5.3892  Tot=              7.3482
 Quadrupole moment (field-independent basis, Debye-Ang):
   XX=           -152.4418   YY=           -588.8371   ZZ=           -469.9261
   XY=             15.8824   XZ=             50.2799   YZ=              2.4460

 Normal termination of Gaussian 16 at Thu Sep  2 01:14:33 2021.
