 Gaussian 16, Revision A.03,
 Gaussian 16:  ES64L-G16RevA.03 25-Dec-2016

 ----------------------------------------------------------
 #p cam-b3lyp/Def2SVP td=(nstates=5) density=(transition=1)
 ----------------------------------------------------------

 --------------------------------
 TDDFT excited states in gaussian
 --------------------------------
 Symbolic Z-matrix:
 Charge =  0 Multiplicity = 1

                         Standard orientation:
 ---------------------------------------------------------------------
 Center     Atomic      Atomic             Coordinates (Angstroms)
 Number     Number       Type             X           Y           Z
 ---------------------------------------------------------------------
      1         12           0      -30.529310    0.220465    0.201946
      2          6           0      -27.786234   -1.884120   -0.214933
      3          6           0      -31.932683   -1.082986   -2.655747
      4          6           0      -32.978029    2.512151    0.594756
      5          6           0      -28.790726    1.765486    2.914867
      6          7           0      -29.851093   -1.214872   -1.285107
      7          6           0      -28.725208   -1.978444   -1.257409
      8          6           0      -28.715791   -3.004159   -2.398244
      9          6           0      -30.012784   -2.578634   -3.218655
     10          6           0      -30.652045   -1.542189   -2.288596
     11          6           0      -29.661929   -1.976952   -4.574105
     12          6           0      -28.901875   -4.504578   -1.974262
     13          6           0      -28.295403   -5.556284   -2.866465
     14          1           0      -27.872144   -5.199188   -4.220742
     15          7           0      -32.230942    0.579332   -0.815394
     16          6           0      -32.630090   -0.077312   -1.996698
     17          6           0      -33.968123    0.374547   -2.275142
     18          6           0      -34.337059    1.372616   -1.338111
     19          6           0      -33.157110    1.536049   -0.453633
     20          6           0      -34.725087   -0.002936   -3.530493
     21          6           0      -35.592188    2.118466   -1.156885
     22          8           0      -35.693667    3.085318   -0.432134
     23          6           0      -36.849598    1.786183   -2.039504
     24          7           0      -30.967257    1.843886    1.684995
     25          6           0      -32.005640    2.619122    1.587639
     26          6           0      -31.998566    3.722168    2.688449
     27          6           0      -30.728375    3.462437    3.477830
     28          6           0      -30.044287    2.316839    2.648340
     29          6           0      -32.171807    5.170943    2.029468
     30          6           0      -30.994028    3.124961    4.960202
     31          6           0      -30.894065    4.306109    5.996440
     32          7           0      -28.871659   -0.119186    1.314892
     33          6           0      -28.274678    0.584209    2.390454
     34          6           0      -27.073529   -0.035188    2.803859
     35          6           0      -26.821538   -0.976023    1.716888
     36          6           0      -27.983343   -0.971879    0.893096
     37          6           0      -26.115580    0.490109    3.857436
     38          6           0      -25.818468   -1.865288    1.259444
     39          8           0      -24.729647   -2.184805    1.719931
     40          6           0      -26.503324   -2.603988   -0.069561
     41          6           0      -25.499295   -2.433954   -1.171640
     42          8           0      -25.088724   -1.343256   -1.581835
     43          8           0      -24.955373   -3.675432   -1.616323
     44          6           0      -23.936296   -3.585066   -2.708375
     45          1           0      -32.316669   -1.540066   -3.570914
     46          1           0      -33.703838    3.325647    0.538550
     47          1           0      -28.239973    2.166201    3.768005
     48          1           0      -27.799518   -2.822760   -2.960502
     49          1           0      -30.678893   -3.416435   -3.424369
     50          1           0      -28.626847   -2.186169   -4.842811
     51          1           0      -29.899658   -0.914803   -4.638655
     52          1           0      -30.149009   -2.471523   -5.414525
     53          1           0      -29.971318   -4.683368   -1.868386
     54          1           0      -28.540188   -4.581845   -0.948693
     55          1           0      -29.068365   -6.304142   -3.042116
     56          1           0      -27.429702   -5.990268   -2.366080
     57          1           0      -34.883586    0.838047   -4.205484
     58          1           0      -35.668251   -0.460784   -3.229377
     59          1           0      -34.240575   -0.729112   -4.182995
     60          1           0      -36.690434    2.302498   -2.986531
     61          1           0      -37.734541    2.272913   -1.629314
     62          1           0      -36.919197    0.716081   -2.230962
     63          1           0      -32.898659    3.497985    3.261184
     64          1           0      -30.014065    4.277856    3.374943
     65          1           0      -31.343800    5.821556    2.310568
     66          1           0      -33.038577    5.717853    2.401071
     67          1           0      -32.159775    4.982640    0.955132
     68          1           0      -30.254837    2.370718    5.232336
     69          1           0      -31.976234    2.653751    4.999635
     70          1           0      -29.847393    4.400307    6.287905
     71          1           0      -31.540479    4.294860    6.874215
     72          1           0      -31.098090    5.154691    5.344332
     73          1           0      -26.534064    0.102606    4.785945
     74          1           0      -26.114935    1.579048    3.887663
     75          1           0      -25.052606    0.335952    3.667498
     76          1           0      -26.707537   -3.646829    0.176233
     77          1           0      -23.048782   -3.042231   -2.385183
     78          1           0      -24.233541   -3.144811   -3.660546
     79          1           0      -23.685584   -4.642553   -2.791815
     80         12           0       30.638270   -0.071137   -0.759613
     81          6           0       27.450246   -1.096296    0.416826
     82          6           0       29.028307    2.571551   -2.369378
     83          6           0       33.562578    1.439910   -0.795755
     84          6           0       32.011614   -2.759290    1.312037
     85          7           0       28.437227    0.789334   -0.731128
     86          6           0       27.347657    0.045413   -0.417231
     87          6           0       26.105531    0.710169   -0.982989
     88          6           0       26.606340    1.425010   -2.238144
     89          6           0       28.121636    1.669382   -1.740991
     90          6           0       26.618208    0.656476   -3.560852
     91          6           0       25.423382    1.608625    0.138746
     92          6           0       23.956988    1.429324    0.188426
     93          1           0       23.090190    2.688928    0.380856
     94          7           0       31.264590    1.819016   -1.450577
     95          6           0       30.448288    2.731673   -2.163809
     96          6           0       31.303610    3.825440   -2.550160
     97          6           0       32.650276    3.530663   -2.208944
     98          6           0       32.572293    2.241714   -1.433446
     99          6           0       30.732781    5.041315   -3.273165
    100          6           0       33.821558    4.401025   -2.441589
    101          8           0       33.653219    5.482106   -2.992093
    102          6           0       35.225922    4.159516   -1.994397
    103          7           0       32.553278   -0.599039    0.268946
    104          6           0       33.603524    0.141530   -0.137635
    105          6           0       34.926827   -0.481967    0.341909
    106          6           0       34.469254   -1.942722    0.904936
    107          6           0       32.927673   -1.812733    0.799333
    108          6           0       36.097711   -0.466544   -0.740848
    109          6           0       34.997752   -2.311528    2.326471
    110          6           0       34.032613   -2.096450    3.541832
    111          7           0       29.955901   -1.570248    0.539190
    112          6           0       30.634872   -2.608858    1.237865
    113          6           0       29.595461   -3.588713    1.779423
    114          6           0       28.391032   -2.964653    1.496347
    115          6           0       28.667161   -1.771380    0.737407
    116          6           0       29.717757   -4.926319    2.534457
    117          6           0       26.972248   -3.097182    1.596769
    118          8           0       26.286281   -4.018355    2.042844
    119          6           0       26.412817   -1.834969    1.044412
    120          6           0       25.898688   -1.102732    2.305005
    121          8           0       26.565052   -0.473680    3.124286
    122          8           0       24.500957   -1.352018    2.393791
    123          6           0       23.812940   -0.889780    3.530149
    124          1           0       28.582529    3.365287   -2.972688
    125          1           0       34.510161    1.936620   -1.013449
    126          1           0       32.320575   -3.672042    1.824386
    127          1           0       25.368185   -0.000338   -1.356320
    128          1           0       26.149589    2.359861   -2.560971
    129          1           0       25.966907   -0.217038   -3.568006
    130          1           0       27.633143    0.508868   -3.930744
    131          1           0       26.149124    1.367588   -4.241829
    132          1           0       25.606458    2.656803   -0.097949
    133          1           0       25.897718    1.539202    1.117724
    134          1           0       23.851603    0.727658    1.015093
    135          1           0       23.639097    0.961822   -0.743380
    136          1           0       30.974864    5.055884   -4.335664
    137          1           0       31.053358    5.940444   -2.748989
    138          1           0       29.644150    5.037664   -3.216777
    139          1           0       35.622336    3.316410   -2.560729
    140          1           0       35.359887    3.965654   -0.929468
    141          1           0       35.899784    4.937052   -2.352132
    142          1           0       35.186079    0.133953    1.202768
    143          1           0       34.740837   -2.697267    0.167463
    144          1           0       35.944052    0.325518   -1.473608
    145          1           0       36.377390   -1.398740   -1.233087
    146          1           0       36.988272   -0.368099   -0.118142
    147          1           0       35.937213   -1.812468    2.562680
    148          1           0       35.166407   -3.384077    2.233142
    149          1           0       34.818086   -1.863927    4.261287
    150          1           0       33.457015   -2.950844    3.898592
    151          1           0       33.423435   -1.218491    3.325938
    152          1           0       29.218353   -5.728367    1.992056
    153          1           0       29.045015   -4.670176    3.352382
    154          1           0       30.756143   -5.032458    2.847691
    155          1           0       25.565097   -2.065346    0.399023
    156          1           0       22.747701   -1.123743    3.543404
    157          1           0       23.915551    0.194411    3.552738
    158          1           0       24.308176   -1.373278    4.372690
 ---------------------------------------------------------------------

 SCF Done:  E(RCAM-B3LYP) =  -4069.79327078     A.U. after   19 cycles

 Excitation energies and oscillator strengths:

 Excited State   1:      Singlet-A      1.6843 eV  736.14 nm  f=0.3548  <S**2>=0.000
     310 -> 315       -0.19724
     312 -> 314        0.68021
     310 <- 315       -0.11212
 This state for optimization and/or second-order correction.
 Total Energy, E(TD-HF/TD-DFT) =  -4069.73137559
 Copying the excited state density for this state as the 1-particle RhoCI density.

 Excited State   2:      Singlet-A      1.7264 eV  718.16 nm  f=0.3742  <S**2>=0.000
     309 -> 316       -0.17541
     311 -> 313        0.68643
     309 <- 316       -0.10553

 Excited State   3:      Singlet-A      2.1915 eV  565.74 nm  f=0.0564  <S**2>=0.000
     310 -> 314        0.61457
     312 -> 315        0.33938

 Excited State   4:      Singlet-A      2.2226 eV  557.83 nm  f=0.1463  <S**2>=0.000
     309 -> 313        0.65064
     311 -> 316        0.26125

 Excited State   5:      Singlet-A      3.1052 eV  399.28 nm  f=0.0000  <S**2>=0.000
     312 -> 313        0.70710

 The electronic state is 1-A.
 Alpha  occ. eigenvalues --  -46.91300 -46.87987 -19.24707 -19.24151 -19.21399
 Alpha  occ. eigenvalues --  -19.19452 -19.19272 -19.18910 -19.18221 -19.17572
 Alpha  occ. eigenvalues --  -14.42687 -14.42406 -14.41941 -14.41650 -14.40242
 Alpha  occ. eigenvalues --  -14.40171 -14.39760 -14.39352 -10.40590 -10.39066
 Alpha  occ. eigenvalues --  -10.35472 -10.34559 -10.34339 -10.34125 -10.31829
 Alpha  occ. eigenvalues --  -10.31699 -10.31610 -10.31427 -10.31401 -10.31305
 Alpha  occ. eigenvalues --  -10.31189 -10.31158 -10.31049 -10.30973 -10.30853
 Alpha  occ. eigenvalues --  -10.30830 -10.30811 -10.30693 -10.30079 -10.29700
 Alpha  occ. eigenvalues --  -10.29465 -10.29390 -10.28900 -10.28868 -10.28780
 Alpha  occ. eigenvalues --  -10.28520 -10.28488 -10.28410 -10.28371 -10.28197
 Alpha  occ. eigenvalues --  -10.28145 -10.28105 -10.28049 -10.27936 -10.27905
 Alpha  occ. eigenvalues --  -10.27848 -10.27772 -10.27770 -10.27759 -10.27663
 Alpha  occ. eigenvalues --  -10.27614 -10.27605 -10.27554 -10.27503 -10.27477
 Alpha  occ. eigenvalues --  -10.27353 -10.27162 -10.27106 -10.27093 -10.26882
 Alpha  occ. eigenvalues --  -10.26811 -10.26780 -10.26366 -10.26360 -10.26347
 Alpha  occ. eigenvalues --  -10.26328 -10.26231 -10.25994 -10.25861 -10.25854
 Alpha  occ. eigenvalues --  -10.25804 -10.25770 -10.25667 -10.25271 -10.24975
 Alpha  occ. eigenvalues --  -10.24533  -3.19499  -3.16683  -1.94341  -1.94007
 Alpha  occ. eigenvalues --   -1.93755  -1.91594  -1.91131  -1.91001  -1.15817
 Alpha  occ. eigenvalues --   -1.13447  -1.11128  -1.09598  -1.09356  -1.08648
 Alpha  occ. eigenvalues --   -1.08627  -1.05826  -1.05198  -1.04200  -1.03955
 Alpha  occ. eigenvalues --   -1.03448  -1.03383  -1.02835  -1.02427  -1.01274
 Alpha  occ. eigenvalues --   -0.94377  -0.92107  -0.89298  -0.89168  -0.88981
 Alpha  occ. eigenvalues --   -0.88720  -0.88414  -0.87799  -0.87772  -0.87492
 Alpha  occ. eigenvalues --   -0.87265  -0.86847  -0.86272  -0.85570  -0.84776
 Alpha  occ. eigenvalues --   -0.84337  -0.83659  -0.82993  -0.82701  -0.82210
 Alpha  occ. eigenvalues --   -0.81640  -0.81501  -0.80854  -0.80398  -0.80270
 Alpha  occ. eigenvalues --   -0.80034  -0.78796  -0.78034  -0.77277  -0.77269
 Alpha  occ. eigenvalues --   -0.76875  -0.76871  -0.76000  -0.75870  -0.75204
 Alpha  occ. eigenvalues --   -0.75068  -0.73129  -0.72745  -0.71838  -0.71625
 Alpha  occ. eigenvalues --   -0.69915  -0.69573  -0.68982  -0.68711  -0.67992
 Alpha  occ. eigenvalues --   -0.67314  -0.67297  -0.66865  -0.65795  -0.65339
 Alpha  occ. eigenvalues --   -0.65260  -0.64967  -0.64959  -0.64709  -0.64618
 Alpha  occ. eigenvalues --   -0.64541  -0.62209  -0.61403  -0.60357  -0.59928
 Alpha  occ. eigenvalues --   -0.59765  -0.59649  -0.59327  -0.59269  -0.58897
 Alpha  occ. eigenvalues --   -0.58540  -0.58258  -0.57789  -0.57361  -0.57033
 Alpha  occ. eigenvalues --   -0.56268  -0.56196  -0.55956  -0.55636  -0.54982
 Alpha  occ. eigenvalues --   -0.54945  -0.54636  -0.54554  -0.54012  -0.53673
 Alpha  occ. eigenvalues --   -0.53402  -0.53389  -0.53242  -0.53030  -0.52911
 Alpha  occ. eigenvalues --   -0.52637  -0.52499  -0.52379  -0.52265  -0.52176
 Alpha  occ. eigenvalues --   -0.52057  -0.51960  -0.51666  -0.51602  -0.51387
 Alpha  occ. eigenvalues --   -0.51301  -0.51026  -0.50569  -0.50549  -0.50180
 Alpha  occ. eigenvalues --   -0.50145  -0.49963  -0.49878  -0.49615  -0.49521
 Alpha  occ. eigenvalues --   -0.49398  -0.49295  -0.49225  -0.49092  -0.48946
 Alpha  occ. eigenvalues --   -0.48577  -0.48474  -0.48391  -0.48262  -0.48154
 Alpha  occ. eigenvalues --   -0.47754  -0.47664  -0.47507  -0.47466  -0.47224
 Alpha  occ. eigenvalues --   -0.47164  -0.47150  -0.46941  -0.46845  -0.46717
 Alpha  occ. eigenvalues --   -0.46090  -0.45942  -0.45896  -0.45865  -0.45780
 Alpha  occ. eigenvalues --   -0.45431  -0.45297  -0.45140  -0.45081  -0.45057
 Alpha  occ. eigenvalues --   -0.44697  -0.44565  -0.44544  -0.44445  -0.44263
 Alpha  occ. eigenvalues --   -0.44133  -0.44099  -0.43902  -0.43788  -0.43472
 Alpha  occ. eigenvalues --   -0.43382  -0.43303  -0.43027  -0.42999  -0.42893
 Alpha  occ. eigenvalues --   -0.42623  -0.42484  -0.42327  -0.42037  -0.42008
 Alpha  occ. eigenvalues --   -0.41847  -0.41596  -0.41504  -0.41311  -0.41295
 Alpha  occ. eigenvalues --   -0.41005  -0.40972  -0.40825  -0.40424  -0.40272
 Alpha  occ. eigenvalues --   -0.40080  -0.39872  -0.39436  -0.39168  -0.38632
 Alpha  occ. eigenvalues --   -0.38554  -0.38265  -0.37919  -0.37787  -0.37632
 Alpha  occ. eigenvalues --   -0.37240  -0.36994  -0.36511  -0.36321  -0.36170
 Alpha  occ. eigenvalues --   -0.35790  -0.35766  -0.35211  -0.34382  -0.34213
 Alpha  occ. eigenvalues --   -0.33860  -0.33520  -0.33343  -0.31668  -0.31460
 Alpha  occ. eigenvalues --   -0.31083  -0.30806  -0.30563  -0.30518  -0.30212
 Alpha  occ. eigenvalues --   -0.29783  -0.29491  -0.29475  -0.24196  -0.24046
 Alpha  occ. eigenvalues --   -0.21554  -0.21034
 Alpha virt. eigenvalues --   -0.09065  -0.08527  -0.02612  -0.01662  -0.00601
 Alpha virt. eigenvalues --    0.00138   0.00203   0.02173   0.02390   0.03735
 Alpha virt. eigenvalues --    0.04701   0.04711   0.05171   0.05200   0.05900

 Mulliken charges:
               1
     1  Mg  12.000007
     2  C    5.999890
     3  C    6.000054
     4  C    6.000104
     5  C    5.999963
     6  N    6.999949
     7  C    6.000102
     8  C    5.999983
     9  C    6.000025
    10  C    5.999920
    11  C    6.000035
    12  C    5.999995
    13  C    5.999999
    14  H    1.000008
    15  N    6.999986
    16  C    5.999854
    17  C    5.999949
    18  C    5.999930
    19  C    5.999886
    20  C    6.000030
    21  C    5.999972
    22  O    7.999895
    23  C    6.000016
    24  N    7.000050
    25  C    5.999907
    26  C    6.000009
    27  C    5.999988
    28  C    6.000054
    29  C    6.000012
    30  C    5.999973
    31  C    6.000006
    32  N    7.000028
    33  C    6.000139
    34  C    6.000047
    35  C    6.000071
    36  C    6.000112
    37  C    5.999983
    38  C    6.000022
    39  O    8.000142
    40  C    6.000020
    41  C    6.000012
    42  O    8.000004
    43  O    8.000008
    44  C    5.999988
    45  H    0.999945
    46  H    0.999962
    47  H    1.000060
    48  H    0.999993
    49  H    0.999989
    50  H    0.999950
    51  H    0.999993
    52  H    0.999980
    53  H    1.000029
    54  H    0.999980
    55  H    1.000013
    56  H    1.000004
    57  H    0.999925
    58  H    0.999940
    59  H    0.999933
    60  H    0.999962
    61  H    0.999941
    62  H    0.999987
    63  H    1.000009
    64  H    0.999990
    65  H    0.999962
    66  H    0.999990
    67  H    1.000012
    68  H    0.999995
    69  H    1.000036
    70  H    0.999997
    71  H    1.000015
    72  H    1.000009
    73  H    1.000063
    74  H    1.000057
    75  H    1.000063
    76  H    1.000037
    77  H    1.000014
    78  H    1.000009
    79  H    1.000032
    80  Mg  12.001679
    81  C    6.024455
    82  C    5.979828
    83  C    5.979158
    84  C    6.023350
    85  N    7.003731
    86  C    5.971308
    87  C    6.003090
    88  C    5.998313
    89  C    6.030586
    90  C    5.998425
    91  C    6.005489
    92  C    6.000861
    93  H    0.993348
    94  N    6.985386
    95  C    6.052476
    96  C    6.016394
    97  C    6.013595
    98  C    6.040376
    99  C    5.993757
   100  C    6.008975
   101  O    8.022670
   102  C    5.996668
   103  N    7.004156
   104  C    6.033709
   105  C    5.987160
   106  C    6.014955
   107  C    5.959204
   108  C    5.996666
   109  C    5.998911
   110  C    6.009170
   111  N    7.007763
   112  C    5.945355
   113  C    5.974166
   114  C    5.996205
   115  C    5.967046
   116  C    5.999769
   117  C    5.982806
   118  O    7.968445
   119  C    6.001926
   120  C    5.997898
   121  O    7.995138
   122  O    7.998585
   123  C    6.002363
   124  H    1.008940
   125  H    1.002749
   126  H    0.990097
   127  H    1.001131
   128  H    1.000780
   129  H    1.014880
   130  H    0.997762
   131  H    1.001975
   132  H    0.986696
   133  H    1.002611
   134  H    1.005809
   135  H    0.997006
   136  H    1.020591
   137  H    1.016898
   138  H    1.018819
   139  H    1.011296
   140  H    1.011821
   141  H    1.012121
   142  H    1.000816
   143  H    0.994407
   144  H    0.991130
   145  H    1.006520
   146  H    1.005004
   147  H    0.989049
   148  H    0.999427
   149  H    0.990540
   150  H    1.003619
   151  H    0.997991
   152  H    0.982374
   153  H    0.986473
   154  H    0.983835
   155  H    0.991071
   156  H    0.995529
   157  H    0.994043
   158  H    1.000879
 Sum of Mulliken charges = 624.00000

 Dipole moment (field-independent basis, Debye):
    X=              3.1563    Y=              8.4871    Z=             -5.3942  Tot=             10.5400
 Quadrupole moment (field-independent basis, Debye-Ang):
   XX=            185.5469   YY=              3.6258   ZZ=              4.0617
   XY=            262.0946   XZ=           -165.6281   YZ=             -4.6222

 Normal termination of Gaussian 16 at Thu Sep 23 06:18:31 2021.
