 Gaussian 16, Revision A.03,
 Gaussian 16:  ES64L-G16RevA.03 25-Dec-2016

 -----------------------------------
 #p cam-b3lyp/Def2SVP td=(nstates=5)
 -----------------------------------

 --------------------------------
 TDDFT excited states in gaussian
 --------------------------------
 Symbolic Z-matrix:
 Charge =  0 Multiplicity = 1

                         Standard orientation:
 ---------------------------------------------------------------------
 Center     Atomic      Atomic             Coordinates (Angstroms)
 Number     Number       Type             X           Y           Z
 ---------------------------------------------------------------------
      1         12           0      -32.449972   -0.277871   -0.189898
      2          6           0      -29.430708    1.476054    0.053148
      3          6           0      -30.814219   -2.861247    1.426009
      4          6           0      -35.366999   -1.895149   -0.058122
      5          6           0      -34.087174    2.698257   -1.016107
      6          7           0      -30.273515   -0.531548    0.852507
      7          6           0      -29.215393    0.285379    0.688546
      8          6           0      -27.950142   -0.228232    1.332726
      9          6           0      -28.415196   -1.727786    1.472703
     10          6           0      -29.930249   -1.756584    1.299149
     11          6           0      -27.776327   -2.587434    0.349474
     12          6           0      -27.586776    0.588241    2.579448
     13          6           0      -28.698465    1.055403    3.541938
     14          1           0      -28.456291    0.783906    5.021980
     15          7           0      -33.011126   -2.098995    0.553988
     16          6           0      -32.158280   -3.041716    1.063938
     17          6           0      -32.816156   -4.353923    1.014568
     18          6           0      -34.218296   -4.102171    0.732642
     19          6           0      -34.226250   -2.650066    0.378020
     20          6           0      -32.144867   -5.667111    1.571892
     21          6           0      -35.364757   -5.114544    0.794258
     22          8           0      -35.141366   -6.280448    0.966079
     23          6           0      -36.781041   -4.658807    0.591975
     24          7           0      -34.500692    0.434707   -0.300922
     25          6           0      -35.584728   -0.462213   -0.328187
     26          6           0      -36.969496    0.249113   -0.637580
     27          6           0      -36.483336    1.731715   -1.003823
     28          6           0      -34.902826    1.619756   -0.802868
     29          6           0      -37.986187   -0.382559   -1.714213
     30          6           0      -37.143544    2.942891   -0.199980
     31          6           0      -37.274939    4.240729   -1.140384
     32          7           0      -31.921859    1.719863   -0.502323
     33          6           0      -32.685890    2.789994   -0.921451
     34          6           0      -31.816763    3.938478   -1.147010
     35          6           0      -30.496590    3.508850   -0.854578
     36          6           0      -30.624563    2.152307   -0.383883
     37          6           0      -32.212752    5.257700   -1.756705
     38          6           0      -29.046507    3.858369   -0.703197
     39          8           0      -28.483973    4.925415   -0.808408
     40          6           0      -28.354086    2.532047   -0.171853
     41          6           0      -27.349806    2.125227   -1.214915
     42          8           0      -26.232034    2.678500   -1.367477
     43          8           0      -27.786658    0.976309   -1.858278
     44          6           0      -26.831404    0.349052   -2.709190
     45          1           0      -30.276780   -3.710910    1.852457
     46          1           0      -36.334303   -2.365279   -0.248412
     47          1           0      -34.581679    3.562211   -1.465281
     48          1           0      -27.118757   -0.250245    0.628410
     49          1           0      -28.198507   -2.244006    2.406956
     50          1           0      -28.512623   -3.354348    0.107813
     51          1           0      -26.796778   -2.951411    0.656252
     52          1           0      -27.640387   -2.152085   -0.641021
     53          1           0      -27.165704    1.520667    2.204706
     54          1           0      -26.831244    0.034576    3.137009
     55          1           0      -29.619806    0.526851    3.298513
     56          1           0      -28.791964    2.137065    3.449535
     57          1           0      -32.145582   -5.761369    2.658149
     58          1           0      -31.118773   -5.732878    1.209926
     59          1           0      -32.541620   -6.606895    1.189568
     60          1           0      -37.499523   -5.448597    0.813747
     61          1           0      -36.976023   -4.298746   -0.418390
     62          1           0      -36.895510   -3.931428    1.396103
     63          1           0      -37.411252    0.213522    0.357545
     64          1           0      -36.632794    1.941079   -2.062642
     65          1           0      -38.644714   -1.060013   -1.171863
     66          1           0      -37.454004   -0.910763   -2.504858
     67          1           0      -38.539975    0.431363   -2.182582
     68          1           0      -36.482891    3.292641    0.593232
     69          1           0      -38.094525    2.647881    0.244221
     70          1           0      -36.695016    5.072831   -0.740933
     71          1           0      -38.320300    4.543197   -1.194965
     72          1           0      -36.873487    4.203573   -2.152495
     73          1           0      -32.990791    5.702033   -1.136883
     74          1           0      -32.616468    5.091915   -2.755750
     75          1           0      -31.386221    5.967609   -1.783310
     76          1           0      -27.771767    2.868854    0.685510
     77          1           0      -27.244499   -0.587852   -3.082204
     78          1           0      -25.860953    0.265149   -2.219714
     79          1           0      -26.684929    0.901634   -3.637213
     80         12           0       32.447015    0.317070   -0.294746
     81          6           0       29.731851   -1.728150    0.352163
     82          6           0       30.867397    2.899132    1.379028
     83          6           0       35.383905    1.981255   -0.293586
     84          6           0       34.011517   -2.536713   -1.653386
     85          7           0       30.623876    0.462197    0.998847
     86          6           0       29.639785   -0.437666    0.917413
     87          6           0       28.438157    0.002339    1.809698
     88          6           0       28.689708    1.581211    1.900959
     89          6           0       30.149891    1.703727    1.319146
     90          6           0       27.581087    2.409485    1.207830
     91          6           0       28.541833   -0.625057    3.181208
     92          6           0       27.232201   -1.116791    3.777590
     93          1           0       26.894535   -0.995881    5.311374
     94          7           0       32.962217    2.297139    0.315703
     95          6           0       32.237440    3.171534    1.034655
     96          6           0       33.021676    4.353327    1.191185
     97          6           0       34.289478    4.184867    0.556219
     98          6           0       34.269672    2.784880    0.114528
     99          6           0       32.445889    5.600482    1.752781
    100          6           0       35.386785    5.187934    0.603052
    101          8           0       35.200783    6.276554    1.120961
    102          6           0       36.739652    4.922626   -0.046520
    103          7           0       34.475838   -0.221012   -1.002451
    104          6           0       35.489482    0.665206   -0.794122
    105          6           0       36.813425    0.022412   -1.052182
    106          6           0       36.348856   -1.447793   -1.485811
    107          6           0       34.840498   -1.443732   -1.460868
    108          6           0       37.706485    0.765740   -2.063127
    109          6           0       36.972931   -2.651447   -0.649936
    110          6           0       37.658707   -3.836210   -1.370120
    111          7           0       32.004932   -1.677424   -0.622300
    112          6           0       32.695362   -2.674507   -1.236614
    113          6           0       31.836226   -3.727530   -1.553729
    114          6           0       30.611106   -3.426271   -0.975158
    115          6           0       30.784698   -2.211382   -0.360919
    116          6           0       32.269727   -5.030022   -2.288152
    117          6           0       29.302882   -3.843459   -0.775247
    118          8           0       28.802537   -4.925202   -1.062717
    119          6           0       28.577727   -2.773265    0.174981
    120          6           0       27.504274   -2.120417   -0.483348
    121          8           0       27.501713   -1.228205   -1.334846
    122          8           0       26.340489   -2.678777    0.036362
    123          6           0       25.034393   -2.238382   -0.423005
    124          1           0       30.317391    3.759682    1.764958
    125          1           0       36.393972    2.391298   -0.364350
    126          1           0       34.562801   -3.325488   -2.169710
    127          1           0       27.521085   -0.310621    1.311335
    128          1           0       28.835119    1.949726    2.915899
    129          1           0       26.869899    1.773267    0.681378
    130          1           0       28.035731    3.113565    0.510200
    131          1           0       27.093272    3.009399    1.975757
    132          1           0       29.037127   -0.050096    3.963907
    133          1           0       29.275838   -1.421347    3.057802
    134          1           0       27.113031   -2.148648    3.447619
    135          1           0       26.511677   -0.523090    3.215063
    136          1           0       32.192402    6.169202    0.858324
    137          1           0       33.162708    6.122610    2.386832
    138          1           0       31.555362    5.428321    2.357380
    139          1           0       37.285347    4.295272    0.658444
    140          1           0       37.265490    5.876880   -0.026562
    141          1           0       36.614640    4.470924   -1.030528
    142          1           0       37.233066    0.049238   -0.047076
    143          1           0       36.708283   -1.703688   -2.482538
    144          1           0       38.493906    1.236475   -1.473575
    145          1           0       37.157339    1.494315   -2.660442
    146          1           0       38.190560    0.040944   -2.717231
    147          1           0       36.178631   -3.097037   -0.051245
    148          1           0       37.767619   -2.331535    0.024389
    149          1           0       36.796671   -4.491132   -1.496228
    150          1           0       38.372813   -4.321316   -0.705931
    151          1           0       37.998083   -3.729541   -2.400349
    152          1           0       32.845319   -5.640828   -1.593832
    153          1           0       32.945519   -4.902147   -3.133983
    154          1           0       31.399856   -5.602447   -2.611452
    155          1           0       28.290579   -3.322815    1.071575
    156          1           0       24.367014   -3.096600   -0.350750
    157          1           0       25.025126   -1.748134   -1.396852
    158          1           0       24.644566   -1.542793    0.320293
 ---------------------------------------------------------------------

 SCF Done:  E(RCAM-B3LYP) =  -4069.78161001     A.U. after   18 cycles

 Excitation energies and oscillator strengths:

 Excited State   1:      Singlet-A      1.6990 eV  729.74 nm  f=0.4010  <S**2>=0.000
     309 -> 315       -0.18502
     311 -> 313        0.68487
     309 <- 315       -0.10995
 This state for optimization and/or second-order correction.
 Total Energy, E(TD-HF/TD-DFT) =  -4069.71917244
 Copying the excited state density for this state as the 1-particle RhoCI density.

 Excited State   2:      Singlet-A      1.7468 eV  709.76 nm  f=0.3592  <S**2>=0.000
     310 -> 316        0.19411
     312 -> 314        0.68069
     310 <- 316        0.10947

 Excited State   3:      Singlet-A      2.2279 eV  556.51 nm  f=0.1013  <S**2>=0.000
     309 -> 313        0.63664
     311 -> 315        0.29395

 Excited State   4:      Singlet-A      2.2374 eV  554.14 nm  f=0.1036  <S**2>=0.000
     310 -> 314        0.63525
     312 -> 316       -0.29902

 Excited State   5:      Singlet-A      3.1769 eV  390.27 nm  f=0.0000  <S**2>=0.000
     312 -> 313        0.70711

 The electronic state is 1-A.
 Alpha  occ. eigenvalues --  -46.90398 -46.89694 -19.26042 -19.24644 -19.20197
 Alpha  occ. eigenvalues --  -19.20015 -19.19548 -19.19251 -19.19042 -19.18359
 Alpha  occ. eigenvalues --  -14.42355 -14.42262 -14.42025 -14.41815 -14.40526
 Alpha  occ. eigenvalues --  -14.39811 -14.39477 -14.39205 -10.39977 -10.39627
 Alpha  occ. eigenvalues --  -10.35790 -10.35308 -10.35235 -10.34626 -10.32833
 Alpha  occ. eigenvalues --  -10.31982 -10.31833 -10.31587 -10.31550 -10.31400
 Alpha  occ. eigenvalues --  -10.31313 -10.31147 -10.31131 -10.30910 -10.30852
 Alpha  occ. eigenvalues --  -10.30589 -10.30213 -10.29888 -10.29780 -10.29584
 Alpha  occ. eigenvalues --  -10.29551 -10.29444 -10.29267 -10.28959 -10.28836
 Alpha  occ. eigenvalues --  -10.28724 -10.28540 -10.28527 -10.28506 -10.28444
 Alpha  occ. eigenvalues --  -10.28395 -10.28343 -10.28334 -10.28320 -10.28181
 Alpha  occ. eigenvalues --  -10.28179 -10.28068 -10.27996 -10.27911 -10.27817
 Alpha  occ. eigenvalues --  -10.27802 -10.27796 -10.27790 -10.27765 -10.27748
 Alpha  occ. eigenvalues --  -10.27724 -10.27376 -10.27044 -10.26878 -10.26862
 Alpha  occ. eigenvalues --  -10.26801 -10.26610 -10.26536 -10.26432 -10.26296
 Alpha  occ. eigenvalues --  -10.26263 -10.26222 -10.26179 -10.26072 -10.26035
 Alpha  occ. eigenvalues --  -10.25948 -10.25904 -10.25889 -10.25856 -10.24911
 Alpha  occ. eigenvalues --  -10.24855  -3.18761  -3.18016  -1.93624  -1.93236
 Alpha  occ. eigenvalues --   -1.93051  -1.92930  -1.92467  -1.92310  -1.16459
 Alpha  occ. eigenvalues --   -1.15752  -1.11507  -1.10659  -1.10038  -1.09993
 Alpha  occ. eigenvalues --   -1.07529  -1.07052  -1.05517  -1.04789  -1.04090
 Alpha  occ. eigenvalues --   -1.03890  -1.03867  -1.02965  -1.02617  -1.01899
 Alpha  occ. eigenvalues --   -0.93905  -0.92515  -0.89484  -0.89160  -0.89022
 Alpha  occ. eigenvalues --   -0.88411  -0.88340  -0.87902  -0.87743  -0.87348
 Alpha  occ. eigenvalues --   -0.86886  -0.86201  -0.86051  -0.85668  -0.85433
 Alpha  occ. eigenvalues --   -0.84853  -0.84650  -0.83353  -0.83059  -0.82715
 Alpha  occ. eigenvalues --   -0.82264  -0.81884  -0.81490  -0.80810  -0.80807
 Alpha  occ. eigenvalues --   -0.80370  -0.78190  -0.77623  -0.77539  -0.77292
 Alpha  occ. eigenvalues --   -0.76709  -0.76574  -0.76518  -0.76423  -0.75326
 Alpha  occ. eigenvalues --   -0.75187  -0.73522  -0.72817  -0.72400  -0.72063
 Alpha  occ. eigenvalues --   -0.69936  -0.69832  -0.69407  -0.69269  -0.68223
 Alpha  occ. eigenvalues --   -0.68133  -0.67430  -0.67162  -0.66192  -0.65925
 Alpha  occ. eigenvalues --   -0.65901  -0.65496  -0.64898  -0.64871  -0.64841
 Alpha  occ. eigenvalues --   -0.64632  -0.63721  -0.62715  -0.60511  -0.60034
 Alpha  occ. eigenvalues --   -0.59900  -0.59277  -0.59137  -0.59111  -0.58961
 Alpha  occ. eigenvalues --   -0.58195  -0.58182  -0.58006  -0.57799  -0.57350
 Alpha  occ. eigenvalues --   -0.56365  -0.56297  -0.56163  -0.56095  -0.55494
 Alpha  occ. eigenvalues --   -0.55470  -0.55067  -0.54886  -0.54385  -0.54305
 Alpha  occ. eigenvalues --   -0.53668  -0.53551  -0.53409  -0.53218  -0.53066
 Alpha  occ. eigenvalues --   -0.52790  -0.52664  -0.52346  -0.52098  -0.52091
 Alpha  occ. eigenvalues --   -0.51933  -0.51843  -0.51640  -0.51513  -0.51445
 Alpha  occ. eigenvalues --   -0.51324  -0.51091  -0.50702  -0.50557  -0.50390
 Alpha  occ. eigenvalues --   -0.50149  -0.50051  -0.50025  -0.49943  -0.49721
 Alpha  occ. eigenvalues --   -0.49601  -0.49555  -0.49450  -0.49036  -0.48999
 Alpha  occ. eigenvalues --   -0.48938  -0.48695  -0.48397  -0.48380  -0.48304
 Alpha  occ. eigenvalues --   -0.47574  -0.47544  -0.47317  -0.47242  -0.46953
 Alpha  occ. eigenvalues --   -0.46894  -0.46764  -0.46717  -0.46675  -0.46620
 Alpha  occ. eigenvalues --   -0.46320  -0.46138  -0.46086  -0.45972  -0.45830
 Alpha  occ. eigenvalues --   -0.45694  -0.45561  -0.45487  -0.45329  -0.45308
 Alpha  occ. eigenvalues --   -0.45209  -0.45087  -0.44887  -0.44712  -0.44529
 Alpha  occ. eigenvalues --   -0.44253  -0.43959  -0.43915  -0.43861  -0.43642
 Alpha  occ. eigenvalues --   -0.43620  -0.43401  -0.43389  -0.43271  -0.43174
 Alpha  occ. eigenvalues --   -0.42989  -0.42881  -0.42788  -0.42229  -0.42217
 Alpha  occ. eigenvalues --   -0.42197  -0.42065  -0.42006  -0.41933  -0.41846
 Alpha  occ. eigenvalues --   -0.41739  -0.41453  -0.41239  -0.41079  -0.40379
 Alpha  occ. eigenvalues --   -0.40256  -0.39924  -0.39739  -0.39102  -0.38950
 Alpha  occ. eigenvalues --   -0.38300  -0.38223  -0.38126  -0.37978  -0.37385
 Alpha  occ. eigenvalues --   -0.37280  -0.37278  -0.37196  -0.36787  -0.36323
 Alpha  occ. eigenvalues --   -0.36282  -0.35682  -0.34927  -0.34693  -0.34398
 Alpha  occ. eigenvalues --   -0.34372  -0.33626  -0.33161  -0.31836  -0.31377
 Alpha  occ. eigenvalues --   -0.31213  -0.31210  -0.30907  -0.30724  -0.30613
 Alpha  occ. eigenvalues --   -0.30506  -0.29735  -0.29453  -0.24560  -0.24038
 Alpha  occ. eigenvalues --   -0.21554  -0.21398
 Alpha virt. eigenvalues --   -0.09192  -0.08639  -0.02281  -0.02083  -0.00186
 Alpha virt. eigenvalues --    0.00090   0.00762   0.02004   0.02328   0.02509
 Alpha virt. eigenvalues --    0.04044   0.04431   0.04632   0.05485   0.05497

 Mulliken charges:
               1
     1  Mg   0.821390
     2  C    0.141404
     3  C   -0.072386
     4  C   -0.088176
     5  C   -0.079402
     6  N   -0.220258
     7  C   -0.143106
     8  C    0.066479
     9  C   -0.054792
    10  C   -0.010696
    11  C    0.063590
    12  C    0.064034
    13  C   -0.078554
    14  H    0.015480
    15  N   -0.372558
    16  C    0.163195
    17  C   -0.137162
    18  C   -0.058524
    19  C    0.190594
    20  C    0.093532
    21  C   -0.010341
    22  O   -0.168283
    23  C    0.051845
    24  N   -0.300576
    25  C   -0.021041
    26  C   -0.011940
    27  C   -0.040254
    28  C    0.045002
    29  C    0.055020
    30  C    0.036438
    31  C   -0.036872
    32  N   -0.352655
    33  C    0.125101
    34  C   -0.196525
    35  C    0.022496
    36  C    0.045465
    37  C    0.117943
    38  C    0.064013
    39  O   -0.137419
    40  C   -0.139049
    41  C    0.228297
    42  O   -0.237481
    43  O   -0.322913
    44  C    0.183477
    45  H   -0.018137
    46  H   -0.048429
    47  H   -0.045696
    48  H    0.002308
    49  H   -0.000450
    50  H    0.003833
    51  H    0.026700
    52  H    0.004882
    53  H    0.013105
    54  H    0.020345
    55  H    0.050683
    56  H    0.037470
    57  H    0.040185
    58  H    0.005492
    59  H    0.031861
    60  H    0.019346
    61  H    0.059878
    62  H    0.032466
    63  H    0.026036
    64  H    0.015646
    65  H    0.028252
    66  H    0.025962
    67  H    0.028346
    68  H    0.025550
    69  H    0.019000
    70  H    0.017225
    71  H    0.020684
    72  H    0.021744
    73  H    0.015705
    74  H    0.029797
    75  H    0.034194
    76  H    0.055825
    77  H    0.031238
    78  H    0.037704
    79  H    0.027420
    80  Mg   0.803410
    81  C   -0.053514
    82  C   -0.077662
    83  C   -0.031503
    84  C   -0.113897
    85  N   -0.266410
    86  C   -0.028596
    87  C   -0.077944
    88  C   -0.056784
    89  C    0.065580
    90  C    0.083056
    91  C    0.065144
    92  C   -0.060425
    93  H    0.028846
    94  N   -0.375688
    95  C    0.137243
    96  C   -0.161458
    97  C   -0.018977
    98  C    0.178077
    99  C    0.123842
   100  C   -0.042890
   101  O   -0.205021
   102  C    0.068031
   103  N   -0.281926
   104  C   -0.040108
   105  C   -0.032417
   106  C   -0.000399
   107  C    0.029927
   108  C    0.073849
   109  C   -0.008474
   110  C   -0.012546
   111  N   -0.343815
   112  C    0.184287
   113  C   -0.180471
   114  C    0.103184
   115  C    0.131967
   116  C    0.117896
   117  C   -0.022210
   118  O   -0.171195
   119  C   -0.002518
   120  C    0.227957
   121  O   -0.227798
   122  O   -0.357580
   123  C    0.177850
   124  H   -0.025134
   125  H   -0.050652
   126  H   -0.029536
   127  H    0.016116
   128  H    0.020248
   129  H    0.026950
   130  H    0.012904
   131  H    0.013840
   132  H    0.013073
   133  H    0.002777
   134  H    0.032691
   135  H    0.023579
   136  H    0.036663
   137  H    0.042127
   138  H    0.002283
   139  H    0.036908
   140  H    0.025003
   141  H    0.043448
   142  H    0.026537
   143  H   -0.001268
   144  H    0.020690
   145  H    0.031765
   146  H    0.017641
   147  H    0.019561
   148  H    0.006261
   149  H    0.003066
   150  H    0.024532
   151  H    0.019076
   152  H    0.024506
   153  H    0.016647
   154  H    0.037800
   155  H    0.052374
   156  H    0.038625
   157  H    0.051833
   158  H    0.019150
 Sum of Mulliken charges =  -0.00000

 Dipole moment (field-independent basis, Debye):
    X=             -1.9877    Y=             -3.1877    Z=             -1.6374  Tot=              4.0980
 Quadrupole moment (field-independent basis, Debye-Ang):
   XX=            -55.1373   YY=           -591.0539   ZZ=           -508.5897
   XY=            -13.5458   XZ=             46.0632   YZ=              0.3612

 Normal termination of Gaussian 16 at Thu Sep  2 00:25:39 2021.
