 Gaussian 16, Revision A.03,
 Gaussian 16:  ES64L-G16RevA.03 25-Dec-2016

 ----------------------------------------------------------
 #p cam-b3lyp/Def2SVP td=(nstates=5) density=(transition=1)
 ----------------------------------------------------------

 --------------------------------
 TDDFT excited states in gaussian
 --------------------------------
 Symbolic Z-matrix:
 Charge =  0 Multiplicity = 1

                         Standard orientation:
 ---------------------------------------------------------------------
 Center     Atomic      Atomic             Coordinates (Angstroms)
 Number     Number       Type             X           Y           Z
 ---------------------------------------------------------------------
      1         12           0       13.605493   -0.155914    0.214452
      2          6           0       11.181720   -1.079594   -1.990573
      3          6           0       14.302365    2.515237   -1.885206
      4          6           0       15.723132    0.960796    2.568419
      5          6           0       12.377584   -2.474117    2.560501
      6          7           0       12.635959    0.765139   -1.603140
      7          6           0       11.680969    0.138809   -2.319437
      8          6           0       11.220773    0.942476   -3.480348
      9          6           0       12.532997    1.935228   -3.638499
     10          6           0       13.238965    1.747512   -2.279125
     11          6           0       13.401293    1.595629   -4.885788
     12          6           0        9.957590    1.703217   -3.109669
     13          6           0        9.968678    2.658866   -1.828128
     14          1           0        9.256911    4.005521   -1.864274
     15          7           0       14.836325    1.493787    0.337059
     16          6           0       15.095652    2.424527   -0.700607
     17          6           0       16.203799    3.216797   -0.282913
     18          6           0       16.613831    2.852285    0.993547
     19          6           0       15.770790    1.705999    1.372876
     20          6           0       16.715045    4.281638   -1.231877
     21          6           0       17.652113    3.529589    1.855786
     22          8           0       18.213581    4.530653    1.345059
     23          6           0       17.895251    3.271321    3.235357
     24          7           0       13.827514   -0.560122    2.352342
     25          6           0       14.837167    0.004389    3.074998
     26          6           0       14.861211   -0.538090    4.524081
     27          6           0       13.760710   -1.651438    4.487479
     28          6           0       13.228070   -1.515618    3.071058
     29          6           0       16.224809   -1.026687    4.963888
     30          6           0       12.644845   -1.411175    5.638416
     31          6           0       12.204157   -2.690741    6.358477
     32          7           0       12.063499   -1.575253    0.345759
     33          6           0       11.802987   -2.566152    1.237327
     34          6           0       10.879181   -3.466812    0.603081
     35          6           0       10.592253   -2.984906   -0.720903
     36          6           0       11.326863   -1.813516   -0.802402
     37          6           0       10.126416   -4.553202    1.291825
     38          6           0        9.836813   -3.118551   -1.924852
     39          8           0        9.070322   -4.058622   -2.170039
     40          6           0       10.215858   -1.928187   -2.786378
     41          6           0       10.780413   -2.430017   -4.062795
     42          8           0       10.112523   -3.172495   -4.755339
     43          8           0       12.002101   -1.921008   -4.382114
     44          6           0       12.559641   -2.391373   -5.651690
     45          1           0       14.703839    3.176012   -2.656191
     46          1           0       16.570875    1.184732    3.219031
     47          1           0       12.065315   -3.331114    3.161448
     48          1           0       10.983702    0.419846   -4.407094
     49          1           0       12.223657    2.950718   -3.889265
     50          1           0       13.469727    2.464546   -5.539290
     51          1           0       12.875589    0.811179   -5.430838
     52          1           0       14.401798    1.225769   -4.657790
     53          1           0        9.148403    0.973805   -3.068455
     54          1           0        9.710353    2.201951   -4.046737
     55          1           0       10.953737    2.955528   -1.467676
     56          1           0        9.418252    2.058026   -1.104749
     57          1           0       16.087995    5.154734   -1.050310
     58          1           0       16.547023    3.950939   -2.256058
     59          1           0       17.767337    4.551163   -1.136810
     60          1           0       18.250279    4.160281    3.757662
     61          1           0       18.506565    2.385592    3.412958
     62          1           0       16.904922    3.132189    3.666811
     63          1           0       14.528654    0.318415    5.111555
     64          1           0       14.236039   -2.631191    4.530810
     65          1           0       17.019021   -0.833599    4.243240
     66          1           0       16.365672   -2.033087    5.357193
     67          1           0       16.492903   -0.304963    5.736025
     68          1           0       11.729920   -0.942900    5.275317
     69          1           0       12.974114   -0.686273    6.382648
     70          1           0       12.629694   -2.676016    7.361506
     71          1           0       12.666555   -3.540086    5.855134
     72          1           0       11.120637   -2.791582    6.422957
     73          1           0       10.690060   -5.423839    1.624915
     74          1           0        9.350170   -4.851500    0.586146
     75          1           0        9.645675   -4.203673    2.205573
     76          1           0        9.286894   -1.394657   -2.989660
     77          1           0       11.846907   -2.144404   -6.439053
     78          1           0       12.825017   -3.448669   -5.644022
     79          1           0       13.547724   -1.962996   -5.819238
     80         12           0      -13.239268    0.876618   -0.136083
     81          6           0      -13.200561   -2.659929   -0.221474
     82          6           0       -9.814585    0.861241   -0.563848
     83          6           0      -13.267167    4.243815    0.241839
     84          6           0      -16.684571    0.833945    0.510041
     85          7           0      -11.766105   -0.772075   -0.252765
     86          6           0      -11.981075   -2.127705   -0.489615
     87          6           0      -10.623255   -2.884460   -0.791381
     88          6           0       -9.580111   -1.750015   -0.608625
     89          6           0      -10.407850   -0.460741   -0.408563
     90          6           0       -8.507775   -1.904686    0.533874
     91          6           0      -10.565544   -3.737106   -2.124559
     92          6           0      -10.294535   -5.199105   -1.936198
     93          1           0       -9.388512   -5.884158   -3.034522
     94          7           0      -11.749714    2.272973   -0.156404
     95          6           0      -10.403093    2.112531   -0.412565
     96          6           0       -9.737333    3.402914   -0.326689
     97          6           0      -10.700169    4.425807   -0.095530
     98          6           0      -12.001528    3.666060   -0.012084
     99          6           0       -8.240666    3.623316   -0.625150
    100          6           0      -10.524142    5.937549    0.005209
    101          8           0      -11.445677    6.719300    0.119288
    102          6           0       -9.134167    6.683654   -0.133654
    103          7           0      -14.770385    2.335082    0.413547
    104          6           0      -14.524952    3.636205    0.495555
    105          6           0      -15.819151    4.459968    0.831075
    106          6           0      -16.954305    3.366448    0.722126
    107          6           0      -16.102505    2.078777    0.508519
    108          6           0      -15.684494    5.236886    2.172610
    109          6           0      -17.958252    3.690425   -0.366479
    110          6           0      -19.410558    3.424590    0.025780
    111          7           0      -14.709095   -0.548801    0.247462
    112          6           0      -16.078290   -0.437883    0.396311
    113          6           0      -16.590726   -1.755442    0.615301
    114          6           0      -15.543265   -2.671051    0.346583
    115          6           0      -14.372280   -1.894091    0.124099
    116          6           0      -17.989808   -2.099959    0.960641
    117          6           0      -15.216237   -4.096854    0.170983
    118          8           0      -15.849493   -5.128660    0.374110
    119          6           0      -13.560352   -4.095340   -0.273652
    120          6           0      -12.813881   -4.892749    0.648744
    121          8           0      -12.094191   -4.450522    1.517796
    122          8           0      -12.915532   -6.228932    0.333699
    123          6           0      -12.201525   -7.100634    1.299633
    124          1           0       -8.754010    0.909277   -0.820180
    125          1           0      -13.327594    5.318941    0.420351
    126          1           0      -17.768065    0.914748    0.625229
    127          1           0      -10.459386   -3.495817    0.095372
    128          1           0       -9.005436   -1.605309   -1.523501
    129          1           0       -7.564245   -1.542448    0.124472
    130          1           0       -8.457285   -2.955338    0.818623
    131          1           0       -8.724928   -1.331120    1.435184
    132          1           0       -9.811418   -3.258546   -2.749512
    133          1           0      -11.549514   -3.660122   -2.587451
    134          1           0      -11.235798   -5.750327   -1.938997
    135          1           0       -9.837126   -5.245430   -0.948304
    136          1           0       -8.221261    4.213404   -1.540715
    137          1           0       -7.792692    2.671027   -0.909981
    138          1           0       -7.677232    4.161557    0.138056
    139          1           0       -8.701666    6.408578   -1.096224
    140          1           0       -8.524879    6.614335    0.767978
    141          1           0       -9.384574    7.739482   -0.035026
    142          1           0      -16.067055    5.206189    0.076491
    143          1           0      -17.397157    3.299855    1.716077
    144          1           0      -16.558817    5.015400    2.785318
    145          1           0      -15.519655    6.306324    2.038922
    146          1           0      -14.806114    4.885229    2.711315
    147          1           0      -17.746636    3.157505   -1.292893
    148          1           0      -17.915476    4.720825   -0.722791
    149          1           0      -19.475871    2.878125    0.966692
    150          1           0      -19.826333    2.793074   -0.759847
    151          1           0      -20.019245    4.328785    0.009029
    152          1           0      -18.694566   -1.276897    1.078498
    153          1           0      -17.929139   -2.848685    1.751391
    154          1           0      -18.380251   -2.481947    0.017077
    155          1           0      -13.463909   -4.508194   -1.278223
    156          1           0      -12.613002   -6.959337    2.299288
    157          1           0      -11.143286   -6.862073    1.193557
    158          1           0      -12.330956   -8.161708    1.089987
 ---------------------------------------------------------------------

 SCF Done:  E(RCAM-B3LYP) =  -4069.81036919     A.U. after   18 cycles

 Excitation energies and oscillator strengths:

 Excited State   1:      Singlet-A      1.7420 eV  711.75 nm  f=0.4026  <S**2>=0.000
     309 -> 315        0.17695
     311 -> 313        0.68522
     309 <- 315        0.10393
 This state for optimization and/or second-order correction.
 Total Energy, E(TD-HF/TD-DFT) =  -4069.74635294
 Copying the excited state density for this state as the 1-particle RhoCI density.

 Excited State   2:      Singlet-A      1.7838 eV  695.06 nm  f=0.3639  <S**2>=0.000
     310 -> 316        0.17639
     312 -> 314        0.68523
     310 <- 316        0.10139

 Excited State   3:      Singlet-A      2.2176 eV  559.08 nm  f=0.1293  <S**2>=0.000
     309 -> 313        0.65047
     311 -> 315       -0.25339

 Excited State   4:      Singlet-A      2.2586 eV  548.95 nm  f=0.1142  <S**2>=0.000
     310 -> 314        0.63971
     312 -> 316       -0.28407

 Excited State   5:      Singlet-A      2.9279 eV  423.45 nm  f=0.0000  <S**2>=0.000
     312 -> 313        0.70707

 The electronic state is 1-A.
 Alpha  occ. eigenvalues --  -46.89188 -46.88157 -19.26477 -19.24244 -19.19814
 Alpha  occ. eigenvalues --  -19.19564 -19.19308 -19.19138 -19.18363 -19.18235
 Alpha  occ. eigenvalues --  -14.42191 -14.42158 -14.42143 -14.41688 -14.40264
 Alpha  occ. eigenvalues --  -14.39869 -14.38686 -14.38645 -10.39553 -10.38237
 Alpha  occ. eigenvalues --  -10.36332 -10.35916 -10.34909 -10.34534 -10.32824
 Alpha  occ. eigenvalues --  -10.32436 -10.31903 -10.31757 -10.31297 -10.31271
 Alpha  occ. eigenvalues --  -10.31199 -10.31178 -10.31050 -10.30596 -10.30469
 Alpha  occ. eigenvalues --  -10.30294 -10.30112 -10.30087 -10.29738 -10.29279
 Alpha  occ. eigenvalues --  -10.29151 -10.28789 -10.28648 -10.28596 -10.28577
 Alpha  occ. eigenvalues --  -10.28530 -10.28447 -10.28429 -10.28421 -10.28357
 Alpha  occ. eigenvalues --  -10.28289 -10.28113 -10.27928 -10.27913 -10.27811
 Alpha  occ. eigenvalues --  -10.27728 -10.27687 -10.27583 -10.27545 -10.27477
 Alpha  occ. eigenvalues --  -10.27440 -10.27371 -10.27331 -10.27301 -10.27257
 Alpha  occ. eigenvalues --  -10.27066 -10.27044 -10.26850 -10.26831 -10.26675
 Alpha  occ. eigenvalues --  -10.26653 -10.26612 -10.26536 -10.26425 -10.26422
 Alpha  occ. eigenvalues --  -10.26262 -10.26144 -10.25921 -10.25763 -10.25685
 Alpha  occ. eigenvalues --  -10.25630 -10.25234 -10.25077 -10.25052 -10.24800
 Alpha  occ. eigenvalues --  -10.24632  -3.17641  -3.16686  -1.92517  -1.92116
 Alpha  occ. eigenvalues --   -1.91924  -1.91594  -1.91136  -1.90993  -1.17502
 Alpha  occ. eigenvalues --   -1.15789  -1.11445  -1.09187  -1.09139  -1.08470
 Alpha  occ. eigenvalues --   -1.08079  -1.07347  -1.05067  -1.04621  -1.04016
 Alpha  occ. eigenvalues --   -1.02812  -1.02392  -1.01887  -1.01595  -1.00864
 Alpha  occ. eigenvalues --   -0.94156  -0.91771  -0.89363  -0.89119  -0.89074
 Alpha  occ. eigenvalues --   -0.88837  -0.88341  -0.87970  -0.87875  -0.87146
 Alpha  occ. eigenvalues --   -0.86817  -0.86404  -0.85924  -0.85537  -0.85180
 Alpha  occ. eigenvalues --   -0.84292  -0.84206  -0.83575  -0.83429  -0.82886
 Alpha  occ. eigenvalues --   -0.82428  -0.81542  -0.80983  -0.80964  -0.80644
 Alpha  occ. eigenvalues --   -0.80028  -0.78705  -0.78359  -0.78072  -0.77135
 Alpha  occ. eigenvalues --   -0.76876  -0.76365  -0.76256  -0.75683  -0.75039
 Alpha  occ. eigenvalues --   -0.74645  -0.72596  -0.72206  -0.72172  -0.71225
 Alpha  occ. eigenvalues --   -0.70240  -0.69201  -0.68981  -0.68923  -0.68786
 Alpha  occ. eigenvalues --   -0.67355  -0.67209  -0.67143  -0.66636  -0.65566
 Alpha  occ. eigenvalues --   -0.65419  -0.65301  -0.64717  -0.64510  -0.64478
 Alpha  occ. eigenvalues --   -0.64277  -0.63909  -0.61068  -0.60323  -0.59967
 Alpha  occ. eigenvalues --   -0.59819  -0.59420  -0.59097  -0.58913  -0.58716
 Alpha  occ. eigenvalues --   -0.58470  -0.58103  -0.57946  -0.57735  -0.56934
 Alpha  occ. eigenvalues --   -0.56925  -0.56665  -0.55887  -0.55872  -0.55691
 Alpha  occ. eigenvalues --   -0.55240  -0.54663  -0.54606  -0.54335  -0.54169
 Alpha  occ. eigenvalues --   -0.53838  -0.53622  -0.53556  -0.53174  -0.53155
 Alpha  occ. eigenvalues --   -0.53135  -0.52966  -0.52566  -0.52473  -0.52048
 Alpha  occ. eigenvalues --   -0.51970  -0.51901  -0.51609  -0.51523  -0.51346
 Alpha  occ. eigenvalues --   -0.51160  -0.50996  -0.50944  -0.50849  -0.50516
 Alpha  occ. eigenvalues --   -0.50410  -0.50080  -0.49679  -0.49551  -0.49495
 Alpha  occ. eigenvalues --   -0.49442  -0.49388  -0.49198  -0.48834  -0.48763
 Alpha  occ. eigenvalues --   -0.48575  -0.48562  -0.48473  -0.48246  -0.47993
 Alpha  occ. eigenvalues --   -0.47939  -0.47708  -0.47648  -0.47420  -0.47177
 Alpha  occ. eigenvalues --   -0.46804  -0.46718  -0.46508  -0.46483  -0.46339
 Alpha  occ. eigenvalues --   -0.46138  -0.46132  -0.45926  -0.45817  -0.45723
 Alpha  occ. eigenvalues --   -0.45456  -0.45321  -0.45073  -0.44940  -0.44768
 Alpha  occ. eigenvalues --   -0.44741  -0.44702  -0.44623  -0.44606  -0.44397
 Alpha  occ. eigenvalues --   -0.43914  -0.43858  -0.43811  -0.43631  -0.43494
 Alpha  occ. eigenvalues --   -0.43228  -0.43121  -0.42898  -0.42895  -0.42522
 Alpha  occ. eigenvalues --   -0.42380  -0.42334  -0.42328  -0.42233  -0.41984
 Alpha  occ. eigenvalues --   -0.41922  -0.41863  -0.41424  -0.41356  -0.41243
 Alpha  occ. eigenvalues --   -0.41099  -0.41046  -0.40559  -0.40474  -0.40222
 Alpha  occ. eigenvalues --   -0.39938  -0.39613  -0.39600  -0.39342  -0.39269
 Alpha  occ. eigenvalues --   -0.38768  -0.38619  -0.37916  -0.37781  -0.37603
 Alpha  occ. eigenvalues --   -0.37579  -0.37098  -0.36973  -0.36787  -0.36165
 Alpha  occ. eigenvalues --   -0.36056  -0.35830  -0.34780  -0.34206  -0.34076
 Alpha  occ. eigenvalues --   -0.33771  -0.33187  -0.33010  -0.31860  -0.31584
 Alpha  occ. eigenvalues --   -0.31417  -0.30951  -0.30573  -0.30529  -0.30179
 Alpha  occ. eigenvalues --   -0.30155  -0.29069  -0.28588  -0.24378  -0.23991
 Alpha  occ. eigenvalues --   -0.21747  -0.21242
 Alpha virt. eigenvalues --   -0.09220  -0.08445  -0.01961  -0.01703   0.00068
 Alpha virt. eigenvalues --    0.00117   0.01266   0.01935   0.02174   0.03038
 Alpha virt. eigenvalues --    0.04641   0.04899   0.05421   0.05489   0.05994

 Mulliken charges:
               1
     1  Mg  11.998009
     2  C    6.013447
     3  C    5.978479
     4  C    5.982166
     5  C    6.019698
     6  N    7.001547
     7  C    5.969426
     8  C    6.014897
     9  C    5.985884
    10  C    6.030671
    11  C    5.996925
    12  C    6.006635
    13  C    6.002227
    14  H    0.992750
    15  N    6.988767
    16  C    6.051311
    17  C    6.018391
    18  C    6.009233
    19  C    6.045620
    20  C    5.995869
    21  C    6.013677
    22  O    8.021873
    23  C    5.994122
    24  N    7.004962
    25  C    6.030727
    26  C    5.990315
    27  C    6.011693
    28  C    5.967061
    29  C    5.999516
    30  C    6.003234
    31  C    6.001213
    32  N    7.002914
    33  C    5.960610
    34  C    5.965807
    35  C    5.997450
    36  C    5.968398
    37  C    6.004047
    38  C    5.983506
    39  O    7.970710
    40  C    5.998209
    41  C    5.994802
    42  O    7.995947
    43  O    7.999961
    44  C    6.002326
    45  H    1.009017
    46  H    1.008403
    47  H    0.995713
    48  H    0.999084
    49  H    1.003633
    50  H    1.001126
    51  H    1.014385
    52  H    0.997085
    53  H    1.006388
    54  H    0.991257
    55  H    0.984550
    56  H    1.008186
    57  H    1.021280
    58  H    1.019152
    59  H    1.016467
    60  H    1.013294
    61  H    1.012041
    62  H    1.007420
    63  H    1.000845
    64  H    0.999935
    65  H    0.996001
    66  H    1.010294
    67  H    1.000567
    68  H    1.000993
    69  H    0.989669
    70  H    0.994730
    71  H    1.002254
    72  H    1.002396
    73  H    0.974242
    74  H    0.985876
    75  H    0.974615
    76  H    0.990574
    77  H    0.995440
    78  H    0.998044
    79  H    0.990011
    80  Mg  11.999863
    81  C    6.000444
    82  C    6.000025
    83  C    5.999338
    84  C    6.000009
    85  N    7.000299
    86  C    5.999580
    87  C    6.000179
    88  C    5.999827
    89  C    6.000381
    90  C    5.999830
    91  C    6.000036
    92  C    5.999817
    93  H    1.000418
    94  N    6.999820
    95  C    6.000407
    96  C    6.000408
    97  C    6.000055
    98  C    6.000590
    99  C    5.999892
   100  C    6.000086
   101  O    8.000130
   102  C    6.000018
   103  N    6.999880
   104  C    6.000534
   105  C    5.999897
   106  C    6.000102
   107  C    5.999696
   108  C    6.000024
   109  C    6.000164
   110  C    6.000049
   111  N    7.000058
   112  C    5.999499
   113  C    5.999581
   114  C    5.999954
   115  C    5.999463
   116  C    6.000112
   117  C    5.999774
   118  O    7.999591
   119  C    5.999921
   120  C    6.000001
   121  O    7.999952
   122  O    7.999971
   123  C    5.999986
   124  H    1.000563
   125  H    0.999835
   126  H    0.999618
   127  H    1.000058
   128  H    1.000270
   129  H    1.000467
   130  H    1.000504
   131  H    0.999943
   132  H    1.000062
   133  H    0.999884
   134  H    0.999909
   135  H    1.000158
   136  H    1.000202
   137  H    1.000546
   138  H    1.000309
   139  H    1.000094
   140  H    1.000114
   141  H    0.999914
   142  H    0.999868
   143  H    0.999869
   144  H    0.999988
   145  H    0.999816
   146  H    0.999993
   147  H    0.999988
   148  H    0.999705
   149  H    1.000032
   150  H    0.999968
   151  H    0.999748
   152  H    0.999587
   153  H    0.999699
   154  H    0.999608
   155  H    0.999966
   156  H    0.999902
   157  H    1.000189
   158  H    0.999965
 Sum of Mulliken charges = 624.00000

 Dipole moment (field-independent basis, Debye):
    X=              7.6615    Y=              7.9080    Z=              0.8135  Tot=             11.0407
 Quadrupole moment (field-independent basis, Debye-Ang):
   XX=            198.2762   YY=             -2.4114   ZZ=             -1.2885
   XY=            105.6037   XZ=             13.3214   YZ=              0.6147

 Normal termination of Gaussian 16 at Wed Sep 22 19:42:06 2021.
