 Gaussian 16, Revision A.03,
 Gaussian 16:  ES64L-G16RevA.03 25-Dec-2016

 ----------------------------------------------------------
 #p cam-b3lyp/Def2SVP td=(nstates=5) density=(transition=1)
 ----------------------------------------------------------

 --------------------------------
 TDDFT excited states in gaussian
 --------------------------------
 Symbolic Z-matrix:
 Charge =  0 Multiplicity = 1

                         Standard orientation:
 ---------------------------------------------------------------------
 Center     Atomic      Atomic             Coordinates (Angstroms)
 Number     Number       Type             X           Y           Z
 ---------------------------------------------------------------------
      1         12           0       20.483184    0.244144    0.435768
      2          6           0       18.070873   -1.732799   -1.320554
      3          6           0       21.906962    0.925827   -2.589332
      4          6           0       22.879645    1.616159    1.994988
      5          6           0       19.576201   -1.481686    3.324462
      6          7           0       19.962076   -0.381050   -1.622928
      7          6           0       18.978357   -1.091104   -2.166335
      8          6           0       18.957410   -1.027506   -3.722898
      9          6           0       20.488319   -0.664334   -3.980621
     10          6           0       20.796804    0.033387   -2.667629
     11          6           0       21.390919   -1.886955   -4.111055
     12          6           0       18.004589    0.093235   -4.259370
     13          6           0       17.675276    0.011284   -5.752753
     14          1           0       16.344878    0.396705   -6.198669
     15          7           0       21.852998    1.523120   -0.189275
     16          6           0       22.298523    1.676126   -1.459465
     17          6           0       23.313770    2.750080   -1.408696
     18          6           0       23.558542    3.077510    0.023425
     19          6           0       22.782829    2.054079    0.676292
     20          6           0       23.903283    3.383541   -2.631379
     21          6           0       24.372161    4.137139    0.696731
     22          8           0       24.633809    4.101659    1.947673
     23          6           0       24.936543    5.184400   -0.173763
     24          7           0       21.298024   -0.054508    2.334314
     25          6           0       22.294650    0.714553    2.786273
     26          6           0       22.520450    0.508540    4.254780
     27          6           0       21.303373   -0.388983    4.767546
     28          6           0       20.594554   -0.622852    3.410656
     29          6           0       23.846522   -0.161360    4.640498
     30          6           0       20.469345    0.166117    5.949358
     31          6           0       19.710711    1.397779    5.508245
     32          7           0       18.960752   -1.202766    0.983214
     33          6           0       18.781359   -1.804316    2.237260
     34          6           0       17.695917   -2.791554    2.091506
     35          6           0       17.328114   -2.706943    0.750086
     36          6           0       18.150510   -1.747619    0.093082
     37          6           0       17.217558   -3.660825    3.111297
     38          6           0       16.448225   -3.221501   -0.286680
     39          8           0       15.480219   -3.983200   -0.303168
     40          6           0       16.975363   -2.699555   -1.695767
     41          6           0       15.791841   -2.161718   -2.452942
     42          8           0       15.194538   -1.137722   -2.063036
     43          8           0       15.697125   -2.790299   -3.634660
     44          6           0       14.560250   -2.282915   -4.448437
     45          1           0       22.573317    1.016075   -3.449429
     46          1           0       23.621721    2.144474    2.597188
     47          1           0       19.182028   -1.997039    4.202238
     48          1           0       18.710659   -1.969502   -4.212982
     49          1           0       20.607714    0.027223   -4.814418
     50          1           0       20.853579   -2.805709   -3.876372
     51          1           0       22.201413   -1.727622   -3.399573
     52          1           0       21.858518   -1.919976   -5.095452
     53          1           0       18.526442    1.049904   -4.236688
     54          1           0       17.076967    0.117845   -3.686450
     55          1           0       17.951972   -0.957639   -6.169331
     56          1           0       18.307935    0.724185   -6.281633
     57          1           0       23.655651    2.822901   -3.531882
     58          1           0       24.986075    3.294839   -2.545343
     59          1           0       23.626632    4.433943   -2.723318
     60          1           0       25.578513    4.721689   -0.923645
     61          1           0       25.412173    5.904242    0.491409
     62          1           0       24.124401    5.665087   -0.719944
     63          1           0       22.513726    1.458053    4.788453
     64          1           0       21.634665   -1.368601    5.112898
     65          1           0       24.452283    0.430047    5.327518
     66          1           0       24.393948   -0.377850    3.723575
     67          1           0       23.746999   -1.156346    5.073529
     68          1           0       21.123708    0.467973    6.766450
     69          1           0       19.753418   -0.553646    6.346396
     70          1           0       20.449026    2.191145    5.619116
     71          1           0       18.852585    1.569326    6.158939
     72          1           0       19.445322    1.344895    4.452187
     73          1           0       16.130148   -3.647319    3.038311
     74          1           0       17.552485   -3.337361    4.096588
     75          1           0       17.672481   -4.602316    2.803896
     76          1           0       17.428140   -3.554323   -2.197252
     77          1           0       13.935930   -3.140960   -4.697871
     78          1           0       14.996715   -1.718162   -5.272425
     79          1           0       13.840761   -1.648966   -3.929029
     80         12           0      -20.254676   -0.610404   -0.442842
     81          6           0      -19.514144    2.937292    0.132558
     82          6           0      -16.821074   -1.037461   -0.355212
     83          6           0      -20.834725   -3.694925    0.122082
     84          6           0      -23.698827    0.320228   -0.014447
     85          7           0      -18.351062    0.879783    0.015823
     86          6           0      -18.295644    2.243916    0.201104
     87          6           0      -16.812980    2.667516    0.509390
     88          6           0      -15.967769    1.457481    0.075064
     89          6           0      -17.095985    0.370909   -0.099191
     90          6           0      -15.123207    1.563419   -1.262238
     91          6           0      -16.583931    3.128462    1.989576
     92          6           0      -15.654183    4.305605    2.191354
     93          1           0      -14.205665    3.981156    2.674147
     94          7           0      -19.037799   -2.162885   -0.280615
     95          6           0      -17.672812   -2.191959   -0.372763
     96          6           0      -17.187450   -3.592416   -0.235147
     97          6           0      -18.369889   -4.359876   -0.070508
     98          6           0      -19.472599   -3.402693   -0.028413
     99          6           0      -15.726316   -4.068941   -0.193609
    100          6           0      -18.501475   -5.846744    0.271605
    101          8           0      -17.466814   -6.506973    0.312606
    102          6           0      -19.719161   -6.515912    0.509607
    103          7           0      -22.039569   -1.511011    0.265661
    104          6           0      -22.004408   -2.886293    0.147886
    105          6           0      -23.477481   -3.427946    0.309060
    106          6           0      -24.320875   -2.129750    0.575151
    107          6           0      -23.306448   -1.040663    0.151203
    108          6           0      -24.014459   -4.281405   -0.872586
    109          6           0      -24.928463   -1.894873    2.016677
    110          6           0      -26.221352   -2.642074    2.387335
    111          7           0      -21.464442    1.209079   -0.074232
    112          6           0      -22.830001    1.411722   -0.061546
    113          6           0      -23.165554    2.814879   -0.042397
    114          6           0      -21.874490    3.461233    0.018940
    115          6           0      -20.825236    2.477740    0.056908
    116          6           0      -24.565494    3.344985    0.003782
    117          6           0      -21.262570    4.708107    0.142090
    118          8           0      -21.732095    5.815751    0.365320
    119          6           0      -19.742890    4.446589    0.351598
    120          6           0      -19.067587    5.243138   -0.740304
    121          8           0      -18.119580    6.005905   -0.537677
    122          8           0      -19.494727    4.934211   -2.094236
    123          6           0      -18.573274    5.455653   -3.102476
    124          1           0      -15.741772   -1.192697   -0.404981
    125          1           0      -21.197575   -4.724720    0.139666
    126          1           0      -24.782673    0.448452    0.018991
    127          1           0      -16.514225    3.426313   -0.215257
    128          1           0      -15.339700    1.089595    0.886408
    129          1           0      -14.091241    1.663700   -0.926613
    130          1           0      -15.367697    2.472105   -1.811579
    131          1           0      -15.264141    0.750248   -1.974196
    132          1           0      -16.082708    2.395226    2.621950
    133          1           0      -17.528811    3.428602    2.443098
    134          1           0      -16.173258    5.010781    2.840524
    135          1           0      -15.535009    4.797601    1.225511
    136          1           0      -15.625711   -4.998936   -0.753786
    137          1           0      -15.512460   -4.157695    0.871451
    138          1           0      -15.068161   -3.355762   -0.688039
    139          1           0      -20.283057   -6.530455   -0.423628
    140          1           0      -20.297169   -6.131327    1.349963
    141          1           0      -19.354059   -7.481340    0.861638
    142          1           0      -23.616689   -4.066462    1.180780
    143          1           0      -25.130686   -2.027883   -0.146890
    144          1           0      -24.918597   -3.770377   -1.203758
    145          1           0      -24.262727   -5.271893   -0.492550
    146          1           0      -23.188160   -4.275944   -1.584485
    147          1           0      -25.118875   -0.821304    2.035643
    148          1           0      -24.234110   -2.222668    2.790601
    149          1           0      -26.446927   -3.132785    1.440105
    150          1           0      -27.047231   -1.947433    2.547149
    151          1           0      -26.160819   -3.368733    3.197160
    152          1           0      -25.011963    2.896664    0.890377
    153          1           0      -25.192577    2.989049   -0.813442
    154          1           0      -24.608208    4.413800    0.213675
    155          1           0      -19.477227    4.887686    1.312112
    156          1           0      -18.830943    4.724318   -3.869478
    157          1           0      -17.553945    5.538587   -2.725457
    158          1           0      -18.988860    6.408391   -3.430857
 ---------------------------------------------------------------------

 SCF Done:  E(RCAM-B3LYP) =  -4069.76267056     A.U. after   18 cycles

 Excitation energies and oscillator strengths:

 Excited State   1:      Singlet-A      1.6798 eV  738.07 nm  f=0.3879  <S**2>=0.000
     310 -> 316       -0.17551
     312 -> 314        0.68560
     310 <- 316       -0.10512
 This state for optimization and/or second-order correction.
 Total Energy, E(TD-HF/TD-DFT) =  -4069.70093727
 Copying the excited state density for this state as the 1-particle RhoCI density.

 Excited State   2:      Singlet-A      1.7225 eV  719.80 nm  f=0.3543  <S**2>=0.000
     309 -> 315       -0.19685
     311 -> 313        0.67927
     309 <- 315       -0.11033

 Excited State   3:      Singlet-A      2.1926 eV  565.48 nm  f=0.0987  <S**2>=0.000
     310 -> 314        0.64072
     312 -> 316        0.27827

 Excited State   4:      Singlet-A      2.2418 eV  553.07 nm  f=0.0693  <S**2>=0.000
     309 -> 313        0.61603
     311 -> 315        0.33065

 Excited State   5:      Singlet-A      3.1256 eV  396.67 nm  f=0.0000  <S**2>=0.000
     312 -> 313        0.70710

 The electronic state is 1-A.
 Alpha  occ. eigenvalues --  -46.90741 -46.87776 -19.26266 -19.23694 -19.20066
 Alpha  occ. eigenvalues --  -19.19001 -19.18794 -19.18767 -19.18151 -19.17847
 Alpha  occ. eigenvalues --  -14.42693 -14.42430 -14.41995 -14.41429 -14.40790
 Alpha  occ. eigenvalues --  -14.39382 -14.39119 -14.38567 -10.39367 -10.39061
 Alpha  occ. eigenvalues --  -10.35427 -10.34911 -10.34371 -10.33486 -10.32292
 Alpha  occ. eigenvalues --  -10.31863 -10.31662 -10.31565 -10.31505 -10.31385
 Alpha  occ. eigenvalues --  -10.31346 -10.30990 -10.30889 -10.30760 -10.30550
 Alpha  occ. eigenvalues --  -10.30487 -10.30186 -10.29901 -10.29633 -10.29610
 Alpha  occ. eigenvalues --  -10.29374 -10.29234 -10.29217 -10.28892 -10.28889
 Alpha  occ. eigenvalues --  -10.28810 -10.28729 -10.28518 -10.28505 -10.28384
 Alpha  occ. eigenvalues --  -10.28345 -10.28302 -10.28294 -10.28194 -10.28097
 Alpha  occ. eigenvalues --  -10.28044 -10.27773 -10.27707 -10.27564 -10.27481
 Alpha  occ. eigenvalues --  -10.27460 -10.27440 -10.27429 -10.27383 -10.27320
 Alpha  occ. eigenvalues --  -10.27139 -10.26953 -10.26832 -10.26831 -10.26779
 Alpha  occ. eigenvalues --  -10.26684 -10.26631 -10.26628 -10.26388 -10.26217
 Alpha  occ. eigenvalues --  -10.26216 -10.26164 -10.26163 -10.25999 -10.25828
 Alpha  occ. eigenvalues --  -10.25825 -10.25416 -10.25214 -10.24813 -10.24768
 Alpha  occ. eigenvalues --  -10.24665  -3.19152  -3.16519  -1.93997  -1.93659
 Alpha  occ. eigenvalues --   -1.93417  -1.91401  -1.90987  -1.90829  -1.16615
 Alpha  occ. eigenvalues --   -1.13924  -1.10436  -1.08961  -1.08608  -1.07195
 Alpha  occ. eigenvalues --   -1.06624  -1.06326  -1.05012  -1.04561  -1.03740
 Alpha  occ. eigenvalues --   -1.03348  -1.03321  -1.03214  -1.02391  -1.01063
 Alpha  occ. eigenvalues --   -0.92868  -0.91952  -0.89499  -0.89168  -0.88984
 Alpha  occ. eigenvalues --   -0.88924  -0.88491  -0.88267  -0.87851  -0.87653
 Alpha  occ. eigenvalues --   -0.87253  -0.86973  -0.86909  -0.85913  -0.85002
 Alpha  occ. eigenvalues --   -0.84962  -0.83916  -0.83853  -0.83676  -0.82946
 Alpha  occ. eigenvalues --   -0.82628  -0.82513  -0.81567  -0.81135  -0.80576
 Alpha  occ. eigenvalues --   -0.79863  -0.78777  -0.78236  -0.77341  -0.77198
 Alpha  occ. eigenvalues --   -0.77022  -0.76915  -0.75904  -0.75811  -0.75256
 Alpha  occ. eigenvalues --   -0.74878  -0.72822  -0.72754  -0.71906  -0.71652
 Alpha  occ. eigenvalues --   -0.69886  -0.69127  -0.68853  -0.68583  -0.67696
 Alpha  occ. eigenvalues --   -0.67621  -0.67199  -0.66994  -0.65551  -0.65360
 Alpha  occ. eigenvalues --   -0.65267  -0.65033  -0.64834  -0.64601  -0.64249
 Alpha  occ. eigenvalues --   -0.64011  -0.62279  -0.61888  -0.60421  -0.60367
 Alpha  occ. eigenvalues --   -0.59795  -0.59784  -0.59251  -0.58967  -0.58904
 Alpha  occ. eigenvalues --   -0.58484  -0.57565  -0.57289  -0.57147  -0.56982
 Alpha  occ. eigenvalues --   -0.56746  -0.56290  -0.55960  -0.55590  -0.55500
 Alpha  occ. eigenvalues --   -0.55320  -0.54769  -0.54504  -0.54315  -0.53926
 Alpha  occ. eigenvalues --   -0.53875  -0.53769  -0.53533  -0.53283  -0.53278
 Alpha  occ. eigenvalues --   -0.53202  -0.52895  -0.52875  -0.52735  -0.52468
 Alpha  occ. eigenvalues --   -0.52417  -0.51971  -0.51896  -0.51724  -0.51596
 Alpha  occ. eigenvalues --   -0.51421  -0.51176  -0.51006  -0.50607  -0.50551
 Alpha  occ. eigenvalues --   -0.50011  -0.49898  -0.49875  -0.49841  -0.49500
 Alpha  occ. eigenvalues --   -0.49494  -0.49195  -0.49106  -0.49077  -0.48937
 Alpha  occ. eigenvalues --   -0.48625  -0.48573  -0.48441  -0.48425  -0.48375
 Alpha  occ. eigenvalues --   -0.48143  -0.47946  -0.47720  -0.47675  -0.47277
 Alpha  occ. eigenvalues --   -0.47258  -0.46777  -0.46717  -0.46535  -0.46506
 Alpha  occ. eigenvalues --   -0.46339  -0.46143  -0.46126  -0.45885  -0.45803
 Alpha  occ. eigenvalues --   -0.45352  -0.45181  -0.44954  -0.44671  -0.44558
 Alpha  occ. eigenvalues --   -0.44486  -0.44455  -0.44313  -0.44124  -0.44102
 Alpha  occ. eigenvalues --   -0.44068  -0.43999  -0.43787  -0.43575  -0.43476
 Alpha  occ. eigenvalues --   -0.43366  -0.43172  -0.43007  -0.42680  -0.42635
 Alpha  occ. eigenvalues --   -0.42545  -0.42438  -0.42288  -0.42044  -0.41989
 Alpha  occ. eigenvalues --   -0.41916  -0.41684  -0.41514  -0.41472  -0.41331
 Alpha  occ. eigenvalues --   -0.41121  -0.40849  -0.40802  -0.40551  -0.40251
 Alpha  occ. eigenvalues --   -0.40214  -0.40192  -0.39948  -0.39420  -0.39289
 Alpha  occ. eigenvalues --   -0.38842  -0.38449  -0.37846  -0.37728  -0.37505
 Alpha  occ. eigenvalues --   -0.37300  -0.37243  -0.37147  -0.36694  -0.36316
 Alpha  occ. eigenvalues --   -0.36173  -0.35348  -0.34461  -0.34266  -0.33842
 Alpha  occ. eigenvalues --   -0.33751  -0.33179  -0.33166  -0.31731  -0.31380
 Alpha  occ. eigenvalues --   -0.31323  -0.31021  -0.31015  -0.30137  -0.30010
 Alpha  occ. eigenvalues --   -0.29429  -0.29302  -0.28723  -0.24450  -0.24060
 Alpha  occ. eigenvalues --   -0.21438  -0.21107
 Alpha virt. eigenvalues --   -0.08769  -0.08754  -0.02682  -0.01729  -0.00345
 Alpha virt. eigenvalues --   -0.00037   0.00602   0.02188   0.02220   0.03144
 Alpha virt. eigenvalues --    0.04399   0.04738   0.04838   0.05117   0.05506

 Mulliken charges:
               1
     1  Mg  12.000353
     2  C    5.980276
     3  C    6.019144
     4  C    6.016947
     5  C    5.977902
     6  N    6.992017
     7  C    6.034902
     8  C    5.991415
     9  C    6.009020
    10  C    5.970353
    11  C    6.001179
    12  C    5.995615
    13  C    5.998683
    14  H    0.999767
    15  N    7.007569
    16  C    5.954985
    17  C    5.972139
    18  C    5.982184
    19  C    5.972969
    20  C    6.007327
    21  C    5.986026
    22  O    7.968981
    23  C    6.005535
    24  N    7.000134
    25  C    5.969987
    26  C    6.012920
    27  C    5.985959
    28  C    6.035602
    29  C    5.999824
    30  C    5.996120
    31  C    5.998510
    32  N    6.992593
    33  C    6.054437
    34  C    6.020877
    35  C    6.009423
    36  C    6.033752
    37  C    5.994538
    38  C    6.013997
    39  O    8.032357
    40  C    6.002696
    41  C    6.003324
    42  O    8.004310
    43  O    8.001858
    44  C    5.998206
    45  H    0.992461
    46  H    0.993660
    47  H    1.009055
    48  H    0.999567
    49  H    1.000143
    50  H    0.982761
    51  H    1.004810
    52  H    0.996345
    53  H    1.014990
    54  H    0.994034
    55  H    1.000880
    56  H    1.007287
    57  H    0.978026
    58  H    0.977948
    59  H    0.977040
    60  H    0.994652
    61  H    0.984330
    62  H    0.992609
    63  H    1.000292
    64  H    1.004586
    65  H    0.999423
    66  H    1.005472
    67  H    0.989022
    68  H    1.010067
    69  H    0.996913
    70  H    1.012591
    71  H    1.001498
    72  H    0.996670
    73  H    1.017594
    74  H    1.018742
    75  H    1.020247
    76  H    1.007933
    77  H    1.003063
    78  H    1.006329
    79  H    1.002249
    80  Mg  12.000074
    81  C    5.999545
    82  C    6.000061
    83  C    6.000675
    84  C    5.999716
    85  N    6.999817
    86  C    6.000592
    87  C    5.999894
    88  C    6.000086
    89  C    5.999518
    90  C    6.000162
    91  C    5.999979
    92  C    6.000023
    93  H    0.999995
    94  N    7.000237
    95  C    5.999343
    96  C    5.999529
    97  C    5.999989
    98  C    5.999199
    99  C    6.000053
   100  C    5.999754
   101  O    7.999630
   102  C    6.000087
   103  N    7.000028
   104  C    5.999217
   105  C    6.000204
   106  C    5.999900
   107  C    6.000589
   108  C    6.000001
   109  C    5.999933
   110  C    6.000000
   111  N    6.999902
   112  C    6.000584
   113  C    6.000664
   114  C    5.999877
   115  C    6.000809
   116  C    5.999914
   117  C    6.000341
   118  O    8.000560
   119  C    5.999979
   120  C    6.000060
   121  O    8.000160
   122  O    7.999951
   123  C    5.999963
   124  H    0.999665
   125  H    0.999888
   126  H    1.000223
   127  H    0.999996
   128  H    0.999909
   129  H    0.999777
   130  H    0.999790
   131  H    1.000027
   132  H    1.000103
   133  H    0.999914
   134  H    1.000005
   135  H    1.000007
   136  H    0.999677
   137  H    0.999611
   138  H    0.999654
   139  H    0.999898
   140  H    0.999846
   141  H    0.999775
   142  H    0.999922
   143  H    1.000001
   144  H    0.999864
   145  H    0.999997
   146  H    1.000041
   147  H    0.999903
   148  H    1.000145
   149  H    1.000101
   150  H    1.000036
   151  H    1.000105
   152  H    1.000402
   153  H    1.000431
   154  H    1.000312
   155  H    1.000135
   156  H    1.000078
   157  H    1.000072
   158  H    1.000100
 Sum of Mulliken charges = 624.00000

 Dipole moment (field-independent basis, Debye):
    X=             -8.1822    Y=             -6.8399    Z=              2.8355  Tot=             11.0351
 Quadrupole moment (field-independent basis, Debye-Ang):
   XX=           -324.5078   YY=             -3.3509   ZZ=              4.9002
   XY=           -147.9767   XZ=             57.7694   YZ=             -2.2347

 Normal termination of Gaussian 16 at Wed Sep 22 12:12:32 2021.
