 Gaussian 16, Revision A.03,
 Gaussian 16:  ES64L-G16RevA.03 25-Dec-2016

 -----------------------------------
 #p cam-b3lyp/Def2SVP td=(nstates=5)
 -----------------------------------

 --------------------------------
 TDDFT excited states in gaussian
 --------------------------------
 Symbolic Z-matrix:
 Charge =  0 Multiplicity = 1

                         Standard orientation:
 ---------------------------------------------------------------------
 Center     Atomic      Atomic             Coordinates (Angstroms)
 Number     Number       Type             X           Y           Z
 ---------------------------------------------------------------------
      1         12           0      -21.734579    0.399775   -0.290745
      2          6           0      -18.240648    0.512774    0.500507
      3          6           0      -20.818639   -1.121194   -3.351264
      4          6           0      -24.955811   -0.424734   -0.742560
      5          6           0      -22.411393    1.263169    2.981846
      6          7           0      -19.746994   -0.236161   -1.341854
      7          6           0      -18.522086   -0.088276   -0.753715
      8          6           0      -17.480987   -0.868291   -1.540822
      9          6           0      -18.316132   -1.103070   -2.868526
     10          6           0      -19.738430   -0.823774   -2.563439
     11          6           0      -17.885941   -0.295032   -4.138666
     12          6           0      -16.991502   -2.098816   -0.711755
     13          6           0      -15.444821   -2.430398   -0.630455
     14          1           0      -14.921828   -3.769357   -1.180943
     15          7           0      -22.765083   -0.422193   -1.835011
     16          6           0      -22.236289   -0.983010   -3.027420
     17          6           0      -23.307993   -1.441732   -3.891816
     18          6           0      -24.514910   -1.237170   -3.106917
     19          6           0      -24.085503   -0.663788   -1.845181
     20          6           0      -23.037478   -2.102650   -5.178740
     21          6           0      -25.919585   -1.576512   -3.635205
     22          8           0      -25.970349   -2.147226   -4.763734
     23          6           0      -27.247372   -1.277807   -2.907163
     24          7           0      -23.484163    0.142770    1.005500
     25          6           0      -24.710160   -0.030466    0.550256
     26          6           0      -25.658623    0.037094    1.703378
     27          6           0      -24.811302    0.638346    2.856490
     28          6           0      -23.428262    0.611574    2.282153
     29          6           0      -27.052514    0.781574    1.541824
     30          6           0      -24.910741   -0.143641    4.266291
     31          6           0      -25.533047    0.593191    5.477597
     32          7           0      -20.642115    0.990097    1.326775
     33          6           0      -21.033846    1.307305    2.572372
     34          6           0      -19.930744    1.644611    3.395338
     35          6           0      -18.816497    1.386171    2.593639
     36          6           0      -19.292419    0.940772    1.334520
     37          6           0      -19.873728    2.153501    4.779546
     38          6           0      -17.387410    1.392736    2.654744
     39          8           0      -16.674777    1.643940    3.600576
     40          6           0      -16.926453    0.737352    1.203920
     41          6           0      -16.084316    1.690420    0.471307
     42          8           0      -16.298972    2.904342    0.362522
     43          8           0      -15.051322    0.962225   -0.079307
     44          6           0      -14.071193    1.714197   -0.861091
     45          1           0      -20.600841   -1.590690   -4.311772
     46          1           0      -25.991776   -0.765391   -0.792338
     47          1           0      -22.577432    1.756643    3.941918
     48          1           0      -16.702522   -0.153065   -1.807667
     49          1           0      -18.211524   -2.187566   -2.917592
     50          1           0      -18.757340    0.268887   -4.474536
     51          1           0      -17.578887   -0.915633   -4.980203
     52          1           0      -17.120662    0.464775   -3.977190
     53          1           0      -17.510484   -2.890272   -1.251996
     54          1           0      -17.352461   -2.155890    0.314913
     55          1           0      -15.199369   -2.336630    0.427243
     56          1           0      -14.896852   -1.582640   -1.040594
     57          1           0      -22.335746   -2.909422   -4.965802
     58          1           0      -22.511200   -1.418821   -5.844384
     59          1           0      -23.890542   -2.414840   -5.781737
     60          1           0      -27.327489   -1.961568   -2.061925
     61          1           0      -27.977646   -1.198459   -3.711790
     62          1           0      -27.094029   -0.262289   -2.540492
     63          1           0      -25.948750   -0.989056    1.925665
     64          1           0      -25.108880    1.686551    2.825260
     65          1           0      -27.712028    0.271504    2.244390
     66          1           0      -27.371713    0.694827    0.503341
     67          1           0      -26.889143    1.812374    1.856727
     68          1           0      -23.879351   -0.430205    4.471098
     69          1           0      -25.399031   -1.098962    4.074288
     70          1           0      -24.917853    0.526409    6.373923
     71          1           0      -26.518362    0.168822    5.672192
     72          1           0      -25.755973    1.642721    5.284623
     73          1           0      -18.911391    2.613722    5.001360
     74          1           0      -20.016706    1.199856    5.288028
     75          1           0      -20.821399    2.646923    4.994943
     76          1           0      -16.504764   -0.258471    1.335582
     77          1           0      -13.687169    2.572436   -0.309215
     78          1           0      -14.518382    2.033609   -1.803573
     79          1           0      -13.223662    1.063024   -1.075157
     80         12           0       20.915990   -0.807274    0.018734
     81          6           0       21.653197    2.406518   -0.976248
     82          6           0       17.660012    0.336641    0.945205
     83          6           0       20.256574   -3.747018    1.317096
     84          6           0       24.160250   -1.833989   -0.745577
     85          7           0       19.862589    1.167269   -0.052838
     86          6           0       20.347023    2.319155   -0.526188
     87          6           0       19.212636    3.394801   -0.497460
     88          6           0       17.997043    2.689217    0.261312
     89          6           0       18.564110    1.269824    0.456712
     90          6           0       17.662767    3.198633    1.650159
     91          6           0       18.857270    3.994097   -1.866479
     92          6           0       18.864483    5.512965   -1.825492
     93          1           0       18.000671    6.335998   -2.792220
     94          7           0       19.161102   -1.600045    0.921099
     95          6           0       17.945369   -1.029774    1.166734
     96          6           0       17.037432   -1.932568    1.719474
     97          6           0       17.785840   -3.135291    1.969827
     98          6           0       19.144168   -2.873857    1.379781
     99          6           0       15.584198   -1.601672    2.026867
    100          6           0       17.355210   -4.394365    2.704429
    101          8           0       18.218295   -5.256436    2.959903
    102          6           0       15.985880   -4.567166    3.222524
    103          7           0       22.038219   -2.493356    0.202435
    104          6           0       21.542817   -3.666475    0.733610
    105          6           0       22.579161   -4.849689    0.788350
    106          6           0       23.710654   -4.240706   -0.145217
    107          6           0       23.300617   -2.758871   -0.226182
    108          6           0       23.169106   -5.368146    2.158969
    109          6           0       24.051982   -4.985506   -1.514931
    110          6           0       23.078369   -4.753581   -2.640096
    111          7           0       22.612375    0.054508   -0.567430
    112          6           0       23.873496   -0.435506   -0.848672
    113          6           0       24.744784    0.566235   -1.310570
    114          6           0       23.891573    1.671810   -1.404062
    115          6           0       22.585397    1.331815   -0.945810
    116          6           0       26.130378    0.279563   -1.706675
    117          6           0       23.965171    3.051406   -1.696889
    118          8           0       24.968543    3.709255   -1.979565
    119          6           0       22.478449    3.643101   -1.463367
    120          6           0       22.542781    4.716402   -0.487097
    121          8           0       22.690597    4.602192    0.708187
    122          8           0       22.529875    5.895923   -1.095685
    123          6           0       22.709772    7.083249   -0.316131
    124          1           0       16.686580    0.706694    1.272453
    125          1           0       20.186734   -4.763265    1.709748
    126          1           0       25.165772   -2.196690   -0.969013
    127          1           0       19.664290    4.127426    0.170637
    128          1           0       17.116157    2.914394   -0.340923
    129          1           0       18.226026    4.080257    1.957533
    130          1           0       17.903971    2.442005    2.396291
    131          1           0       16.582388    3.301964    1.755594
    132          1           0       17.907150    3.659285   -2.283105
    133          1           0       19.596757    3.636609   -2.582658
    134          1           0       19.875005    5.811998   -2.106275
    135          1           0       18.599049    5.784981   -0.804072
    136          1           0       15.280782   -0.658532    1.572298
    137          1           0       15.489061   -1.404853    3.094947
    138          1           0       14.934373   -2.448915    1.810966
    139          1           0       15.963453   -5.313099    4.017795
    140          1           0       15.387650   -4.968884    2.404107
    141          1           0       15.602442   -3.621039    3.603753
    142          1           0       22.250188   -5.715180    0.212313
    143          1           0       24.668667   -4.347323    0.362120
    144          1           0       22.711430   -4.785039    2.957131
    145          1           0       24.205826   -5.039369    2.241431
    146          1           0       23.104730   -6.433824    2.380613
    147          1           0       23.985304   -6.051487   -1.298729
    148          1           0       25.072529   -4.830368   -1.862871
    149          1           0       23.650405   -4.805241   -3.565833
    150          1           0       22.441379   -3.870188   -2.659936
    151          1           0       22.355283   -5.567738   -2.590908
    152          1           0       26.365313   -0.702680   -2.115898
    153          1           0       26.903133    0.587928   -1.003534
    154          1           0       26.268557    1.010836   -2.502666
    155          1           0       22.125437    4.035912   -2.416683
    156          1           0       21.765701    7.480779    0.058181
    157          1           0       23.112325    7.841876   -0.987098
    158          1           0       23.357914    6.872905    0.534749
 ---------------------------------------------------------------------

 SCF Done:  E(RCAM-B3LYP) =  -4069.80721632     A.U. after   17 cycles

 Excitation energies and oscillator strengths:

 Excited State   1:      Singlet-A      1.6989 eV  729.79 nm  f=0.4073  <S**2>=0.000
     309 -> 315       -0.18484
     312 -> 314        0.68367
     309 <- 315       -0.11121
 This state for optimization and/or second-order correction.
 Total Energy, E(TD-HF/TD-DFT) =  -4069.74478311
 Copying the excited state density for this state as the 1-particle RhoCI density.

 Excited State   2:      Singlet-A      1.7068 eV  726.41 nm  f=0.4008  <S**2>=0.000
     310 -> 316        0.17221
     311 -> 313        0.68504
     310 <- 316        0.10511

 Excited State   3:      Singlet-A      2.2215 eV  558.10 nm  f=0.1599  <S**2>=0.000
     310 -> 313        0.65327
     311 -> 316       -0.25407

 Excited State   4:      Singlet-A      2.2522 eV  550.50 nm  f=0.1328  <S**2>=0.000
     309 -> 314        0.64093
     312 -> 315        0.28919

 Excited State   5:      Singlet-A      3.1112 eV  398.51 nm  f=0.0000  <S**2>=0.000
     312 -> 313        0.70710

 The electronic state is 1-A.
 Alpha  occ. eigenvalues --  -46.88943 -46.87687 -19.26321 -19.24827 -19.20603
 Alpha  occ. eigenvalues --  -19.19780 -19.18625 -19.18592 -19.18243 -19.18167
 Alpha  occ. eigenvalues --  -14.42300 -14.42167 -14.41971 -14.41437 -14.39970
 Alpha  occ. eigenvalues --  -14.39863 -14.39715 -14.38964 -10.40141 -10.38302
 Alpha  occ. eigenvalues --  -10.35488 -10.35280 -10.34870 -10.34511 -10.32501
 Alpha  occ. eigenvalues --  -10.31503 -10.31229 -10.31218 -10.31187 -10.31158
 Alpha  occ. eigenvalues --  -10.30810 -10.30739 -10.30673 -10.30436 -10.30366
 Alpha  occ. eigenvalues --  -10.30348 -10.30156 -10.29793 -10.29385 -10.29119
 Alpha  occ. eigenvalues --  -10.29054 -10.28994 -10.28989 -10.28773 -10.28600
 Alpha  occ. eigenvalues --  -10.28556 -10.28524 -10.28284 -10.28276 -10.28268
 Alpha  occ. eigenvalues --  -10.28138 -10.27962 -10.27819 -10.27699 -10.27666
 Alpha  occ. eigenvalues --  -10.27663 -10.27626 -10.27589 -10.27556 -10.27521
 Alpha  occ. eigenvalues --  -10.27508 -10.27500 -10.27497 -10.27295 -10.27265
 Alpha  occ. eigenvalues --  -10.27234 -10.27191 -10.27033 -10.26818 -10.26801
 Alpha  occ. eigenvalues --  -10.26709 -10.26604 -10.26472 -10.26446 -10.26307
 Alpha  occ. eigenvalues --  -10.26277 -10.26272 -10.26187 -10.26167 -10.26107
 Alpha  occ. eigenvalues --  -10.25748 -10.25560 -10.25084 -10.24982 -10.24640
 Alpha  occ. eigenvalues --  -10.24599  -3.17498  -3.16471  -1.92388  -1.91942
 Alpha  occ. eigenvalues --   -1.91815  -1.91369  -1.90943  -1.90775  -1.17933
 Alpha  occ. eigenvalues --   -1.16590  -1.10861  -1.08855  -1.08504  -1.08214
 Alpha  occ. eigenvalues --   -1.07797  -1.07277  -1.05489  -1.04763  -1.04595
 Alpha  occ. eigenvalues --   -1.03781  -1.03703  -1.03333  -1.02548  -1.02377
 Alpha  occ. eigenvalues --   -0.93221  -0.92089  -0.89366  -0.89363  -0.88774
 Alpha  occ. eigenvalues --   -0.88347  -0.88322  -0.88171  -0.88009  -0.87652
 Alpha  occ. eigenvalues --   -0.87518  -0.87513  -0.86786  -0.86044  -0.84675
 Alpha  occ. eigenvalues --   -0.84595  -0.83896  -0.83866  -0.82952  -0.82765
 Alpha  occ. eigenvalues --   -0.82400  -0.82056  -0.81405  -0.81182  -0.80596
 Alpha  occ. eigenvalues --   -0.80524  -0.78341  -0.78259  -0.77686  -0.77334
 Alpha  occ. eigenvalues --   -0.76918  -0.76895  -0.76339  -0.75982  -0.75383
 Alpha  occ. eigenvalues --   -0.75284  -0.73452  -0.73234  -0.72252  -0.71454
 Alpha  occ. eigenvalues --   -0.69847  -0.69654  -0.69426  -0.68839  -0.68525
 Alpha  occ. eigenvalues --   -0.67796  -0.67147  -0.66789  -0.66191  -0.65675
 Alpha  occ. eigenvalues --   -0.65395  -0.65157  -0.64920  -0.64803  -0.64607
 Alpha  occ. eigenvalues --   -0.64386  -0.63002  -0.62344  -0.60428  -0.60182
 Alpha  occ. eigenvalues --   -0.60004  -0.59941  -0.59586  -0.58995  -0.58957
 Alpha  occ. eigenvalues --   -0.58514  -0.58472  -0.58351  -0.57683  -0.57631
 Alpha  occ. eigenvalues --   -0.56528  -0.56280  -0.56205  -0.56024  -0.55690
 Alpha  occ. eigenvalues --   -0.55093  -0.54899  -0.54674  -0.54543  -0.54362
 Alpha  occ. eigenvalues --   -0.53734  -0.53535  -0.53332  -0.53168  -0.52976
 Alpha  occ. eigenvalues --   -0.52776  -0.52670  -0.52507  -0.52354  -0.52136
 Alpha  occ. eigenvalues --   -0.52132  -0.51799  -0.51723  -0.51454  -0.51329
 Alpha  occ. eigenvalues --   -0.51266  -0.50621  -0.50373  -0.50301  -0.50297
 Alpha  occ. eigenvalues --   -0.50069  -0.50011  -0.49962  -0.49668  -0.49606
 Alpha  occ. eigenvalues --   -0.49473  -0.49448  -0.49260  -0.49144  -0.48964
 Alpha  occ. eigenvalues --   -0.48823  -0.48501  -0.48397  -0.48146  -0.47978
 Alpha  occ. eigenvalues --   -0.47777  -0.47776  -0.47690  -0.47629  -0.47488
 Alpha  occ. eigenvalues --   -0.47331  -0.47068  -0.46880  -0.46684  -0.46503
 Alpha  occ. eigenvalues --   -0.46494  -0.46378  -0.46165  -0.46026  -0.45971
 Alpha  occ. eigenvalues --   -0.45660  -0.45540  -0.45426  -0.45415  -0.45152
 Alpha  occ. eigenvalues --   -0.45018  -0.44928  -0.44589  -0.44580  -0.44376
 Alpha  occ. eigenvalues --   -0.43899  -0.43815  -0.43695  -0.43634  -0.43597
 Alpha  occ. eigenvalues --   -0.43494  -0.43312  -0.43241  -0.43123  -0.42987
 Alpha  occ. eigenvalues --   -0.42845  -0.42680  -0.42529  -0.42358  -0.41997
 Alpha  occ. eigenvalues --   -0.41588  -0.41560  -0.41512  -0.41322  -0.41264
 Alpha  occ. eigenvalues --   -0.41144  -0.41114  -0.40990  -0.40892  -0.40486
 Alpha  occ. eigenvalues --   -0.40374  -0.40263  -0.39200  -0.38965  -0.38886
 Alpha  occ. eigenvalues --   -0.38780  -0.38287  -0.38200  -0.37767  -0.37740
 Alpha  occ. eigenvalues --   -0.37677  -0.37192  -0.36538  -0.36486  -0.36357
 Alpha  occ. eigenvalues --   -0.36184  -0.35889  -0.35231  -0.34236  -0.34149
 Alpha  occ. eigenvalues --   -0.33883  -0.33134  -0.33054  -0.31449  -0.31367
 Alpha  occ. eigenvalues --   -0.31164  -0.30786  -0.30535  -0.30367  -0.30147
 Alpha  occ. eigenvalues --   -0.30063  -0.29769  -0.29405  -0.24206  -0.24126
 Alpha  occ. eigenvalues --   -0.21482  -0.21348
 Alpha virt. eigenvalues --   -0.09101  -0.08965  -0.01768  -0.01430   0.00246
 Alpha virt. eigenvalues --    0.00484   0.02263   0.02388   0.02477   0.03161
 Alpha virt. eigenvalues --    0.04207   0.04967   0.05637   0.05665   0.05793

 Mulliken charges:
               1
     1  Mg   0.845488
     2  C   -0.112940
     3  C   -0.073141
     4  C   -0.090979
     5  C   -0.092570
     6  N   -0.247128
     7  C   -0.075158
     8  C   -0.009303
     9  C   -0.029568
    10  C    0.035787
    11  C    0.076714
    12  C    0.033480
    13  C   -0.045933
    14  H    0.033715
    15  N   -0.393837
    16  C    0.113907
    17  C   -0.127920
    18  C   -0.056940
    19  C    0.207481
    20  C    0.128635
    21  C   -0.019430
    22  O   -0.248900
    23  C    0.082583
    24  N   -0.275373
    25  C   -0.016065
    26  C   -0.039396
    27  C   -0.051987
    28  C    0.065273
    29  C    0.078738
    30  C    0.053598
    31  C    0.008839
    32  N   -0.340860
    33  C    0.091969
    34  C   -0.194202
    35  C   -0.020910
    36  C    0.159298
    37  C    0.167679
    38  C    0.065261
    39  O   -0.152122
    40  C    0.021567
    41  C    0.224349
    42  O   -0.224384
    43  O   -0.341394
    44  C    0.178525
    45  H   -0.025604
    46  H   -0.057443
    47  H   -0.022546
    48  H   -0.004174
    49  H    0.003342
    50  H    0.016683
    51  H    0.023074
    52  H    0.015118
    53  H    0.006922
    54  H    0.030324
    55  H    0.025791
    56  H    0.020551
    57  H    0.025868
    58  H    0.010147
    59  H    0.043839
    60  H    0.062304
    61  H    0.038808
    62  H    0.023409
    63  H    0.011784
    64  H    0.009072
    65  H    0.018317
    66  H    0.020291
    67  H    0.011099
    68  H    0.009893
    69  H    0.000828
    70  H    0.024635
    71  H    0.014063
    72  H    0.012632
    73  H    0.056959
    74  H    0.022581
    75  H    0.007170
    76  H    0.030604
    77  H    0.047740
    78  H    0.035004
    79  H    0.038470
    80  Mg   0.849747
    81  C   -0.032510
    82  C   -0.104347
    83  C   -0.040422
    84  C   -0.102952
    85  N   -0.277007
    86  C   -0.073607
    87  C    0.020007
    88  C   -0.112949
    89  C    0.098360
    90  C    0.051540
    91  C    0.081304
    92  C   -0.091582
    93  H    0.011468
    94  N   -0.341470
    95  C    0.146766
    96  C   -0.163383
    97  C   -0.029817
    98  C    0.148873
    99  C    0.116774
   100  C   -0.008334
   101  O   -0.229860
   102  C    0.068402
   103  N   -0.320740
   104  C    0.008036
   105  C   -0.016758
   106  C   -0.037877
   107  C    0.071407
   108  C    0.076343
   109  C    0.018598
   110  C   -0.003774
   111  N   -0.375133
   112  C    0.118495
   113  C   -0.127453
   114  C    0.017208
   115  C    0.159540
   116  C    0.116729
   117  C    0.021780
   118  O   -0.183751
   119  C   -0.013636
   120  C    0.166782
   121  O   -0.220797
   122  O   -0.295156
   123  C    0.174906
   124  H   -0.024835
   125  H   -0.005990
   126  H   -0.029587
   127  H    0.009706
   128  H    0.016843
   129  H    0.020847
   130  H    0.019473
   131  H    0.013220
   132  H    0.015415
   133  H    0.005721
   134  H    0.041361
   135  H    0.035632
   136  H    0.018811
   137  H    0.034038
   138  H    0.033315
   139  H    0.029281
   140  H    0.043620
   141  H    0.024153
   142  H    0.010394
   143  H    0.001450
   144  H    0.018275
   145  H    0.006743
   146  H    0.034649
   147  H    0.004107
   148  H    0.008755
   149  H    0.014735
   150  H    0.027006
   151  H    0.007614
   152  H    0.024876
   153  H    0.030976
   154  H    0.021934
   155  H    0.035907
   156  H    0.024943
   157  H    0.037061
   158  H    0.049800
 Sum of Mulliken charges =  -0.00000

 Dipole moment (field-independent basis, Debye):
    X=             -5.0552    Y=             -2.0894    Z=              0.0296  Tot=              5.4701
 Quadrupole moment (field-independent basis, Debye-Ang):
   XX=           -601.7148   YY=           -520.8997   ZZ=           -528.0192
   XY=            -66.5627   XZ=            -79.4258   YZ=              0.1860

 Normal termination of Gaussian 16 at Wed Sep 15 05:27:30 2021.
