 Gaussian 16, Revision A.03,
 Gaussian 16:  ES64L-G16RevA.03 25-Dec-2016

 -----------------------------------
 #p cam-b3lyp/Def2SVP td=(nstates=5)
 -----------------------------------

 --------------------------------
 TDDFT excited states in gaussian
 --------------------------------
 Symbolic Z-matrix:
 Charge =  0 Multiplicity = 1

                         Standard orientation:
 ---------------------------------------------------------------------
 Center     Atomic      Atomic             Coordinates (Angstroms)
 Number     Number       Type             X           Y           Z
 ---------------------------------------------------------------------
      1         12           0      -30.675452   -0.279993   -0.401908
      2          6           0      -27.613523    1.266037    0.428006
      3          6           0      -29.401564   -3.305448    0.777716
      4          6           0      -33.878890   -1.433838   -0.256944
      5          6           0      -31.923078    3.012638   -1.059075
      6          7           0      -28.752993   -0.910111    0.445215
      7          6           0      -27.687065   -0.126021    0.712277
      8          6           0      -26.572826   -0.928201    1.460048
      9          6           0      -27.065772   -2.422779    1.184461
     10          6           0      -28.547106   -2.235351    0.722280
     11          6           0      -26.374745   -3.301203    0.116957
     12          6           0      -26.576861   -0.510788    2.979251
     13          6           0      -25.165633   -0.468940    3.628374
     14          1           0      -25.076049   -1.031627    5.105199
     15          7           0      -31.539266   -2.223357   -0.004232
     16          6           0      -30.804674   -3.301707    0.412353
     17          6           0      -31.701993   -4.389806    0.507536
     18          6           0      -33.029996   -3.915943    0.290762
     19          6           0      -32.880795   -2.464591   -0.063144
     20          6           0      -31.314483   -5.801645    0.879018
     21          6           0      -34.296952   -4.664893    0.527689
     22          8           0      -34.303501   -5.785659    1.010995
     23          6           0      -35.617857   -4.144744    0.287931
     24          7           0      -32.645484    0.735186   -0.529290
     25          6           0      -33.803708   -0.053103   -0.598190
     26          6           0      -34.981777    0.776808   -1.002783
     27          6           0      -34.400151    2.225029   -1.203544
     28          6           0      -32.921952    2.016221   -0.923270
     29          6           0      -35.612767    0.167666   -2.261377
     30          6           0      -35.203319    3.342888   -0.437807
     31          6           0      -35.752384    4.467623   -1.262120
     32          7           0      -29.943555    1.783652   -0.380330
     33          6           0      -30.567284    2.957765   -0.724367
     34          6           0      -29.592839    4.070579   -0.753265
     35          6           0      -28.446476    3.411884   -0.234774
     36          6           0      -28.689040    2.056075   -0.117885
     37          6           0      -29.817064    5.546738   -1.041458
     38          6           0      -27.125049    3.667606    0.273760
     39          8           0      -26.515611    4.740780    0.403153
     40          6           0      -26.495543    2.343730    0.706473
     41          6           0      -25.213079    2.110450    0.016564
     42          8           0      -24.198455    1.968114    0.596962
     43          8           0      -25.345439    1.880221   -1.322263
     44          6           0      -24.071549    1.398478   -1.899010
     45          1           0      -29.011508   -4.284256    1.066104
     46          1           0      -34.868249   -1.893231   -0.283340
     47          1           0      -32.125259    4.078888   -1.184867
     48          1           0      -25.616286   -0.692589    0.993226
     49          1           0      -27.303770   -3.005520    2.074183
     50          1           0      -25.911645   -2.675865   -0.647171
     51          1           0      -26.998440   -4.048076   -0.374356
     52          1           0      -25.568212   -3.815322    0.638640
     53          1           0      -27.244912   -1.151923    3.555065
     54          1           0      -27.011395    0.488882    2.985027
     55          1           0      -24.913644    0.591519    3.609964
     56          1           0      -24.550112   -0.986775    2.892459
     57          1           0      -32.000723   -6.589292    0.567649
     58          1           0      -31.246119   -5.766013    1.965953
     59          1           0      -30.281521   -6.091071    0.685730
     60          1           0      -35.678486   -3.921925   -0.778097
     61          1           0      -35.819592   -3.276085    0.915355
     62          1           0      -36.343764   -4.914821    0.549134
     63          1           0      -35.675969    0.888728   -0.170257
     64          1           0      -34.236474    2.566546   -2.225876
     65          1           0      -35.275123   -0.849043   -2.463836
     66          1           0      -35.364319    0.740148   -3.155043
     67          1           0      -36.667999   -0.032307   -2.077758
     68          1           0      -34.500658    3.720907    0.304812
     69          1           0      -36.129799    2.990642    0.014218
     70          1           0      -35.380550    5.394468   -0.826143
     71          1           0      -36.840126    4.516822   -1.208800
     72          1           0      -35.561473    4.351616   -2.329026
     73          1           0      -30.184771    6.094126   -0.173315
     74          1           0      -30.449587    5.724072   -1.912178
     75          1           0      -28.790363    5.885025   -1.180722
     76          1           0      -26.190916    2.407432    1.750309
     77          1           0      -24.233710    1.231026   -2.964113
     78          1           0      -23.749176    0.480142   -1.408456
     79          1           0      -23.272974    2.139516   -1.906083
     80         12           0       30.851530    0.266475   -0.333429
     81          6           0       27.813192   -1.505920   -0.190033
     82          6           0       29.057858    3.051487    0.724993
     83          6           0       33.713323    1.936759    0.001017
     84          6           0       32.497324   -2.785846   -0.467940
     85          7           0       28.678268    0.615865    0.355199
     86          6           0       27.564766   -0.190348    0.220942
     87          6           0       26.232023    0.523770    0.303806
     88          6           0       26.633994    1.993246    0.574533
     89          6           0       28.196365    1.924504    0.575067
     90          6           0       26.066479    3.029752   -0.478149
     91          6           0       25.211688    0.000239    1.410592
     92          6           0       25.793093   -0.581938    2.709300
     93          1           0       25.739979    0.290098    3.998605
     94          7           0       31.302914    2.183499    0.257305
     95          6           0       30.438681    3.186833    0.592195
     96          6           0       31.180915    4.437616    0.803406
     97          6           0       32.559852    4.131062    0.590637
     98          6           0       32.565014    2.670266    0.271873
     99          6           0       30.517528    5.763746    1.155640
    100          6           0       33.640819    5.247837    0.840527
    101          8           0       33.256745    6.336205    1.245487
    102          6           0       35.182919    4.923257    0.657167
    103          7           0       32.776106   -0.351745   -0.123210
    104          6           0       33.842819    0.543431   -0.158223
    105          6           0       35.261560   -0.255727   -0.262870
    106          6           0       34.733530   -1.791065   -0.250801
    107          6           0       33.249291   -1.617718   -0.289781
    108          6           0       36.073206    0.126328   -1.535591
    109          6           0       35.189394   -2.655711    1.001723
    110          6           0       35.853198   -4.020607    0.762078
    111          7           0       30.309819   -1.770810   -0.456416
    112          6           0       31.057044   -2.920104   -0.494244
    113          6           0       30.137412   -4.077135   -0.516711
    114          6           0       28.832526   -3.515265   -0.516259
    115          6           0       29.023830   -2.107990   -0.428947
    116          6           0       30.495970   -5.537363   -0.517984
    117          6           0       27.406231   -3.888513   -0.469318
    118          8           0       26.814842   -4.972141   -0.582775
    119          6           0       26.694029   -2.544123   -0.455689
    120          6           0       25.912619   -2.318285   -1.624705
    121          8           0       26.429244   -1.951438   -2.711824
    122          8           0       24.540649   -2.521912   -1.376546
    123          6           0       23.589316   -2.174276   -2.427206
    124          1           0       28.529489    3.992952    0.887089
    125          1           0       34.657351    2.482114   -0.053863
    126          1           0       33.088453   -3.697815   -0.570134
    127          1           0       25.816990    0.362538   -0.690387
    128          1           0       26.375409    2.177867    1.616571
    129          1           0       25.315379    3.657972    0.000613
    130          1           0       25.628944    2.432718   -1.278731
    131          1           0       26.853182    3.681771   -0.859169
    132          1           0       24.726143   -0.817401    0.876344
    133          1           0       24.475681    0.778725    1.612778
    134          1           0       26.832856   -0.877638    2.565564
    135          1           0       25.290589   -1.527342    2.909449
    136          1           0       30.607428    6.055986    2.201901
    137          1           0       29.514249    5.824440    0.733734
    138          1           0       30.963706    6.580657    0.588741
    139          1           0       35.284923    4.413266   -0.301051
    140          1           0       35.480722    4.283605    1.487559
    141          1           0       35.839757    5.773863    0.839196
    142          1           0       35.866533    0.104263    0.568772
    143          1           0       35.047802   -2.240256   -1.193178
    144          1           0       35.836811   -0.608484   -2.304900
    145          1           0       37.140436    0.232972   -1.340963
    146          1           0       35.847545    1.118235   -1.926777
    147          1           0       34.313673   -2.755875    1.643760
    148          1           0       35.926514   -1.995366    1.458541
    149          1           0       35.804961   -4.660142    1.643851
    150          1           0       36.881321   -3.739069    0.535597
    151          1           0       35.296560   -4.442671   -0.074915
    152          1           0       31.473399   -5.568413   -0.037317
    153          1           0       30.626655   -5.741173   -1.580740
    154          1           0       29.730272   -6.206001   -0.123526
    155          1           0       26.069437   -2.643293    0.431815
    156          1           0       23.630387   -2.750348   -3.351665
    157          1           0       23.693883   -1.121123   -2.689688
    158          1           0       22.604786   -2.171290   -1.959166
 ---------------------------------------------------------------------

 SCF Done:  E(RCAM-B3LYP) =  -4069.77720373     A.U. after   19 cycles

 Excitation energies and oscillator strengths:

 Excited State   1:      Singlet-A      1.6804 eV  737.81 nm  f=0.4058  <S**2>=0.000
     309 -> 315        0.17287
     311 -> 313        0.68702
     309 <- 315        0.10657
 This state for optimization and/or second-order correction.
 Total Energy, E(TD-HF/TD-DFT) =  -4069.71544892
 Copying the excited state density for this state as the 1-particle RhoCI density.

 Excited State   2:      Singlet-A      1.7180 eV  721.69 nm  f=0.3773  <S**2>=0.000
     310 -> 316        0.18148
     312 -> 314        0.68506
     310 <- 316        0.10790

 Excited State   3:      Singlet-A      2.2017 eV  563.14 nm  f=0.1139  <S**2>=0.000
     309 -> 313        0.64204
     311 -> 315       -0.28115

 Excited State   4:      Singlet-A      2.3104 eV  536.64 nm  f=0.0713  <S**2>=0.000
     310 -> 314        0.61633
     312 -> 316       -0.33582

 Excited State   5:      Singlet-A      2.9548 eV  419.60 nm  f=0.0000  <S**2>=0.000
     312 -> 313        0.70711

 The electronic state is 1-A.
 Alpha  occ. eigenvalues --  -46.90854 -46.88925 -19.25791 -19.25130 -19.20235
 Alpha  occ. eigenvalues --  -19.19935 -19.19614 -19.19191 -19.18861 -19.17337
 Alpha  occ. eigenvalues --  -14.42992 -14.42719 -14.42636 -14.42081 -14.39957
 Alpha  occ. eigenvalues --  -14.39924 -14.39317 -14.39314 -10.40022 -10.38748
 Alpha  occ. eigenvalues --  -10.36492 -10.35349 -10.34790 -10.33521 -10.32261
 Alpha  occ. eigenvalues --  -10.32114 -10.32002 -10.31878 -10.31877 -10.31840
 Alpha  occ. eigenvalues --  -10.31347 -10.31081 -10.31006 -10.30935 -10.30637
 Alpha  occ. eigenvalues --  -10.30584 -10.30200 -10.30087 -10.29875 -10.29838
 Alpha  occ. eigenvalues --  -10.29325 -10.29298 -10.29100 -10.29050 -10.28998
 Alpha  occ. eigenvalues --  -10.28926 -10.28789 -10.28523 -10.28478 -10.28463
 Alpha  occ. eigenvalues --  -10.28441 -10.28369 -10.28306 -10.28305 -10.28303
 Alpha  occ. eigenvalues --  -10.28187 -10.28166 -10.28030 -10.27766 -10.27760
 Alpha  occ. eigenvalues --  -10.27740 -10.27557 -10.27497 -10.27467 -10.27388
 Alpha  occ. eigenvalues --  -10.27152 -10.27138 -10.27058 -10.26985 -10.26826
 Alpha  occ. eigenvalues --  -10.26794 -10.26730 -10.26677 -10.26658 -10.26583
 Alpha  occ. eigenvalues --  -10.26569 -10.26534 -10.26409 -10.26054 -10.25858
 Alpha  occ. eigenvalues --  -10.25766 -10.25467 -10.25455 -10.25306 -10.25276
 Alpha  occ. eigenvalues --  -10.25172  -3.19001  -3.17551  -1.93915  -1.93437
 Alpha  occ. eigenvalues --   -1.93297  -1.92409  -1.92023  -1.91856  -1.17991
 Alpha  occ. eigenvalues --   -1.14971  -1.10414  -1.09569  -1.09059  -1.09055
 Alpha  occ. eigenvalues --   -1.08973  -1.07021  -1.05132  -1.04145  -1.03768
 Alpha  occ. eigenvalues --   -1.03546  -1.03453  -1.02612  -1.02553  -1.01878
 Alpha  occ. eigenvalues --   -0.93132  -0.92647  -0.89441  -0.89164  -0.89038
 Alpha  occ. eigenvalues --   -0.88846  -0.88254  -0.88080  -0.88048  -0.87033
 Alpha  occ. eigenvalues --   -0.86805  -0.86079  -0.85841  -0.85560  -0.84900
 Alpha  occ. eigenvalues --   -0.84673  -0.84522  -0.83913  -0.82799  -0.82731
 Alpha  occ. eigenvalues --   -0.82533  -0.81661  -0.81007  -0.80946  -0.80570
 Alpha  occ. eigenvalues --   -0.80082  -0.78677  -0.78167  -0.77631  -0.77217
 Alpha  occ. eigenvalues --   -0.76887  -0.76769  -0.76520  -0.76515  -0.75450
 Alpha  occ. eigenvalues --   -0.74902  -0.73164  -0.72537  -0.72331  -0.71749
 Alpha  occ. eigenvalues --   -0.69392  -0.69292  -0.69284  -0.68909  -0.68432
 Alpha  occ. eigenvalues --   -0.67977  -0.66918  -0.66809  -0.66370  -0.65778
 Alpha  occ. eigenvalues --   -0.65732  -0.65186  -0.65015  -0.64669  -0.64577
 Alpha  occ. eigenvalues --   -0.64199  -0.63327  -0.62440  -0.60231  -0.60099
 Alpha  occ. eigenvalues --   -0.60042  -0.59622  -0.59064  -0.59012  -0.58907
 Alpha  occ. eigenvalues --   -0.58651  -0.58329  -0.57738  -0.57183  -0.57098
 Alpha  occ. eigenvalues --   -0.56529  -0.56141  -0.56100  -0.55602  -0.55575
 Alpha  occ. eigenvalues --   -0.55154  -0.54945  -0.54573  -0.54430  -0.54191
 Alpha  occ. eigenvalues --   -0.53763  -0.53525  -0.53401  -0.53215  -0.53083
 Alpha  occ. eigenvalues --   -0.52844  -0.52675  -0.52614  -0.52341  -0.52285
 Alpha  occ. eigenvalues --   -0.52124  -0.51776  -0.51560  -0.51490  -0.51351
 Alpha  occ. eigenvalues --   -0.51185  -0.50945  -0.50909  -0.50707  -0.50299
 Alpha  occ. eigenvalues --   -0.50065  -0.49978  -0.49876  -0.49584  -0.49356
 Alpha  occ. eigenvalues --   -0.49349  -0.49287  -0.49254  -0.49057  -0.48963
 Alpha  occ. eigenvalues --   -0.48639  -0.48570  -0.48417  -0.48344  -0.48223
 Alpha  occ. eigenvalues --   -0.48134  -0.47546  -0.47364  -0.47349  -0.47198
 Alpha  occ. eigenvalues --   -0.46980  -0.46813  -0.46701  -0.46609  -0.46445
 Alpha  occ. eigenvalues --   -0.46374  -0.46350  -0.46236  -0.46157  -0.45777
 Alpha  occ. eigenvalues --   -0.45766  -0.45378  -0.45156  -0.45108  -0.44964
 Alpha  occ. eigenvalues --   -0.44874  -0.44786  -0.44702  -0.44608  -0.44552
 Alpha  occ. eigenvalues --   -0.44369  -0.44178  -0.44033  -0.43920  -0.43613
 Alpha  occ. eigenvalues --   -0.43348  -0.43223  -0.43028  -0.43021  -0.42925
 Alpha  occ. eigenvalues --   -0.42898  -0.42672  -0.42665  -0.42388  -0.42315
 Alpha  occ. eigenvalues --   -0.42256  -0.42093  -0.41801  -0.41558  -0.41297
 Alpha  occ. eigenvalues --   -0.41059  -0.41045  -0.40810  -0.40602  -0.40269
 Alpha  occ. eigenvalues --   -0.40152  -0.39853  -0.39692  -0.39651  -0.39253
 Alpha  occ. eigenvalues --   -0.38898  -0.38693  -0.37917  -0.37656  -0.37639
 Alpha  occ. eigenvalues --   -0.37506  -0.37254  -0.37073  -0.37006  -0.36907
 Alpha  occ. eigenvalues --   -0.36621  -0.36420  -0.34940  -0.34751  -0.34403
 Alpha  occ. eigenvalues --   -0.34152  -0.33510  -0.33191  -0.31511  -0.31406
 Alpha  occ. eigenvalues --   -0.31195  -0.30992  -0.30972  -0.30409  -0.30256
 Alpha  occ. eigenvalues --   -0.30025  -0.29595  -0.29217  -0.24527  -0.24134
 Alpha  occ. eigenvalues --   -0.21592  -0.20823
 Alpha virt. eigenvalues --   -0.09401  -0.08177  -0.02270  -0.01799   0.00268
 Alpha virt. eigenvalues --    0.00285   0.01197   0.01658   0.02060   0.02412
 Alpha virt. eigenvalues --    0.03445   0.04672   0.05042   0.05229   0.05427

 Mulliken charges:
               1
     1  Mg   0.801200
     2  C    0.004429
     3  C   -0.071546
     4  C   -0.019793
     5  C   -0.048248
     6  N   -0.286885
     7  C   -0.055440
     8  C   -0.042426
     9  C   -0.052358
    10  C    0.058054
    11  C    0.080544
    12  C    0.048733
    13  C   -0.050671
    14  H    0.026234
    15  N   -0.365260
    16  C    0.114130
    17  C   -0.149643
    18  C   -0.022438
    19  C    0.090982
    20  C    0.140520
    21  C   -0.050241
    22  O   -0.214551
    23  C    0.079029
    24  N   -0.287386
    25  C    0.025732
    26  C   -0.009796
    27  C   -0.012923
    28  C    0.028447
    29  C    0.074427
    30  C    0.039549
    31  C   -0.004091
    32  N   -0.281378
    33  C    0.026157
    34  C   -0.155007
    35  C    0.014919
    36  C    0.076312
    37  C    0.107437
    38  C    0.020282
    39  O   -0.190069
    40  C    0.052726
    41  C    0.149218
    42  O   -0.180129
    43  O   -0.336491
    44  C    0.181928
    45  H   -0.017973
    46  H   -0.053334
    47  H   -0.027249
    48  H    0.012522
    49  H    0.009880
    50  H    0.010236
    51  H    0.025065
    52  H    0.017222
    53  H    0.017874
    54  H    0.012954
    55  H    0.042888
    56  H    0.031784
    57  H    0.047183
    58  H    0.015836
    59  H   -0.004954
    60  H    0.029975
    61  H    0.043489
    62  H    0.024770
    63  H    0.021291
    64  H    0.015157
    65  H    0.014943
    66  H    0.018911
    67  H    0.014607
    68  H    0.016981
    69  H    0.015944
    70  H    0.020663
    71  H    0.008643
    72  H    0.012712
    73  H    0.041379
    74  H    0.029840
    75  H    0.041876
    76  H    0.031438
    77  H    0.027483
    78  H    0.035969
    79  H    0.039777
    80  Mg   0.851607
    81  C   -0.100150
    82  C   -0.078312
    83  C   -0.099229
    84  C   -0.088982
    85  N   -0.279403
    86  C   -0.081150
    87  C   -0.019351
    88  C   -0.002811
    89  C   -0.000094
    90  C    0.073884
    91  C    0.027100
    92  C   -0.064904
    93  H    0.020896
    94  N   -0.362114
    95  C    0.140210
    96  C   -0.140670
    97  C   -0.078372
    98  C    0.187246
    99  C    0.142634
   100  C    0.026516
   101  O   -0.197132
   102  C    0.035346
   103  N   -0.347410
   104  C    0.055849
   105  C   -0.054213
   106  C   -0.028387
   107  C    0.061108
   108  C    0.055233
   109  C    0.021398
   110  C    0.018568
   111  N   -0.317893
   112  C    0.107233
   113  C   -0.195294
   114  C   -0.057889
   115  C    0.233643
   116  C    0.136019
   117  C    0.071826
   118  O   -0.182081
   119  C    0.008120
   120  C    0.252112
   121  O   -0.249975
   122  O   -0.351334
   123  C    0.193050
   124  H   -0.033185
   125  H   -0.057986
   126  H   -0.041245
   127  H    0.023639
   128  H    0.018852
   129  H    0.021289
   130  H    0.018761
   131  H    0.026157
   132  H    0.015704
   133  H    0.022991
   134  H    0.041896
   135  H    0.033127
   136  H    0.040411
   137  H    0.001803
   138  H    0.020839
   139  H    0.054659
   140  H    0.038698
   141  H    0.026071
   142  H    0.018360
   143  H    0.011697
   144  H    0.016642
   145  H    0.015997
   146  H    0.011104
   147  H    0.024247
   148  H    0.000203
   149  H    0.028355
   150  H    0.019640
   151  H    0.018975
   152  H    0.013659
   153  H    0.031442
   154  H    0.042858
   155  H    0.030571
   156  H    0.050918
   157  H    0.016628
   158  H    0.033772
 Sum of Mulliken charges =  -0.00000

 Dipole moment (field-independent basis, Debye):
    X=             -1.4525    Y=              1.7471    Z=             -4.1770  Tot=              4.7549
 Quadrupole moment (field-independent basis, Debye-Ang):
   XX=           -155.8737   YY=           -577.5235   ZZ=           -517.0449
   XY=            -36.7537   XZ=             87.4321   YZ=            -10.7684

 Normal termination of Gaussian 16 at Wed Sep  1 02:57:51 2021.
