 Gaussian 16, Revision A.03,
 Gaussian 16:  ES64L-G16RevA.03 25-Dec-2016

 ----------------------------------------------------------
 #p cam-b3lyp/Def2SVP td=(nstates=5) density=(transition=1)
 ----------------------------------------------------------

 --------------------------------
 TDDFT excited states in gaussian
 --------------------------------
 Symbolic Z-matrix:
 Charge =  0 Multiplicity = 1

                         Standard orientation:
 ---------------------------------------------------------------------
 Center     Atomic      Atomic             Coordinates (Angstroms)
 Number     Number       Type             X           Y           Z
 ---------------------------------------------------------------------
      1         12           0       -5.024165   -0.646073    0.380853
      2          6           0       -3.028425    2.069028    1.075732
      3          6           0       -7.691732    1.568394   -0.107832
      4          6           0       -7.074710   -3.258687   -0.222386
      5          6           0       -2.499100   -2.747645    1.232142
      6          7           0       -5.358001    1.581217    0.743738
      7          6           0       -4.298808    2.495938    0.795286
      8          6           0       -4.760659    3.934572    0.489937
      9          6           0       -6.293652    3.697728    0.228237
     10          6           0       -6.504261    2.198855    0.231399
     11          6           0       -7.188787    4.409520    1.234732
     12          6           0       -4.077595    4.737162   -0.673391
     13          6           0       -3.184292    6.028024   -0.257013
     14          1           0       -3.724035    7.307896   -0.902846
     15          7           0       -7.072117   -0.842110    0.011532
     16          6           0       -7.965672    0.200621   -0.282093
     17          6           0       -9.227622   -0.314251   -0.823729
     18          6           0       -9.132579   -1.809292   -0.807445
     19          6           0       -7.696059   -2.061073   -0.388569
     20          6           0      -10.372875    0.579685   -1.245438
     21          6           0      -10.101222   -2.841359   -1.147535
     22          8           0       -9.820785   -4.034280   -0.958934
     23          6           0      -11.493503   -2.531760   -1.669086
     24          7           0       -4.811388   -2.630533    0.577653
     25          6           0       -5.756716   -3.577284    0.141524
     26          6           0       -5.249508   -5.075874    0.137263
     27          6           0       -3.740445   -4.833625    0.659348
     28          6           0       -3.678951   -3.297281    0.815270
     29          6           0       -6.099098   -6.071586    1.071072
     30          6           0       -2.680535   -5.397358   -0.348452
     31          6           0       -1.452149   -6.042407    0.212743
     32          7           0       -3.141691   -0.373118    1.135924
     33          6           0       -2.178216   -1.353168    1.391169
     34          6           0       -0.916126   -0.762718    1.680151
     35          6           0       -1.191180    0.638730    1.467354
     36          6           0       -2.562787    0.780061    1.221420
     37          6           0        0.392517   -1.364403    1.979223
     38          6           0       -0.619638    1.943505    1.586502
     39          8           0        0.511056    2.385283    1.818803
     40          6           0       -1.860886    2.940358    1.474410
     41          6           0       -2.008545    3.666554    2.763501
     42          8           0       -2.747540    3.449895    3.641596
     43          8           0       -1.192620    4.795431    2.775400
     44          6           0       -1.637178    5.864037    3.645796
     45          1           0       -8.494637    2.269567   -0.344927
     46          1           0       -7.610540   -4.180817   -0.456670
     47          1           0       -1.644946   -3.415790    1.360133
     48          1           0       -4.665160    4.528815    1.398065
     49          1           0       -6.614140    4.135676   -0.717470
     50          1           0       -7.712944    3.660142    1.827251
     51          1           0       -7.891830    4.939565    0.593306
     52          1           0       -6.701178    5.159016    1.857744
     53          1           0       -4.862100    5.068433   -1.354228
     54          1           0       -3.379348    4.110992   -1.228962
     55          1           0       -2.226283    5.800372   -0.724781
     56          1           0       -3.145685    6.130271    0.827265
     57          1           0      -10.822332    0.961724   -0.328013
     58          1           0      -11.094354   -0.031863   -1.785083
     59          1           0      -10.052131    1.473703   -1.780621
     60          1           0      -12.069347   -3.444980   -1.517577
     61          1           0      -11.512659   -2.212389   -2.711596
     62          1           0      -12.103350   -1.840712   -1.087493
     63          1           0       -5.163224   -5.432907   -0.888471
     64          1           0       -3.489435   -5.340939    1.591146
     65          1           0       -5.407192   -6.760346    1.556264
     66          1           0       -6.766913   -6.767737    0.565091
     67          1           0       -6.691586   -5.549740    1.822825
     68          1           0       -2.355427   -4.675872   -1.097850
     69          1           0       -3.068635   -6.225300   -0.941431
     70          1           0       -0.640510   -5.369952   -0.064552
     71          1           0       -1.064154   -6.964340   -0.220397
     72          1           0       -1.536656   -6.114484    1.297563
     73          1           0        0.431634   -2.348957    1.512339
     74          1           0        0.384516   -1.485612    3.062366
     75          1           0        1.170864   -0.636555    1.749281
     76          1           0       -1.684957    3.667736    0.682296
     77          1           0       -1.359909    5.519988    4.641634
     78          1           0       -2.721837    5.892210    3.543002
     79          1           0       -1.126022    6.801344    3.424221
     80         12           0        5.080861   -0.583564   -0.441038
     81          6           0        2.871799    1.996937   -1.151979
     82          6           0        7.575905    1.646554   -0.022166
     83          6           0        7.152155   -3.166431    0.052336
     84          6           0        2.464658   -2.828830   -1.054417
     85          7           0        5.125688    1.600212   -0.561849
     86          6           0        4.139743    2.441529   -0.762720
     87          6           0        4.735574    3.919176   -0.640178
     88          6           0        6.155786    3.612080   -1.065792
     89          6           0        6.345776    2.178525   -0.475750
     90          6           0        6.296008    3.743550   -2.597707
     91          6           0        4.409560    4.538705    0.786411
     92          6           0        4.498185    6.066450    0.853587
     93          1           0        5.100614    6.817131   -0.321463
     94          7           0        7.016849   -0.732252    0.127638
     95          6           0        7.877000    0.344860    0.327905
     96          6           0        9.126891   -0.187590    0.948732
     97          6           0        9.044823   -1.644604    0.918815
     98          6           0        7.722459   -1.857966    0.272858
     99          6           0       10.248864    0.704875    1.424032
    100          6           0       10.040395   -2.769987    1.463441
    101          8           0        9.791715   -3.979922    1.430289
    102          6           0       11.343457   -2.284622    2.063492
    103          7           0        4.882690   -2.637248   -0.599033
    104          6           0        5.868991   -3.498798   -0.365184
    105          6           0        5.460933   -4.977125   -0.650400
    106          6           0        3.936855   -4.819757   -0.750183
    107          6           0        3.705774   -3.341285   -0.747145
    108          6           0        6.127534   -5.603928   -1.906765
    109          6           0        3.019822   -5.678476    0.229859
    110          6           0        2.407947   -4.972606    1.395018
    111          7           0        3.130616   -0.507814   -1.189309
    112          6           0        2.180393   -1.463554   -1.321782
    113          6           0        0.939763   -0.957434   -1.790415
    114          6           0        1.155191    0.455727   -1.738748
    115          6           0        2.471288    0.611566   -1.367904
    116          6           0       -0.347985   -1.593645   -2.245562
    117          6           0        0.594653    1.761841   -1.918377
    118          8           0       -0.507881    2.131260   -2.260771
    119          6           0        1.609041    2.832621   -1.404262
    120          6           0        1.776443    3.877462   -2.418858
    121          8           0        2.214331    3.642613   -3.534868
    122          8           0        1.219366    5.128926   -2.051054
    123          6           0        1.255615    6.179347   -3.080673
    124          1           0        8.369022    2.393157    0.039276
    125          1           0        7.862818   -3.985176    0.176994
    126          1           0        1.687998   -3.560381   -1.285498
    127          1           0        4.218109    4.583030   -1.331419
    128          1           0        6.914424    4.218205   -0.571267
    129          1           0        6.952206    4.609346   -2.692787
    130          1           0        5.344644    3.927997   -3.098427
    131          1           0        6.856475    2.866841   -2.921544
    132          1           0        5.101145    4.145687    1.532164
    133          1           0        3.365104    4.284482    0.968421
    134          1           0        5.061798    6.304464    1.755166
    135          1           0        3.485315    6.431855    1.021140
    136          1           0        9.868839    1.651363    1.810230
    137          1           0       11.037033    0.936289    0.708290
    138          1           0       10.724256    0.229448    2.281849
    139          1           0       11.747538   -1.629096    1.292425
    140          1           0       12.086778   -3.064415    2.226766
    141          1           0       11.151913   -1.805101    3.023566
    142          1           0        5.727649   -5.630169    0.180418
    143          1           0        3.692102   -5.049471   -1.786568
    144          1           0        5.327680   -6.150769   -2.406654
    145          1           0        6.984869   -6.253946   -1.738971
    146          1           0        6.531724   -4.789746   -2.508356
    147          1           0        3.575757   -6.567248    0.528613
    148          1           0        2.136913   -6.010581   -0.315813
    149          1           0        1.331944   -4.935357    1.223284
    150          1           0        2.612644   -3.904087    1.472397
    151          1           0        2.549968   -5.472522    2.353211
    152          1           0       -0.282175   -2.681395   -2.288141
    153          1           0       -0.664553   -1.123358   -3.176991
    154          1           0       -1.198459   -1.508309   -1.568823
    155          1           0        1.269845    3.301048   -0.480724
    156          1           0        0.986890    7.176189   -2.731980
    157          1           0        0.535145    5.824202   -3.817990
    158          1           0        2.250635    6.116746   -3.519689
 ---------------------------------------------------------------------

 SCF Done:  E(RCAM-B3LYP) =  -4069.81745184     A.U. after   18 cycles

 Excitation energies and oscillator strengths:

 Excited State   1:      Singlet-A      1.6394 eV  756.29 nm  f=0.8392  <S**2>=0.000
     309 -> 315        0.13321
     311 -> 313        0.62016
     312 -> 314       -0.28301
 This state for optimization and/or second-order correction.
 Total Energy, E(TD-HF/TD-DFT) =  -4069.75720606
 Copying the excited state density for this state as the 1-particle RhoCI density.

 Excited State   2:      Singlet-A      1.7444 eV  710.77 nm  f=0.1122  <S**2>=0.000
     310 -> 316        0.16252
     311 -> 313        0.29017
     312 -> 314        0.61722

 Excited State   3:      Singlet-A      2.1661 eV  572.38 nm  f=0.0147  <S**2>=0.000
     309 -> 313        0.55995
     310 -> 313        0.10223
     310 -> 314        0.31028
     311 -> 315       -0.21189
     312 -> 316       -0.11122

 Excited State   4:      Singlet-A      2.2080 eV  561.53 nm  f=0.2111  <S**2>=0.000
     309 -> 313       -0.31404
     310 -> 314        0.55744
     311 -> 315        0.13028
     312 -> 313        0.11995
     312 -> 316       -0.21657

 Excited State   5:      Singlet-A      2.2361 eV  554.47 nm  f=0.0064  <S**2>=0.000
     310 -> 314       -0.11980
     312 -> 313        0.68307

 The electronic state is 1-A.
 Alpha  occ. eigenvalues --  -46.87600 -46.87337 -19.23600 -19.22040 -19.20166
 Alpha  occ. eigenvalues --  -19.19397 -19.19059 -19.18623 -19.18118 -19.17768
 Alpha  occ. eigenvalues --  -14.42293 -14.41651 -14.41572 -14.41066 -14.39975
 Alpha  occ. eigenvalues --  -14.39714 -14.38285 -14.38240 -10.38395 -10.37902
 Alpha  occ. eigenvalues --  -10.36926 -10.35102 -10.34216 -10.33806 -10.31600
 Alpha  occ. eigenvalues --  -10.30951 -10.30847 -10.30834 -10.30791 -10.30779
 Alpha  occ. eigenvalues --  -10.30744 -10.30582 -10.30548 -10.30351 -10.30260
 Alpha  occ. eigenvalues --  -10.30217 -10.30070 -10.29960 -10.29867 -10.29556
 Alpha  occ. eigenvalues --  -10.29105 -10.29008 -10.28821 -10.28645 -10.28469
 Alpha  occ. eigenvalues --  -10.28293 -10.28173 -10.27836 -10.27719 -10.27634
 Alpha  occ. eigenvalues --  -10.27612 -10.27600 -10.27576 -10.27482 -10.27383
 Alpha  occ. eigenvalues --  -10.27261 -10.27239 -10.27173 -10.27030 -10.27012
 Alpha  occ. eigenvalues --  -10.26995 -10.26927 -10.26887 -10.26784 -10.26677
 Alpha  occ. eigenvalues --  -10.26603 -10.26596 -10.26365 -10.26315 -10.26266
 Alpha  occ. eigenvalues --  -10.26263 -10.26251 -10.26163 -10.25977 -10.25651
 Alpha  occ. eigenvalues --  -10.25629 -10.25578 -10.25577 -10.25570 -10.25553
 Alpha  occ. eigenvalues --  -10.25534 -10.25222 -10.25169 -10.24527 -10.24203
 Alpha  occ. eigenvalues --  -10.23788  -3.16359  -3.16102  -1.91227  -1.91012
 Alpha  occ. eigenvalues --   -1.90826  -1.90679  -1.90521  -1.90450  -1.16606
 Alpha  occ. eigenvalues --   -1.14111  -1.10177  -1.09369  -1.09331  -1.08229
 Alpha  occ. eigenvalues --   -1.07586  -1.06366  -1.05132  -1.04342  -1.04273
 Alpha  occ. eigenvalues --   -1.03785  -1.03187  -1.02783  -1.01700  -1.00330
 Alpha  occ. eigenvalues --   -0.92256  -0.91559  -0.89056  -0.88965  -0.88438
 Alpha  occ. eigenvalues --   -0.88064  -0.88053  -0.87799  -0.87013  -0.86929
 Alpha  occ. eigenvalues --   -0.86910  -0.86794  -0.86408  -0.85905  -0.83885
 Alpha  occ. eigenvalues --   -0.83778  -0.83412  -0.83338  -0.82304  -0.82224
 Alpha  occ. eigenvalues --   -0.82146  -0.81553  -0.80596  -0.80555  -0.79940
 Alpha  occ. eigenvalues --   -0.79641  -0.78518  -0.78249  -0.77243  -0.77020
 Alpha  occ. eigenvalues --   -0.76317  -0.76240  -0.75366  -0.75054  -0.74906
 Alpha  occ. eigenvalues --   -0.74729  -0.72776  -0.72445  -0.71432  -0.70784
 Alpha  occ. eigenvalues --   -0.69145  -0.69035  -0.68679  -0.68322  -0.67538
 Alpha  occ. eigenvalues --   -0.67394  -0.67144  -0.66144  -0.65555  -0.64881
 Alpha  occ. eigenvalues --   -0.64673  -0.64652  -0.64309  -0.63763  -0.63627
 Alpha  occ. eigenvalues --   -0.63447  -0.60883  -0.60674  -0.60296  -0.59968
 Alpha  occ. eigenvalues --   -0.59175  -0.59093  -0.58712  -0.58697  -0.58179
 Alpha  occ. eigenvalues --   -0.58047  -0.57645  -0.57552  -0.57487  -0.56975
 Alpha  occ. eigenvalues --   -0.56240  -0.55469  -0.55364  -0.55251  -0.55141
 Alpha  occ. eigenvalues --   -0.55018  -0.54491  -0.53802  -0.53435  -0.53390
 Alpha  occ. eigenvalues --   -0.53150  -0.53039  -0.52959  -0.52816  -0.52681
 Alpha  occ. eigenvalues --   -0.52494  -0.52416  -0.52072  -0.52058  -0.51929
 Alpha  occ. eigenvalues --   -0.51716  -0.51557  -0.51412  -0.51206  -0.50977
 Alpha  occ. eigenvalues --   -0.50750  -0.50419  -0.50277  -0.50239  -0.50199
 Alpha  occ. eigenvalues --   -0.50066  -0.49910  -0.49797  -0.49615  -0.49435
 Alpha  occ. eigenvalues --   -0.49334  -0.49267  -0.48863  -0.48700  -0.48680
 Alpha  occ. eigenvalues --   -0.48548  -0.48450  -0.48363  -0.48281  -0.48063
 Alpha  occ. eigenvalues --   -0.47906  -0.47713  -0.47390  -0.47118  -0.46909
 Alpha  occ. eigenvalues --   -0.46703  -0.46663  -0.46433  -0.46229  -0.46062
 Alpha  occ. eigenvalues --   -0.45957  -0.45851  -0.45734  -0.45583  -0.45500
 Alpha  occ. eigenvalues --   -0.45287  -0.45148  -0.44993  -0.44724  -0.44539
 Alpha  occ. eigenvalues --   -0.44452  -0.44289  -0.44032  -0.43839  -0.43679
 Alpha  occ. eigenvalues --   -0.43528  -0.43443  -0.43330  -0.43150  -0.43054
 Alpha  occ. eigenvalues --   -0.42971  -0.42841  -0.42713  -0.42663  -0.42626
 Alpha  occ. eigenvalues --   -0.42244  -0.42094  -0.41781  -0.41591  -0.41444
 Alpha  occ. eigenvalues --   -0.41267  -0.41196  -0.41116  -0.40996  -0.40727
 Alpha  occ. eigenvalues --   -0.40696  -0.40625  -0.40383  -0.40335  -0.40055
 Alpha  occ. eigenvalues --   -0.39806  -0.39401  -0.39379  -0.38832  -0.38689
 Alpha  occ. eigenvalues --   -0.38169  -0.37762  -0.37620  -0.37399  -0.37281
 Alpha  occ. eigenvalues --   -0.37165  -0.36762  -0.36068  -0.35935  -0.35743
 Alpha  occ. eigenvalues --   -0.35304  -0.34784  -0.34136  -0.33993  -0.33884
 Alpha  occ. eigenvalues --   -0.33473  -0.32906  -0.32842  -0.31882  -0.31316
 Alpha  occ. eigenvalues --   -0.31141  -0.30766  -0.30152  -0.29970  -0.29819
 Alpha  occ. eigenvalues --   -0.29590  -0.29328  -0.28867  -0.24062  -0.23428
 Alpha  occ. eigenvalues --   -0.21182  -0.21006
 Alpha virt. eigenvalues --   -0.09028  -0.08432  -0.01908  -0.00822  -0.00027
 Alpha virt. eigenvalues --    0.00347   0.02143   0.02707   0.02992   0.04073
 Alpha virt. eigenvalues --    0.05227   0.05529   0.05714   0.05824   0.06007

 Mulliken charges:
               1
     1  Mg  12.003269
     2  C    5.991472
     3  C    6.013661
     4  C    6.019455
     5  C    5.990945
     6  N    6.995277
     7  C    6.023436
     8  C    5.988200
     9  C    6.008929
    10  C    5.975325
    11  C    6.001955
    12  C    5.998682
    13  C    5.996958
    14  H    1.005511
    15  N    7.005134
    16  C    5.962710
    17  C    5.973191
    18  C    5.986891
    19  C    5.966713
    20  C    6.003758
    21  C    5.989620
    22  O    7.972103
    23  C    6.007154
    24  N    7.002115
    25  C    5.964057
    26  C    6.014787
    27  C    5.987489
    28  C    6.029078
    29  C    6.003158
    30  C    5.994524
    31  C    5.999737
    32  N    6.997835
    33  C    6.038107
    34  C    6.031247
    35  C    6.010819
    36  C    6.023862
    37  C    6.001997
    38  C    6.017265
    39  O    8.030813
    40  C    5.998964
    41  C    5.999823
    42  O    8.006214
    43  O    7.999679
    44  C    5.998185
    45  H    0.990833
    46  H    0.992747
    47  H    1.008722
    48  H    1.001578
    49  H    0.998933
    50  H    1.002082
    51  H    0.998666
    52  H    0.986409
    53  H    1.008059
    54  H    0.999779
    55  H    0.998156
    56  H    0.997229
    57  H    0.979727
    58  H    0.984742
    59  H    0.980446
    60  H    0.985797
    61  H    0.989947
    62  H    0.992007
    63  H    0.995519
    64  H    1.001350
    65  H    0.987892
    66  H    0.999663
    67  H    1.000318
    68  H    1.003494
    69  H    1.009085
    70  H    0.998276
    71  H    1.002433
    72  H    0.998661
    73  H    1.017758
    74  H    1.013199
    75  H    1.013886
    76  H    1.011081
    77  H    1.000806
    78  H    1.005692
    79  H    1.003215
    80  Mg  11.997882
    81  C    6.005232
    82  C    5.994574
    83  C    5.991403
    84  C    5.997651
    85  N    7.004088
    86  C    5.985745
    87  C    6.000946
    88  C    5.998181
    89  C    6.012671
    90  C    6.001062
    91  C    6.002088
    92  C    5.998975
    93  H    1.002234
    94  N    6.995498
    95  C    6.020751
    96  C    6.007772
    97  C    6.011341
    98  C    6.013596
    99  C    5.997182
   100  C    6.006503
   101  O    8.013515
   102  C    5.997265
   103  N    6.997685
   104  C    6.014511
   105  C    5.995157
   106  C    6.002830
   107  C    5.990807
   108  C    5.999025
   109  C    5.999773
   110  C    6.002050
   111  N    7.000365
   112  C    5.984332
   113  C    5.977167
   114  C    5.990958
   115  C    5.990626
   116  C    6.001484
   117  C    5.989331
   118  O    7.988574
   119  C    5.997518
   120  C    5.999361
   121  O    8.000577
   122  O    7.998441
   123  C    5.999468
   124  H    1.007286
   125  H    1.003926
   126  H    0.996729
   127  H    1.002705
   128  H    1.001266
   129  H    1.003420
   130  H    1.007177
   131  H    0.999669
   132  H    0.995066
   133  H    0.998227
   134  H    0.999753
   135  H    1.001327
   136  H    1.007856
   137  H    1.011343
   138  H    1.008225
   139  H    1.002574
   140  H    1.008474
   141  H    1.004276
   142  H    1.001365
   143  H    1.001924
   144  H    1.006856
   145  H    1.001084
   146  H    1.000255
   147  H    0.998912
   148  H    1.002781
   149  H    0.997936
   150  H    0.994892
   151  H    0.999033
   152  H    0.996799
   153  H    1.000064
   154  H    0.981054
   155  H    0.992305
   156  H    0.999906
   157  H    1.002500
   158  H    0.998554
 Sum of Mulliken charges = 624.00000

 Dipole moment (field-independent basis, Debye):
    X=             15.9663    Y=              1.2023    Z=              3.6876  Tot=             16.4307
 Quadrupole moment (field-independent basis, Debye-Ang):
   XX=            -52.7444   YY=              0.8795   ZZ=              2.4941
   XY=            -17.4739   XZ=             -6.1858   YZ=             -1.6205

 Normal termination of Gaussian 16 at Thu Sep 23 10:36:08 2021.
