 Gaussian 16, Revision A.03,
 Gaussian 16:  ES64L-G16RevA.03 25-Dec-2016

 -----------------------------------
 #p cam-b3lyp/Def2SVP td=(nstates=5)
 -----------------------------------

 --------------------------------
 TDDFT excited states in gaussian
 --------------------------------
 Symbolic Z-matrix:
 Charge =  0 Multiplicity = 1

                         Standard orientation:
 ---------------------------------------------------------------------
 Center     Atomic      Atomic             Coordinates (Angstroms)
 Number     Number       Type             X           Y           Z
 ---------------------------------------------------------------------
      1         12           0       23.205514   -0.598115    0.102301
      2          6           0       20.973604    1.773211    1.025398
      3          6           0       25.531463    1.875691   -0.629127
      4          6           0       25.435495   -2.969913   -0.826800
      5          6           0       20.743404   -3.017794    0.359627
      6          7           0       23.219007    1.497086    0.310872
      7          6           0       22.196741    2.311102    0.676575
      8          6           0       22.636919    3.739782    0.862365
      9          6           0       23.999278    3.800989    0.072591
     10          6           0       24.287742    2.270447   -0.068790
     11          6           0       24.109337    4.633749   -1.272459
     12          6           0       22.880297    4.088788    2.399478
     13          6           0       22.744224    5.611802    2.694007
     14          1           0       23.023285    6.675209    1.618630
     15          7           0       25.210330   -0.591846   -0.715655
     16          6           0       25.980978    0.582893   -0.918835
     17          6           0       27.275878    0.223425   -1.413115
     18          6           0       27.276723   -1.214379   -1.500701
     19          6           0       25.924740   -1.628233   -0.980343
     20          6           0       28.383542    1.184643   -1.667815
     21          6           0       28.382769   -2.153163   -1.969452
     22          8           0       28.271364   -3.404226   -2.128235
     23          6           0       29.749850   -1.583017   -2.307422
     24          7           0       23.098894   -2.671031   -0.259295
     25          6           0       24.213634   -3.487220   -0.457689
     26          6           0       23.951721   -5.006014   -0.243358
     27          6           0       22.383816   -4.929296    0.196603
     28          6           0       22.036571   -3.487051    0.132980
     29          6           0       24.206444   -5.748970   -1.561150
     30          6           0       22.077189   -5.585205    1.510639
     31          6           0       21.012667   -6.640878    1.419502
     32          7           0       21.283964   -0.711058    0.456243
     33          6           0       20.363007   -1.745018    0.570420
     34          6           0       19.090480   -1.229550    0.916706
     35          6           0       19.227160    0.175737    1.075248
     36          6           0       20.599735    0.445881    0.891956
     37          6           0       17.818959   -1.954060    1.140841
     38          6           0       18.512070    1.416171    1.281173
     39          8           0       17.345003    1.722456    1.428152
     40          6           0       19.696969    2.493614    1.321945
     41          6           0       19.335915    3.758471    0.629868
     42          8           0       18.771816    3.863367   -0.429190
     43          8           0       19.668816    4.857639    1.324284
     44          6           0       19.331109    6.141112    0.645562
     45          1           0       26.115262    2.726054   -0.987970
     46          1           0       26.116798   -3.708707   -1.253760
     47          1           0       19.941434   -3.727457    0.573000
     48          1           0       21.993083    4.445450    0.337649
     49          1           0       24.770197    4.164355    0.751353
     50          1           0       23.164153    5.160695   -1.403583
     51          1           0       24.341458    4.089633   -2.186596
     52          1           0       24.950091    5.315865   -1.144742
     53          1           0       23.875037    3.694480    2.607857
     54          1           0       22.136107    3.538623    2.975456
     55          1           0       23.429629    5.745019    3.531211
     56          1           0       21.756600    5.746887    3.134183
     57          1           0       28.963352    1.483084   -0.794343
     58          1           0       27.914290    2.040086   -2.152117
     59          1           0       29.041825    0.875402   -2.479144
     60          1           0       29.675616   -1.221203   -3.332824
     61          1           0       30.424081   -2.438465   -2.273981
     62          1           0       30.060484   -0.760647   -1.662729
     63          1           0       24.692841   -5.337825    0.483888
     64          1           0       21.791161   -5.457928   -0.550758
     65          1           0       24.376202   -5.121847   -2.436613
     66          1           0       23.428559   -6.499773   -1.698006
     67          1           0       25.159280   -6.262672   -1.430193
     68          1           0       21.685250   -4.893026    2.255988
     69          1           0       22.936244   -6.040219    2.003841
     70          1           0       21.292424   -7.574258    1.907170
     71          1           0       20.783198   -6.884995    0.382609
     72          1           0       20.120118   -6.150836    1.809605
     73          1           0       17.678058   -2.865784    0.559556
     74          1           0       17.083338   -1.319413    0.645851
     75          1           0       17.676353   -2.135927    2.206112
     76          1           0       19.653315    2.686024    2.394334
     77          1           0       18.269127    6.378686    0.722215
     78          1           0       19.737967    6.187581   -0.364729
     79          1           0       19.847485    6.946201    1.168906
     80         12           0      -23.243834   -0.689451    0.071445
     81          6           0      -22.359574    2.509552   -1.157783
     82          6           0      -23.167651    0.594331    3.191599
     83          6           0      -23.926992   -3.700405    1.160368
     84          6           0      -22.534662   -1.963100   -3.206167
     85          7           0      -22.706151    1.335836    0.973115
     86          6           0      -22.638745    2.499252    0.224988
     87          6           0      -22.748510    3.635713    1.183226
     88          6           0      -22.438075    3.024678    2.550005
     89          6           0      -22.806879    1.544898    2.277356
     90          6           0      -20.907112    3.160697    2.892579
     91          6           0      -24.153707    4.446774    1.196873
     92          6           0      -24.167291    6.003690    1.284531
     93          1           0      -23.293415    6.650332    2.397928
     94          7           0      -23.496068   -1.426472    1.966234
     95          6           0      -23.441527   -0.744695    3.072255
     96          6           0      -23.656139   -1.671814    4.196836
     97          6           0      -24.099569   -2.911456    3.644204
     98          6           0      -23.827568   -2.734826    2.189395
     99          6           0      -23.500071   -1.400672    5.737463
    100          6           0      -24.687637   -4.162871    4.295356
    101          8           0      -24.921488   -5.225305    3.688144
    102          6           0      -24.795932   -4.200617    5.745634
    103          7           0      -23.052869   -2.626113   -0.912681
    104          6           0      -23.528750   -3.740853   -0.227355
    105          6           0      -23.653297   -4.945983   -1.237504
    106          6           0      -23.337182   -4.295658   -2.607439
    107          6           0      -22.986844   -2.851457   -2.242134
    108          6           0      -22.817977   -6.158866   -0.826737
    109          6           0      -24.411372   -4.468138   -3.710702
    110          6           0      -23.924982   -4.728925   -5.155406
    111          7           0      -22.572166    0.055162   -1.808115
    112          6           0      -22.283373   -0.568845   -3.017623
    113          6           0      -22.014924    0.446316   -4.004204
    114          6           0      -21.978497    1.654482   -3.306384
    115          6           0      -22.337555    1.397293   -1.954513
    116          6           0      -21.845719    0.261121   -5.385271
    117          6           0      -21.810782    3.110629   -3.422592
    118          8           0      -21.588456    3.846748   -4.370790
    119          6           0      -22.082516    3.724543   -2.010271
    120          6           0      -20.851412    4.523558   -1.621426
    121          8           0      -19.791981    4.227133   -1.117103
    122          8           0      -21.253617    5.800424   -1.887894
    123          6           0      -20.449115    6.909355   -1.321739
    124          1           0      -23.233490    1.013924    4.197993
    125          1           0      -24.355554   -4.633131    1.532769
    126          1           0      -22.535060   -2.294703   -4.246154
    127          1           0      -22.044769    4.455298    1.035742
    128          1           0      -23.131391    3.351585    3.324570
    129          1           0      -20.701115    3.277892    3.955966
    130          1           0      -20.454725    4.066723    2.488642
    131          1           0      -20.464110    2.220127    2.566990
    132          1           0      -24.812504    4.011504    1.947568
    133          1           0      -24.715895    4.214840    0.291537
    134          1           0      -25.198659    6.206118    1.575598
    135          1           0      -23.879435    6.281750    0.270637
    136          1           0      -24.429021   -1.395488    6.307211
    137          1           0      -23.011844   -0.431054    5.839270
    138          1           0      -22.957205   -2.166621    6.291349
    139          1           0      -25.358554   -3.343624    6.116870
    140          1           0      -23.808666   -4.216594    6.207492
    141          1           0      -25.447109   -5.039312    5.989978
    142          1           0      -24.715911   -5.184121   -1.287176
    143          1           0      -22.368043   -4.631331   -2.975973
    144          1           0      -21.821357   -6.067785   -1.259910
    145          1           0      -23.180608   -7.111019   -1.212728
    146          1           0      -22.593422   -6.089840    0.237135
    147          1           0      -25.153663   -3.670514   -3.736394
    148          1           0      -25.079108   -5.298456   -3.477017
    149          1           0      -23.960027   -3.746857   -5.627242
    150          1           0      -24.705622   -5.345602   -5.601997
    151          1           0      -22.922900   -5.156759   -5.143595
    152          1           0      -21.301794    1.000717   -5.972412
    153          1           0      -22.839425    0.090901   -5.800802
    154          1           0      -21.246661   -0.643730   -5.481015
    155          1           0      -22.969689    4.356709   -2.042721
    156          1           0      -21.186540    7.614923   -0.940091
    157          1           0      -19.813424    7.450198   -2.022340
    158          1           0      -19.850317    6.545921   -0.487011
 ---------------------------------------------------------------------

 SCF Done:  E(RCAM-B3LYP) =  -4069.80766496     A.U. after   17 cycles

 Excitation energies and oscillator strengths:

 Excited State   1:      Singlet-A      1.6462 eV  753.17 nm  f=0.3917  <S**2>=0.000
     309 -> 316       -0.17001
     311 -> 313        0.68912
     309 <- 316       -0.10749
 This state for optimization and/or second-order correction.
 Total Energy, E(TD-HF/TD-DFT) =  -4069.74716937
 Copying the excited state density for this state as the 1-particle RhoCI density.

 Excited State   2:      Singlet-A      1.7330 eV  715.44 nm  f=0.3843  <S**2>=0.000
     310 -> 315        0.19056
     312 -> 314        0.68153
     310 <- 315        0.10758

 Excited State   3:      Singlet-A      2.2270 eV  556.73 nm  f=0.1128  <S**2>=0.000
     309 -> 313        0.63821
     311 -> 316        0.29158

 Excited State   4:      Singlet-A      2.2617 eV  548.20 nm  f=0.0689  <S**2>=0.000
     310 -> 314        0.62175
     312 -> 315       -0.32225

 Excited State   5:      Singlet-A      3.0613 eV  405.01 nm  f=0.0000  <S**2>=0.000
     312 -> 313        0.70710

 The electronic state is 1-A.
 Alpha  occ. eigenvalues --  -46.89344 -46.87129 -19.25147 -19.24331 -19.20002
 Alpha  occ. eigenvalues --  -19.19233 -19.19203 -19.18739 -19.18655 -19.18477
 Alpha  occ. eigenvalues --  -14.42835 -14.41751 -14.41666 -14.41399 -14.39832
 Alpha  occ. eigenvalues --  -14.39506 -14.38929 -14.38739 -10.39205 -10.38571
 Alpha  occ. eigenvalues --  -10.35499 -10.35206 -10.35126 -10.34789 -10.32023
 Alpha  occ. eigenvalues --  -10.31673 -10.31425 -10.31335 -10.30933 -10.30787
 Alpha  occ. eigenvalues --  -10.30724 -10.30710 -10.30463 -10.30315 -10.30094
 Alpha  occ. eigenvalues --  -10.30016 -10.29961 -10.29841 -10.29834 -10.29517
 Alpha  occ. eigenvalues --  -10.29428 -10.29326 -10.28928 -10.28835 -10.28725
 Alpha  occ. eigenvalues --  -10.28229 -10.28186 -10.28125 -10.28013 -10.27891
 Alpha  occ. eigenvalues --  -10.27872 -10.27847 -10.27839 -10.27777 -10.27686
 Alpha  occ. eigenvalues --  -10.27642 -10.27633 -10.27555 -10.27515 -10.27506
 Alpha  occ. eigenvalues --  -10.27494 -10.27456 -10.27455 -10.27329 -10.27289
 Alpha  occ. eigenvalues --  -10.27182 -10.27156 -10.26795 -10.26664 -10.26514
 Alpha  occ. eigenvalues --  -10.26347 -10.26180 -10.26026 -10.25979 -10.25818
 Alpha  occ. eigenvalues --  -10.25779 -10.25741 -10.25685 -10.25601 -10.25587
 Alpha  occ. eigenvalues --  -10.25457 -10.25364 -10.25230 -10.25219 -10.25102
 Alpha  occ. eigenvalues --  -10.24770  -3.17731  -3.15988  -1.92629  -1.92188
 Alpha  occ. eigenvalues --   -1.92023  -1.90878  -1.90422  -1.90333  -1.17288
 Alpha  occ. eigenvalues --   -1.16087  -1.10120  -1.09563  -1.09339  -1.07731
 Alpha  occ. eigenvalues --   -1.07390  -1.07236  -1.05126  -1.04506  -1.03913
 Alpha  occ. eigenvalues --   -1.03551  -1.03028  -1.02699  -1.02043  -1.01392
 Alpha  occ. eigenvalues --   -0.93355  -0.92740  -0.89699  -0.88854  -0.88792
 Alpha  occ. eigenvalues --   -0.88569  -0.88451  -0.87958  -0.87662  -0.87536
 Alpha  occ. eigenvalues --   -0.87207  -0.87101  -0.86858  -0.86397  -0.84314
 Alpha  occ. eigenvalues --   -0.84206  -0.83801  -0.83565  -0.82705  -0.82462
 Alpha  occ. eigenvalues --   -0.82442  -0.81643  -0.81475  -0.81039  -0.80569
 Alpha  occ. eigenvalues --   -0.80490  -0.78360  -0.78342  -0.77762  -0.77424
 Alpha  occ. eigenvalues --   -0.77343  -0.77006  -0.76512  -0.75833  -0.75201
 Alpha  occ. eigenvalues --   -0.75090  -0.72868  -0.72481  -0.71832  -0.71790
 Alpha  occ. eigenvalues --   -0.69076  -0.68871  -0.68726  -0.68673  -0.68176
 Alpha  occ. eigenvalues --   -0.67671  -0.67339  -0.66686  -0.65846  -0.65449
 Alpha  occ. eigenvalues --   -0.65340  -0.65283  -0.65021  -0.64760  -0.64300
 Alpha  occ. eigenvalues --   -0.64063  -0.62321  -0.61910  -0.60455  -0.60307
 Alpha  occ. eigenvalues --   -0.59918  -0.59577  -0.59207  -0.58952  -0.58358
 Alpha  occ. eigenvalues --   -0.58292  -0.57984  -0.57915  -0.57695  -0.57474
 Alpha  occ. eigenvalues --   -0.56127  -0.56073  -0.55870  -0.55483  -0.55175
 Alpha  occ. eigenvalues --   -0.55170  -0.54961  -0.54434  -0.53928  -0.53671
 Alpha  occ. eigenvalues --   -0.53540  -0.53329  -0.53220  -0.53198  -0.52984
 Alpha  occ. eigenvalues --   -0.52922  -0.52875  -0.52540  -0.52419  -0.52401
 Alpha  occ. eigenvalues --   -0.52130  -0.52094  -0.51960  -0.51658  -0.51542
 Alpha  occ. eigenvalues --   -0.51294  -0.51176  -0.51136  -0.50773  -0.50386
 Alpha  occ. eigenvalues --   -0.50298  -0.50082  -0.49965  -0.49950  -0.49595
 Alpha  occ. eigenvalues --   -0.49582  -0.49332  -0.48991  -0.48957  -0.48860
 Alpha  occ. eigenvalues --   -0.48809  -0.48371  -0.48210  -0.48149  -0.47981
 Alpha  occ. eigenvalues --   -0.47751  -0.47634  -0.47363  -0.47307  -0.47200
 Alpha  occ. eigenvalues --   -0.47105  -0.46868  -0.46693  -0.46621  -0.46586
 Alpha  occ. eigenvalues --   -0.46341  -0.46228  -0.45906  -0.45892  -0.45522
 Alpha  occ. eigenvalues --   -0.45180  -0.45004  -0.44899  -0.44895  -0.44757
 Alpha  occ. eigenvalues --   -0.44664  -0.44531  -0.44325  -0.44034  -0.44020
 Alpha  occ. eigenvalues --   -0.43875  -0.43821  -0.43658  -0.43496  -0.43270
 Alpha  occ. eigenvalues --   -0.43158  -0.42991  -0.42939  -0.42694  -0.42393
 Alpha  occ. eigenvalues --   -0.42332  -0.42278  -0.42135  -0.42027  -0.41934
 Alpha  occ. eigenvalues --   -0.41890  -0.41512  -0.41398  -0.41213  -0.40964
 Alpha  occ. eigenvalues --   -0.40877  -0.40840  -0.40525  -0.40479  -0.40417
 Alpha  occ. eigenvalues --   -0.40374  -0.40221  -0.40034  -0.39828  -0.39586
 Alpha  occ. eigenvalues --   -0.38748  -0.38234  -0.37954  -0.37638  -0.37602
 Alpha  occ. eigenvalues --   -0.37367  -0.37180  -0.37014  -0.36597  -0.36498
 Alpha  occ. eigenvalues --   -0.36420  -0.35902  -0.34635  -0.34579  -0.34116
 Alpha  occ. eigenvalues --   -0.33872  -0.33326  -0.33075  -0.31662  -0.31518
 Alpha  occ. eigenvalues --   -0.31144  -0.30716  -0.30696  -0.30533  -0.30435
 Alpha  occ. eigenvalues --   -0.29931  -0.29560  -0.29231  -0.24298  -0.23943
 Alpha  occ. eigenvalues --   -0.21019  -0.20943
 Alpha virt. eigenvalues --   -0.08948  -0.08251  -0.02033  -0.01602  -0.00111
 Alpha virt. eigenvalues --    0.00128   0.01776   0.02181   0.02346   0.03179
 Alpha virt. eigenvalues --    0.04783   0.05222   0.05484   0.05807   0.05885

 Mulliken charges:
               1
     1  Mg   0.841725
     2  C    0.034564
     3  C   -0.092972
     4  C   -0.054396
     5  C   -0.125438
     6  N   -0.303469
     7  C   -0.052289
     8  C    0.000521
     9  C   -0.079173
    10  C    0.037461
    11  C    0.069885
    12  C    0.044555
    13  C   -0.036884
    14  H    0.029765
    15  N   -0.308344
    16  C    0.155160
    17  C   -0.140373
    18  C   -0.029040
    19  C    0.069283
    20  C    0.113465
    21  C    0.008018
    22  O   -0.244611
    23  C    0.041255
    24  N   -0.321004
    25  C    0.036078
    26  C   -0.042185
    27  C    0.024943
    28  C    0.084831
    29  C    0.056674
    30  C    0.036914
    31  C   -0.008398
    32  N   -0.439362
    33  C    0.179100
    34  C   -0.175146
    35  C   -0.013995
    36  C    0.109952
    37  C    0.115566
    38  C    0.073243
    39  O   -0.144930
    40  C   -0.038105
    41  C    0.155658
    42  O   -0.198817
    43  O   -0.329052
    44  C    0.182739
    45  H   -0.027447
    46  H   -0.007720
    47  H   -0.042410
    48  H    0.003924
    49  H    0.010787
    50  H    0.020600
    51  H    0.027110
    52  H    0.015770
    53  H    0.012883
    54  H    0.017193
    55  H    0.020517
    56  H    0.038050
    57  H    0.049686
    58  H    0.012648
    59  H    0.009431
    60  H    0.044201
    61  H    0.032968
    62  H    0.028622
    63  H    0.029395
    64  H    0.012711
    65  H    0.039380
    66  H    0.014863
    67  H    0.019108
    68  H    0.008602
    69  H    0.002688
    70  H    0.020673
    71  H    0.002407
    72  H    0.017170
    73  H    0.004854
    74  H    0.038597
    75  H    0.044837
    76  H    0.038563
    77  H    0.051917
    78  H    0.041618
    79  H    0.022429
    80  Mg   0.808017
    81  C   -0.037954
    82  C   -0.089809
    83  C   -0.053011
    84  C   -0.086830
    85  N   -0.255064
    86  C    0.011430
    87  C   -0.052137
    88  C   -0.029254
    89  C   -0.033297
    90  C    0.087628
    91  C    0.015904
    92  C   -0.056959
    93  H    0.015496
    94  N   -0.338750
    95  C    0.178104
    96  C   -0.150801
    97  C   -0.029503
    98  C    0.090566
    99  C    0.102824
   100  C    0.020418
   101  O   -0.219875
   102  C    0.059557
   103  N   -0.286774
   104  C    0.009232
   105  C   -0.007530
   106  C   -0.009752
   107  C    0.041941
   108  C    0.096738
   109  C    0.007925
   110  C    0.017130
   111  N   -0.353011
   112  C    0.116932
   113  C   -0.178592
   114  C    0.026960
   115  C    0.138503
   116  C    0.109200
   117  C    0.030116
   118  O   -0.162839
   119  C   -0.011630
   120  C    0.215726
   121  O   -0.195381
   122  O   -0.342995
   123  C    0.168210
   124  H   -0.039328
   125  H   -0.000889
   126  H   -0.036911
   127  H    0.002017
   128  H   -0.005775
   129  H    0.006482
   130  H    0.024736
   131  H    0.035979
   132  H   -0.001586
   133  H   -0.000278
   134  H    0.042152
   135  H    0.049214
   136  H    0.021969
   137  H    0.018338
   138  H    0.019683
   139  H    0.017004
   140  H    0.053773
   141  H    0.028127
   142  H    0.011518
   143  H    0.009145
   144  H   -0.005853
   145  H    0.023793
   146  H    0.026168
   147  H   -0.000036
   148  H   -0.001209
   149  H    0.023405
   150  H    0.015916
   151  H    0.024107
   152  H    0.035027
   153  H    0.030426
   154  H    0.016891
   155  H    0.051162
   156  H    0.029834
   157  H    0.045958
   158  H    0.042232
 Sum of Mulliken charges =  -0.00000

 Dipole moment (field-independent basis, Debye):
    X=              0.9598    Y=              1.6932    Z=              5.3148  Tot=              5.6600
 Quadrupole moment (field-independent basis, Debye-Ang):
   XX=           -221.4992   YY=           -480.6815   ZZ=           -498.5113
   XY=             62.9307   XZ=            -14.3664   YZ=             23.8746

 Normal termination of Gaussian 16 at Wed Sep 15 21:16:15 2021.
