 Gaussian 16, Revision A.03,
 Gaussian 16:  ES64L-G16RevA.03 25-Dec-2016

 ----------------------------------------------------------
 #p cam-b3lyp/Def2SVP td=(nstates=5) density=(transition=1)
 ----------------------------------------------------------

 --------------------------------
 TDDFT excited states in gaussian
 --------------------------------
 Symbolic Z-matrix:
 Charge =  0 Multiplicity = 1

                         Standard orientation:
 ---------------------------------------------------------------------
 Center     Atomic      Atomic             Coordinates (Angstroms)
 Number     Number       Type             X           Y           Z
 ---------------------------------------------------------------------
      1         12           0       20.477270   -0.558007    0.306404
      2          6           0       19.390968    1.948451   -1.714268
      3          6           0       21.375359    1.590018    2.852479
      4          6           0       21.691841   -3.224840    2.077332
      5          6           0       19.990684   -2.857611   -2.444222
      6          7           0       20.576399    1.529308    0.435005
      7          6           0       19.824569    2.393578   -0.429677
      8          6           0       19.656027    3.729518    0.175799
      9          6           0       20.654666    3.639711    1.415500
     10          6           0       20.919204    2.164639    1.619878
     11          6           0       22.031752    4.439671    1.179091
     12          6           0       18.176058    4.146593    0.437174
     13          6           0       17.825991    5.542711    0.033718
     14          1           0       18.917376    6.645650    0.329166
     15          7           0       21.341357   -0.793407    2.237856
     16          6           0       21.616548    0.246338    3.075452
     17          6           0       22.171638   -0.299300    4.266414
     18          6           0       22.209445   -1.742402    4.135088
     19          6           0       21.655370   -2.028405    2.769414
     20          6           0       22.709984    0.592590    5.406472
     21          6           0       22.623242   -2.843901    5.060192
     22          8           0       22.719878   -4.052838    4.821039
     23          6           0       22.924626   -2.396213    6.540452
     24          7           0       20.908796   -2.774457   -0.155648
     25          6           0       21.298448   -3.620400    0.765256
     26          6           0       21.148990   -5.074246    0.321825
     27          6           0       20.602917   -4.934648   -1.127904
     28          6           0       20.503782   -3.417695   -1.276345
     29          6           0       22.523299   -5.915547    0.387862
     30          6           0       19.183676   -5.651574   -1.211537
     31          6           0       17.959908   -5.092387   -0.444586
     32          7           0       19.977097   -0.468080   -1.736374
     33          6           0       19.777450   -1.471677   -2.665433
     34          6           0       19.181340   -0.826208   -3.852788
     35          6           0       18.977448    0.494361   -3.586205
     36          6           0       19.495770    0.659894   -2.250693
     37          6           0       19.001625   -1.502073   -5.168346
     38          6           0       18.483828    1.778760   -4.082354
     39          8           0       17.997948    2.092251   -5.156169
     40          6           0       18.756138    2.762004   -2.860701
     41          6           0       19.724375    3.775733   -3.326030
     42          8           0       20.852205    3.589509   -3.815203
     43          8           0       19.084063    4.977781   -3.102570
     44          6           0       19.925041    6.162771   -3.316582
     45          1           0       21.623658    2.230201    3.701402
     46          1           0       21.985314   -4.041761    2.740867
     47          1           0       19.764063   -3.548282   -3.258360
     48          1           0       20.042512    4.416633   -0.577999
     49          1           0       20.138058    4.035511    2.289363
     50          1           0       21.997370    5.128955    0.335404
     51          1           0       22.759147    3.694915    0.856387
     52          1           0       22.254636    4.851798    2.162378
     53          1           0       17.951454    4.055159    1.499894
     54          1           0       17.618351    3.436898   -0.173725
     55          1           0       16.965212    5.938681    0.571140
     56          1           0       17.514526    5.782264   -0.983087
     57          1           0       21.956697    1.049093    6.048445
     58          1           0       23.325130    1.311504    4.865562
     59          1           0       23.271681    0.033694    6.154651
     60          1           0       23.876192   -1.864952    6.561575
     61          1           0       22.778652   -3.260299    7.188381
     62          1           0       22.159443   -1.745502    6.964233
     63          1           0       20.391873   -5.548882    0.945545
     64          1           0       21.246033   -5.387521   -1.882551
     65          1           0       22.424987   -6.577572    1.248934
     66          1           0       23.366789   -5.244606    0.553729
     67          1           0       22.791387   -6.577750   -0.434386
     68          1           0       19.191682   -6.717857   -0.986117
     69          1           0       18.942320   -5.504125   -2.264707
     70          1           0       17.290308   -4.799750   -1.253470
     71          1           0       18.220652   -4.272660    0.223689
     72          1           0       17.463494   -5.825935    0.190651
     73          1           0       18.108847   -1.017601   -5.562539
     74          1           0       18.877429   -2.581341   -5.077771
     75          1           0       19.771260   -1.117047   -5.836037
     76          1           0       17.768801    3.216022   -2.780496
     77          1           0       19.205590    6.974309   -3.203720
     78          1           0       20.232827    6.123574   -4.361493
     79          1           0       20.839070    6.209240   -2.724199
     80         12           0      -20.878608   -0.598369   -0.152094
     81          6           0      -18.778562    2.267584    0.067441
     82          6           0      -23.474836    1.318754    1.034002
     83          6           0      -22.657586   -3.375051   -0.362231
     84          6           0      -17.979701   -2.589509   -0.894404
     85          7           0      -21.105700    1.602703    0.568017
     86          6           0      -20.104238    2.547569    0.439116
     87          6           0      -20.737457    3.913823    0.873226
     88          6           0      -22.285360    3.600475    1.237643
     89          6           0      -22.283956    2.096266    0.946712
     90          6           0      -22.753104    4.031098    2.643439
     91          6           0      -20.510710    5.151740   -0.089551
     92          6           0      -19.822065    6.335779    0.524510
     93          1           0      -19.891041    6.674529    1.990215
     94          7           0      -22.921835   -0.960798    0.174025
     95          6           0      -23.795837   -0.043383    0.666230
     96          6           0      -25.096778   -0.656191    0.585161
     97          6           0      -24.881438   -2.019768    0.290360
     98          6           0      -23.420143   -2.227353    0.027936
     99          6           0      -26.350452    0.144877    0.975100
    100          6           0      -25.887223   -3.128954    0.355776
    101          8           0      -25.555499   -4.326339    0.187023
    102          6           0      -27.299028   -2.812344    0.684422
    103          7           0      -20.309174   -2.714679   -0.519703
    104          6           0      -21.233356   -3.604863   -0.625023
    105          6           0      -20.772774   -5.093051   -1.072606
    106          6           0      -19.267875   -4.820127   -1.217326
    107          6           0      -19.154429   -3.353808   -0.879069
    108          6           0      -21.165899   -6.125309    0.046785
    109          6           0      -18.618105   -5.150095   -2.607002
    110          6           0      -18.965274   -4.198677   -3.776618
    111          7           0      -18.861525   -0.275078   -0.240738
    112          6           0      -17.830286   -1.200000   -0.528282
    113          6           0      -16.568998   -0.451926   -0.619183
    114          6           0      -16.897572    0.907654   -0.401371
    115          6           0      -18.319951    0.973253   -0.216308
    116          6           0      -15.174057   -1.067247   -0.940315
    117          6           0      -16.334128    2.151188   -0.349523
    118          8           0      -15.183605    2.530782   -0.429485
    119          6           0      -17.503083    3.145268   -0.102483
    120          6           0      -17.182594    3.949644    1.053972
    121          8           0      -17.447185    3.643326    2.222020
    122          8           0      -16.329914    4.994944    0.679627
    123          6           0      -15.782775    5.774219    1.817808
    124          1           0      -24.294524    1.733682    1.624904
    125          1           0      -23.224028   -4.303877   -0.267128
    126          1           0      -17.068109   -3.146509   -1.120480
    127          1           0      -20.079466    4.124161    1.715387
    128          1           0      -22.925270    4.182198    0.575647
    129          1           0      -23.621397    4.687819    2.576179
    130          1           0      -22.010092    4.504993    3.284665
    131          1           0      -23.035105    3.092875    3.121268
    132          1           0      -21.462561    5.475758   -0.510833
    133          1           0      -19.845369    4.786612   -0.871960
    134          1           0      -20.373606    7.215777    0.191684
    135          1           0      -18.781132    6.317953    0.203588
    136          1           0      -26.163181    1.218798    0.991023
    137          1           0      -26.699979   -0.175623    1.955693
    138          1           0      -27.078733   -0.101019    0.202952
    139          1           0      -27.645778   -2.101931   -0.066054
    140          1           0      -27.380915   -2.317726    1.653039
    141          1           0      -27.891823   -3.723748    0.750891
    142          1           0      -21.211070   -5.372868   -2.030890
    143          1           0      -18.733600   -5.279879   -0.385579
    144          1           0      -21.152719   -5.599764    1.001590
    145          1           0      -20.392541   -6.893276    0.085399
    146          1           0      -22.127570   -6.631912   -0.038704
    147          1           0      -18.759285   -6.205266   -2.838919
    148          1           0      -17.537121   -5.130103   -2.472103
    149          1           0      -19.956056   -3.745723   -3.763771
    150          1           0      -18.760685   -4.723284   -4.710595
    151          1           0      -18.211171   -3.413156   -3.730294
    152          1           0      -14.642431   -0.535638   -1.729600
    153          1           0      -15.216549   -2.128247   -1.183837
    154          1           0      -14.483477   -0.815086   -0.135176
    155          1           0      -17.475029    3.742880   -1.013029
    156          1           0      -15.075790    5.173113    2.389029
    157          1           0      -16.528150    6.096473    2.543999
    158          1           0      -15.436696    6.720467    1.401588
 ---------------------------------------------------------------------

 SCF Done:  E(RCAM-B3LYP) =  -4069.80470125     A.U. after   19 cycles

 Excitation energies and oscillator strengths:

 Excited State   1:      Singlet-A      1.6991 eV  729.72 nm  f=0.3830  <S**2>=0.000
     309 -> 315       -0.18621
     312 -> 314        0.68408
     309 <- 315       -0.10902
 This state for optimization and/or second-order correction.
 Total Energy, E(TD-HF/TD-DFT) =  -4069.74226149
 Copying the excited state density for this state as the 1-particle RhoCI density.

 Excited State   2:      Singlet-A      1.7537 eV  707.00 nm  f=0.3734  <S**2>=0.000
     310 -> 316        0.18837
     311 -> 313        0.68192
     310 <- 316        0.10757

 Excited State   3:      Singlet-A      2.2094 eV  561.18 nm  f=0.1084  <S**2>=0.000
     310 -> 313        0.64208
     311 -> 316       -0.28089

 Excited State   4:      Singlet-A      2.2666 eV  547.02 nm  f=0.0454  <S**2>=0.000
     309 -> 314        0.60929
     312 -> 315        0.34926

 Excited State   5:      Singlet-A      3.1523 eV  393.31 nm  f=0.0000  <S**2>=0.000
     312 -> 313        0.70710

 The electronic state is 1-A.
 Alpha  occ. eigenvalues --  -46.89819 -46.89243 -19.25642 -19.24272 -19.20247
 Alpha  occ. eigenvalues --  -19.19544 -19.19492 -19.19297 -19.18773 -19.17527
 Alpha  occ. eigenvalues --  -14.42676 -14.42283 -14.42185 -14.41884 -14.39766
 Alpha  occ. eigenvalues --  -14.39678 -14.39494 -14.39474 -10.39510 -10.38615
 Alpha  occ. eigenvalues --  -10.35699 -10.35398 -10.35067 -10.33303 -10.31972
 Alpha  occ. eigenvalues --  -10.31905 -10.31822 -10.31765 -10.31720 -10.31419
 Alpha  occ. eigenvalues --  -10.31102 -10.30899 -10.30862 -10.30794 -10.30327
 Alpha  occ. eigenvalues --  -10.30202 -10.30169 -10.29886 -10.29855 -10.29581
 Alpha  occ. eigenvalues --  -10.29361 -10.29228 -10.29072 -10.28825 -10.28809
 Alpha  occ. eigenvalues --  -10.28778 -10.28379 -10.28325 -10.28323 -10.28120
 Alpha  occ. eigenvalues --  -10.28105 -10.28060 -10.27989 -10.27984 -10.27982
 Alpha  occ. eigenvalues --  -10.27950 -10.27877 -10.27832 -10.27749 -10.27692
 Alpha  occ. eigenvalues --  -10.27576 -10.27546 -10.27487 -10.27408 -10.27407
 Alpha  occ. eigenvalues --  -10.27369 -10.27342 -10.27337 -10.27227 -10.27137
 Alpha  occ. eigenvalues --  -10.27027 -10.26601 -10.26580 -10.26483 -10.26355
 Alpha  occ. eigenvalues --  -10.26330 -10.26219 -10.26005 -10.25975 -10.25870
 Alpha  occ. eigenvalues --  -10.25842 -10.25836 -10.25562 -10.25481 -10.24722
 Alpha  occ. eigenvalues --  -10.23898  -3.18154  -3.17646  -1.93069  -1.92645
 Alpha  occ. eigenvalues --   -1.92550  -1.92411  -1.92091  -1.91948  -1.15953
 Alpha  occ. eigenvalues --   -1.14358  -1.10188  -1.09599  -1.09249  -1.08464
 Alpha  occ. eigenvalues --   -1.07463  -1.06315  -1.06111  -1.05119  -1.03769
 Alpha  occ. eigenvalues --   -1.03700  -1.03034  -1.02885  -1.01705  -1.01704
 Alpha  occ. eigenvalues --   -0.92368  -0.92283  -0.89749  -0.89092  -0.88785
 Alpha  occ. eigenvalues --   -0.88285  -0.87999  -0.87828  -0.87270  -0.87253
 Alpha  occ. eigenvalues --   -0.86902  -0.86792  -0.86241  -0.85478  -0.84640
 Alpha  occ. eigenvalues --   -0.84323  -0.83373  -0.83366  -0.82540  -0.82409
 Alpha  occ. eigenvalues --   -0.82224  -0.81529  -0.81201  -0.80675  -0.80049
 Alpha  occ. eigenvalues --   -0.79959  -0.78323  -0.78078  -0.77579  -0.77350
 Alpha  occ. eigenvalues --   -0.77195  -0.76445  -0.75796  -0.75733  -0.74979
 Alpha  occ. eigenvalues --   -0.74969  -0.72524  -0.72460  -0.72171  -0.71559
 Alpha  occ. eigenvalues --   -0.70466  -0.69861  -0.69254  -0.69038  -0.68342
 Alpha  occ. eigenvalues --   -0.67840  -0.67425  -0.66915  -0.65316  -0.65227
 Alpha  occ. eigenvalues --   -0.64992  -0.64907  -0.64698  -0.64645  -0.64384
 Alpha  occ. eigenvalues --   -0.64236  -0.62529  -0.61419  -0.60293  -0.60228
 Alpha  occ. eigenvalues --   -0.59504  -0.59411  -0.58909  -0.58769  -0.58606
 Alpha  occ. eigenvalues --   -0.58131  -0.57966  -0.57941  -0.57525  -0.57477
 Alpha  occ. eigenvalues --   -0.56281  -0.56022  -0.55917  -0.55530  -0.55271
 Alpha  occ. eigenvalues --   -0.55058  -0.54950  -0.54871  -0.54413  -0.53595
 Alpha  occ. eigenvalues --   -0.53531  -0.53240  -0.53184  -0.53145  -0.53016
 Alpha  occ. eigenvalues --   -0.52840  -0.52628  -0.52387  -0.52278  -0.52122
 Alpha  occ. eigenvalues --   -0.52023  -0.51936  -0.51552  -0.51495  -0.51290
 Alpha  occ. eigenvalues --   -0.51047  -0.50882  -0.50808  -0.50454  -0.49851
 Alpha  occ. eigenvalues --   -0.49848  -0.49644  -0.49510  -0.49326  -0.49247
 Alpha  occ. eigenvalues --   -0.49214  -0.48954  -0.48911  -0.48863  -0.48577
 Alpha  occ. eigenvalues --   -0.48573  -0.48512  -0.48465  -0.48112  -0.47980
 Alpha  occ. eigenvalues --   -0.47929  -0.47691  -0.47508  -0.47374  -0.47316
 Alpha  occ. eigenvalues --   -0.47231  -0.46838  -0.46738  -0.46736  -0.46611
 Alpha  occ. eigenvalues --   -0.46514  -0.46162  -0.46132  -0.45867  -0.45821
 Alpha  occ. eigenvalues --   -0.45609  -0.45487  -0.45180  -0.44930  -0.44764
 Alpha  occ. eigenvalues --   -0.44598  -0.44525  -0.44223  -0.43900  -0.43780
 Alpha  occ. eigenvalues --   -0.43746  -0.43453  -0.43444  -0.43211  -0.43203
 Alpha  occ. eigenvalues --   -0.42980  -0.42900  -0.42761  -0.42724  -0.42477
 Alpha  occ. eigenvalues --   -0.42364  -0.42300  -0.42129  -0.42096  -0.41928
 Alpha  occ. eigenvalues --   -0.41864  -0.41825  -0.41680  -0.41580  -0.41527
 Alpha  occ. eigenvalues --   -0.41373  -0.41257  -0.41142  -0.40733  -0.40589
 Alpha  occ. eigenvalues --   -0.40531  -0.40118  -0.39783  -0.39777  -0.39507
 Alpha  occ. eigenvalues --   -0.39117  -0.37863  -0.37485  -0.37136  -0.36942
 Alpha  occ. eigenvalues --   -0.36714  -0.36629  -0.36385  -0.36365  -0.36250
 Alpha  occ. eigenvalues --   -0.36099  -0.35495  -0.34658  -0.34200  -0.33935
 Alpha  occ. eigenvalues --   -0.33674  -0.33470  -0.33047  -0.31314  -0.31210
 Alpha  occ. eigenvalues --   -0.31205  -0.31101  -0.30976  -0.30369  -0.30328
 Alpha  occ. eigenvalues --   -0.29964  -0.29873  -0.29558  -0.24401  -0.23791
 Alpha  occ. eigenvalues --   -0.21244  -0.20946
 Alpha virt. eigenvalues --   -0.08541  -0.08477  -0.02347  -0.01784  -0.00233
 Alpha virt. eigenvalues --    0.00142   0.01962   0.02182   0.02324   0.02585
 Alpha virt. eigenvalues --    0.04744   0.04951   0.05008   0.05450   0.05538

 Mulliken charges:
               1
     1  Mg  12.002863
     2  C    6.028363
     3  C    5.972523
     4  C    5.990209
     5  C    6.022090
     6  N    7.002855
     7  C    5.959024
     8  C    6.013549
     9  C    5.988579
    10  C    6.038536
    11  C    5.998302
    12  C    6.002546
    13  C    6.004284
    14  H    0.990851
    15  N    6.986810
    16  C    6.045221
    17  C    6.020042
    18  C    6.019228
    19  C    6.032155
    20  C    5.998787
    21  C    6.011058
    22  O    8.030523
    23  C    5.994936
    24  N    7.002481
    25  C    6.030564
    26  C    5.988980
    27  C    6.012417
    28  C    5.965663
    29  C    5.998645
    30  C    6.002662
    31  C    6.005238
    32  N    7.006683
    33  C    5.947601
    34  C    5.974470
    35  C    5.995430
    36  C    5.961652
    37  C    6.003340
    38  C    5.983524
    39  O    7.972523
    40  C    5.997149
    41  C    5.996650
    42  O    7.996282
    43  O    7.998329
    44  C    6.002089
    45  H    1.007064
    46  H    1.007053
    47  H    0.991034
    48  H    0.998314
    49  H    1.001523
    50  H    1.015098
    51  H    1.000529
    52  H    0.999361
    53  H    0.986813
    54  H    1.005421
    55  H    0.996144
    56  H    1.003332
    57  H    1.021240
    58  H    1.015576
    59  H    1.014175
    60  H    1.008942
    61  H    1.014697
    62  H    1.007896
    63  H    1.001184
    64  H    0.997382
    65  H    0.998364
    66  H    0.997076
    67  H    1.010478
    68  H    0.989558
    69  H    1.004752
    70  H    1.005902
    71  H    0.990481
    72  H    0.992701
    73  H    0.983466
    74  H    0.980361
    75  H    0.978585
    76  H    0.992653
    77  H    0.995498
    78  H    0.998671
    79  H    0.992971
    80  Mg  11.999997
    81  C    5.999860
    82  C    6.000188
    83  C    6.000052
    84  C    5.999866
    85  N    6.999984
    86  C    6.000185
    87  C    5.999959
    88  C    6.000135
    89  C    5.999702
    90  C    6.000012
    91  C    5.999980
    92  C    6.000008
    93  H    0.999987
    94  N    7.000124
    95  C    5.999587
    96  C    5.999895
    97  C    5.999848
    98  C    5.999729
    99  C    6.000045
   100  C    5.999872
   101  O    7.999764
   102  C    6.000055
   103  N    6.999930
   104  C    5.999804
   105  C    6.000061
   106  C    5.999931
   107  C    6.000289
   108  C    6.000035
   109  C    5.999956
   110  C    5.999951
   111  N    7.000011
   112  C    6.000352
   113  C    6.000211
   114  C    6.000009
   115  C    6.000237
   116  C    5.999923
   117  C    6.000200
   118  O    8.000308
   119  C    5.999991
   120  C    6.000032
   121  O    8.000032
   122  O    8.000024
   123  C    5.999987
   124  H    0.999927
   125  H    0.999917
   126  H    1.000113
   127  H    0.999958
   128  H    0.999947
   129  H    0.999951
   130  H    0.999891
   131  H    1.000000
   132  H    1.000063
   133  H    0.999988
   134  H    1.000029
   135  H    0.999991
   136  H    0.999840
   137  H    0.999807
   138  H    0.999861
   139  H    0.999943
   140  H    0.999910
   141  H    0.999850
   142  H    0.999995
   143  H    0.999998
   144  H    0.999972
   145  H    0.999901
   146  H    1.000004
   147  H    1.000076
   148  H    1.000011
   149  H    1.000080
   150  H    1.000084
   151  H    0.999965
   152  H    1.000262
   153  H    1.000182
   154  H    1.000174
   155  H    1.000113
   156  H    1.000008
   157  H    1.000004
   158  H    1.000079
 Sum of Mulliken charges = 624.00000

 Dipole moment (field-independent basis, Debye):
    X=              4.2563    Y=             -1.4599    Z=              9.9313  Tot=             10.9031
 Quadrupole moment (field-independent basis, Debye-Ang):
   XX=            167.6447   YY=             -0.5711   ZZ=              5.7401
   XY=            -32.9964   XZ=            207.7644   YZ=             -6.7580

 Normal termination of Gaussian 16 at Tue Sep 21 17:35:30 2021.
