 Gaussian 16, Revision A.03,
 Gaussian 16:  ES64L-G16RevA.03 25-Dec-2016

 ----------------------------------------------------------
 #p cam-b3lyp/Def2SVP td=(nstates=5) density=(transition=1)
 ----------------------------------------------------------

 --------------------------------
 TDDFT excited states in gaussian
 --------------------------------
 Symbolic Z-matrix:
 Charge =  0 Multiplicity = 1

                         Standard orientation:
 ---------------------------------------------------------------------
 Center     Atomic      Atomic             Coordinates (Angstroms)
 Number     Number       Type             X           Y           Z
 ---------------------------------------------------------------------
      1         12           0      -18.206963   -0.745524    0.113443
      2          6           0      -17.543994    2.624618   -0.651793
      3          6           0      -17.169666   -0.071118    3.363025
      4          6           0      -18.535382   -3.997300    0.701370
      5          6           0      -18.399078   -1.446309   -3.402589
      6          7           0      -17.432196    1.036672    1.205394
      7          6           0      -17.373244    2.338680    0.688891
      8          6           0      -17.312650    3.327394    1.838478
      9          6           0      -16.915012    2.478313    3.079306
     10          6           0      -17.194599    1.051588    2.517944
     11          6           0      -15.488414    2.726782    3.662247
     12          6           0      -18.610855    4.185022    2.033238
     13          6           0      -18.347513    5.642825    2.616493
     14          1           0      -16.906526    6.022817    2.967452
     15          7           0      -18.023388   -1.811189    1.777313
     16          6           0      -17.663415   -1.351828    3.032525
     17          6           0      -17.770766   -2.399064    4.006947
     18          6           0      -18.041023   -3.584341    3.250860
     19          6           0      -18.245376   -3.147117    1.881377
     20          6           0      -17.448257   -2.208077    5.520458
     21          6           0      -18.115337   -4.999338    3.723734
     22          8           0      -18.206308   -5.955895    2.917694
     23          6           0      -18.014947   -5.557533    5.173865
     24          7           0      -18.163983   -2.522894   -1.159789
     25          6           0      -18.425647   -3.745792   -0.660853
     26          6           0      -18.789826   -4.729986   -1.800765
     27          6           0      -18.726926   -3.935390   -3.110126
     28          6           0      -18.449841   -2.491108   -2.499901
     29          6           0      -18.002992   -6.002062   -1.713152
     30          6           0      -19.966618   -3.991700   -4.028456
     31          6           0      -21.286590   -3.493111   -3.390284
     32          7           0      -17.958814    0.313671   -1.727225
     33          6           0      -18.223448   -0.074034   -2.996649
     34          6           0      -18.242300    1.140578   -3.810322
     35          6           0      -18.009985    2.265048   -2.969760
     36          6           0      -17.788335    1.705318   -1.687971
     37          6           0      -18.599179    1.213835   -5.292607
     38          6           0      -17.882318    3.686544   -2.919867
     39          8           0      -18.064438    4.587995   -3.733860
     40          6           0      -17.489510    3.996264   -1.332037
     41          6           0      -16.209734    4.809653   -1.285006
     42          8           0      -15.100928    4.326129   -1.403164
     43          8           0      -16.477189    6.127672   -0.992151
     44          6           0      -15.458425    7.134109   -1.272790
     45          1           0      -16.948764    0.280346    4.372856
     46          1           0      -18.727132   -5.037737    0.970835
     47          1           0      -18.602135   -1.718286   -4.440210
     48          1           0      -16.522019    4.052895    1.647587
     49          1           0      -17.648060    2.692078    3.856619
     50          1           0      -15.050438    1.729555    3.635995
     51          1           0      -15.546146    3.004598    4.715354
     52          1           0      -14.806882    3.408169    3.153060
     53          1           0      -19.274388    3.740173    2.774164
     54          1           0      -19.149474    4.218053    1.087060
     55          1           0      -18.838794    5.695567    3.588194
     56          1           0      -18.760114    6.354891    1.902189
     57          1           0      -16.940729   -3.110467    5.863533
     58          1           0      -18.345009   -2.098944    6.129464
     59          1           0      -16.854295   -1.364457    5.871724
     60          1           0      -18.760016   -5.089859    5.818112
     61          1           0      -17.012560   -5.459487    5.590564
     62          1           0      -18.415572   -6.563151    5.296056
     63          1           0      -19.782121   -5.104186   -1.552211
     64          1           0      -17.768862   -4.210094   -3.552841
     65          1           0      -18.578541   -6.827777   -1.294358
     66          1           0      -17.085409   -5.832840   -1.149445
     67          1           0      -17.621021   -6.358162   -2.670561
     68          1           0      -20.072789   -5.057100   -4.233808
     69          1           0      -19.770914   -3.455473   -4.957511
     70          1           0      -21.607989   -2.660343   -4.015496
     71          1           0      -21.043897   -3.174030   -2.376645
     72          1           0      -22.043078   -4.267010   -3.259334
     73          1           0      -19.257518    2.050584   -5.524412
     74          1           0      -19.197311    0.357135   -5.601772
     75          1           0      -17.671140    1.192490   -5.864570
     76          1           0      -18.296377    4.639590   -0.980115
     77          1           0      -14.501803    6.691263   -0.994303
     78          1           0      -15.564915    8.062444   -0.711475
     79          1           0      -15.575279    7.378045   -2.328727
     80         12           0       18.127350   -0.740390   -0.071993
     81          6           0       16.401652    2.413022    0.439815
     82          6           0       20.970736    1.065871    0.060163
     83          6           0       19.622316   -3.516494   -0.582978
     84          6           0       14.979395   -2.305501   -0.493519
     85          7           0       18.609256    1.595784    0.265055
     86          6           0       17.766143    2.607724    0.533367
     87          6           0       18.557531    3.876935    0.902669
     88          6           0       19.964632    3.427477    0.289005
     89          6           0       19.872774    1.959798    0.256743
     90          6           0       20.494802    4.174475   -0.923383
     91          6           0       18.498635    4.069967    2.427853
     92          6           0       18.681990    5.555397    2.857404
     93          1           0       18.624406    6.776882    1.828050
     94          7           0       20.083066   -1.214855   -0.201369
     95          6           0       21.143556   -0.329208   -0.212798
     96          6           0       22.364622   -1.094335   -0.446056
     97          6           0       21.992466   -2.456575   -0.560136
     98          6           0       20.506345   -2.423478   -0.452220
     99          6           0       23.701814   -0.506325   -0.541495
    100          6           0       22.912813   -3.775561   -0.731296
    101          8           0       22.451292   -4.879942   -0.637788
    102          6           0       24.449669   -3.691055   -0.717967
    103          7           0       17.376939   -2.586382   -0.748447
    104          6           0       18.219577   -3.615940   -0.726900
    105          6           0       17.567821   -4.956931   -0.932399
    106          6           0       16.125124   -4.594005   -0.503457
    107          6           0       16.149348   -3.046432   -0.751637
    108          6           0       17.620260   -5.490484   -2.439281
    109          6           0       15.703219   -5.021855    0.964607
    110          6           0       16.346406   -6.277315    1.622370
    111          7           0       16.122287   -0.119213   -0.154198
    112          6           0       14.964780   -0.817468   -0.260832
    113          6           0       13.850945   -0.014639   -0.028568
    114          6           0       14.377656    1.226548    0.188458
    115          6           0       15.755636    1.156292    0.132847
    116          6           0       12.400246   -0.485215    0.029667
    117          6           0       13.958009    2.599079    0.509065
    118          8           0       12.873450    3.161893    0.505710
    119          6           0       15.317223    3.387029    0.759638
    120          6           0       15.283204    4.585604   -0.060020
    121          8           0       15.495581    4.661830   -1.274351
    122          8           0       14.720743    5.556567    0.689442
    123          6           0       14.278586    6.687829   -0.106063
    124          1           0       21.866169    1.675491   -0.078298
    125          1           0       20.165795   -4.439044   -0.794814
    126          1           0       14.034479   -2.850827   -0.536438
    127          1           0       18.219386    4.741371    0.331120
    128          1           0       20.704562    3.665129    1.052067
    129          1           0       21.386723    4.755053   -0.689733
    130          1           0       19.730813    4.845219   -1.316027
    131          1           0       20.719215    3.534686   -1.776882
    132          1           0       19.363432    3.558622    2.851233
    133          1           0       17.619766    3.629282    2.898117
    134          1           0       19.560818    5.687209    3.489401
    135          1           0       17.940709    5.646972    3.651144
    136          1           0       23.760515    0.451072   -0.024197
    137          1           0       23.883678   -0.390163   -1.610059
    138          1           0       24.490057   -1.120627   -0.105734
    139          1           0       24.864772   -3.368187    0.236753
    140          1           0       24.696138   -3.096255   -1.597766
    141          1           0       24.875030   -4.661698   -0.974301
    142          1           0       18.143551   -5.606576   -0.273590
    143          1           0       15.364840   -5.019539   -1.157976
    144          1           0       17.926505   -6.525874   -2.291772
    145          1           0       18.351559   -4.985333   -3.071228
    146          1           0       16.670294   -5.499216   -2.972324
    147          1           0       14.618152   -5.107330    1.002132
    148          1           0       16.111830   -4.189203    1.537448
    149          1           0       17.280068   -6.010508    2.116943
    150          1           0       16.415711   -6.984099    0.794739
    151          1           0       15.679891   -6.753184    2.340848
    152          1           0       12.462904   -1.516974    0.376380
    153          1           0       11.921823   -0.526200   -0.948434
    154          1           0       11.862361    0.154830    0.728810
    155          1           0       15.333812    3.638756    1.820790
    156          1           0       13.801381    7.470671    0.482767
    157          1           0       13.732917    6.458031   -1.021383
    158          1           0       15.137124    7.226531   -0.508559
 ---------------------------------------------------------------------

 SCF Done:  E(RCAM-B3LYP) =  -4069.79257146     A.U. after   18 cycles

 Excitation energies and oscillator strengths:

 Excited State   1:      Singlet-A      1.6591 eV  747.32 nm  f=0.4017  <S**2>=0.000
     309 -> 315        0.16731
     312 -> 313        0.68827
     309 <- 315        0.10534
 This state for optimization and/or second-order correction.
 Total Energy, E(TD-HF/TD-DFT) =  -4069.73160234
 Copying the excited state density for this state as the 1-particle RhoCI density.

 Excited State   2:      Singlet-A      1.8344 eV  675.87 nm  f=0.3729  <S**2>=0.000
     310 -> 316       -0.18807
     311 -> 314        0.68158
     310 <- 316       -0.10396

 Excited State   3:      Singlet-A      2.1919 eV  565.65 nm  f=0.1526  <S**2>=0.000
     309 -> 313        0.65721
     312 -> 315       -0.24504

 Excited State   4:      Singlet-A      2.2401 eV  553.47 nm  f=0.1580  <S**2>=0.000
     310 -> 314        0.65518
     311 -> 316        0.25327

 Excited State   5:      Singlet-A      3.0412 eV  407.68 nm  f=0.0000  <S**2>=0.000
     311 -> 313        0.70710

 The electronic state is 1-A.
 Alpha  occ. eigenvalues --  -46.89334 -46.88852 -19.24861 -19.24191 -19.20500
 Alpha  occ. eigenvalues --  -19.19300 -19.19192 -19.18830 -19.18733 -19.18309
 Alpha  occ. eigenvalues --  -14.42493 -14.41454 -14.41376 -14.41102 -14.40216
 Alpha  occ. eigenvalues --  -14.39926 -14.39321 -14.38615 -10.39054 -10.38182
 Alpha  occ. eigenvalues --  -10.36953 -10.35529 -10.35423 -10.34786 -10.31484
 Alpha  occ. eigenvalues --  -10.31346 -10.31220 -10.30878 -10.30767 -10.30742
 Alpha  occ. eigenvalues --  -10.30706 -10.30675 -10.30593 -10.30496 -10.30411
 Alpha  occ. eigenvalues --  -10.30296 -10.29796 -10.29574 -10.29559 -10.29460
 Alpha  occ. eigenvalues --  -10.29400 -10.29234 -10.29179 -10.28981 -10.28473
 Alpha  occ. eigenvalues --  -10.28381 -10.28184 -10.28144 -10.28094 -10.27940
 Alpha  occ. eigenvalues --  -10.27920 -10.27889 -10.27809 -10.27797 -10.27678
 Alpha  occ. eigenvalues --  -10.27497 -10.27481 -10.27465 -10.27462 -10.27456
 Alpha  occ. eigenvalues --  -10.27418 -10.27402 -10.27340 -10.27270 -10.27234
 Alpha  occ. eigenvalues --  -10.27099 -10.27098 -10.26831 -10.26673 -10.26535
 Alpha  occ. eigenvalues --  -10.26472 -10.26281 -10.26196 -10.26186 -10.26057
 Alpha  occ. eigenvalues --  -10.26015 -10.25960 -10.25566 -10.25543 -10.25513
 Alpha  occ. eigenvalues --  -10.25440 -10.25341 -10.25236 -10.25190 -10.24854
 Alpha  occ. eigenvalues --  -10.23690  -3.17835  -3.17422  -1.92736  -1.92308
 Alpha  occ. eigenvalues --   -1.92292  -1.92120  -1.91878  -1.91736  -1.16453
 Alpha  occ. eigenvalues --   -1.15383  -1.12583  -1.09421  -1.09389  -1.08359
 Alpha  occ. eigenvalues --   -1.07390  -1.06602  -1.05755  -1.05174  -1.04607
 Alpha  occ. eigenvalues --   -1.04272  -1.03411  -1.03383  -1.03160  -1.02058
 Alpha  occ. eigenvalues --   -0.92315  -0.92130  -0.89156  -0.89142  -0.88719
 Alpha  occ. eigenvalues --   -0.88492  -0.88092  -0.88078  -0.87493  -0.87312
 Alpha  occ. eigenvalues --   -0.86874  -0.86745  -0.85558  -0.85259  -0.84342
 Alpha  occ. eigenvalues --   -0.83762  -0.83281  -0.83074  -0.82352  -0.82128
 Alpha  occ. eigenvalues --   -0.81915  -0.81010  -0.80700  -0.80569  -0.80065
 Alpha  occ. eigenvalues --   -0.79986  -0.78653  -0.78578  -0.76895  -0.76809
 Alpha  occ. eigenvalues --   -0.76714  -0.76606  -0.75778  -0.75681  -0.75232
 Alpha  occ. eigenvalues --   -0.74930  -0.72725  -0.72486  -0.71632  -0.71029
 Alpha  occ. eigenvalues --   -0.69872  -0.69633  -0.69081  -0.68733  -0.68278
 Alpha  occ. eigenvalues --   -0.67549  -0.67470  -0.66740  -0.65414  -0.65161
 Alpha  occ. eigenvalues --   -0.65041  -0.64857  -0.64637  -0.64099  -0.64077
 Alpha  occ. eigenvalues --   -0.63653  -0.61774  -0.61573  -0.60852  -0.60785
 Alpha  occ. eigenvalues --   -0.59476  -0.59432  -0.59211  -0.58738  -0.58376
 Alpha  occ. eigenvalues --   -0.58016  -0.57886  -0.57447  -0.57361  -0.56896
 Alpha  occ. eigenvalues --   -0.56509  -0.55844  -0.55707  -0.55446  -0.55158
 Alpha  occ. eigenvalues --   -0.54863  -0.54688  -0.54596  -0.54014  -0.53883
 Alpha  occ. eigenvalues --   -0.53758  -0.53578  -0.53417  -0.52993  -0.52929
 Alpha  occ. eigenvalues --   -0.52842  -0.52723  -0.52490  -0.52295  -0.52244
 Alpha  occ. eigenvalues --   -0.51933  -0.51647  -0.51264  -0.51262  -0.51128
 Alpha  occ. eigenvalues --   -0.50969  -0.50664  -0.50627  -0.50432  -0.50005
 Alpha  occ. eigenvalues --   -0.49963  -0.49681  -0.49461  -0.49221  -0.49149
 Alpha  occ. eigenvalues --   -0.49056  -0.48973  -0.48889  -0.48737  -0.48711
 Alpha  occ. eigenvalues --   -0.48580  -0.48548  -0.48266  -0.48133  -0.47874
 Alpha  occ. eigenvalues --   -0.47819  -0.47695  -0.47473  -0.47363  -0.47361
 Alpha  occ. eigenvalues --   -0.47017  -0.46705  -0.46626  -0.46319  -0.46238
 Alpha  occ. eigenvalues --   -0.46179  -0.45775  -0.45727  -0.45406  -0.45405
 Alpha  occ. eigenvalues --   -0.45148  -0.44902  -0.44662  -0.44617  -0.44495
 Alpha  occ. eigenvalues --   -0.44348  -0.44296  -0.44182  -0.44032  -0.44022
 Alpha  occ. eigenvalues --   -0.43944  -0.43871  -0.43775  -0.43345  -0.43278
 Alpha  occ. eigenvalues --   -0.43224  -0.43079  -0.42990  -0.42933  -0.42627
 Alpha  occ. eigenvalues --   -0.42586  -0.42448  -0.42359  -0.42226  -0.42044
 Alpha  occ. eigenvalues --   -0.41870  -0.41791  -0.41547  -0.41478  -0.41385
 Alpha  occ. eigenvalues --   -0.41325  -0.40677  -0.40544  -0.40373  -0.40042
 Alpha  occ. eigenvalues --   -0.39705  -0.39580  -0.39306  -0.39186  -0.38626
 Alpha  occ. eigenvalues --   -0.38578  -0.38224  -0.38054  -0.37746  -0.37578
 Alpha  occ. eigenvalues --   -0.37419  -0.36766  -0.36572  -0.36254  -0.35903
 Alpha  occ. eigenvalues --   -0.35891  -0.35620  -0.34142  -0.33952  -0.33692
 Alpha  occ. eigenvalues --   -0.33686  -0.33002  -0.32451  -0.31903  -0.31495
 Alpha  occ. eigenvalues --   -0.31413  -0.30736  -0.30681  -0.30579  -0.30335
 Alpha  occ. eigenvalues --   -0.30242  -0.29447  -0.29435  -0.24067  -0.23346
 Alpha  occ. eigenvalues --   -0.21336  -0.21327
 Alpha virt. eigenvalues --   -0.09189  -0.08226  -0.01355  -0.01050   0.00005
 Alpha virt. eigenvalues --    0.00594   0.01413   0.02222   0.02448   0.02772
 Alpha virt. eigenvalues --    0.04227   0.05269   0.05444   0.05749   0.05911

 Mulliken charges:
               1
     1  Mg  11.999474
     2  C    6.026024
     3  C    5.994453
     4  C    5.976684
     5  C    6.009558
     6  N    7.011110
     7  C    5.962541
     8  C    6.009724
     9  C    5.987886
    10  C    6.025023
    11  C    6.001857
    12  C    6.003004
    13  C    6.000783
    14  H    0.994520
    15  N    6.992598
    16  C    6.040055
    17  C    6.025483
    18  C    6.013381
    19  C    6.033925
    20  C    5.996458
    21  C    6.008035
    22  O    8.032793
    23  C    5.995515
    24  N    6.991529
    25  C    6.034363
    26  C    5.994762
    27  C    6.008662
    28  C    5.978176
    29  C    5.997477
    30  C    6.004153
    31  C    6.005503
    32  N    7.004838
    33  C    5.962636
    34  C    5.961420
    35  C    6.001364
    36  C    5.958165
    37  C    6.003724
    38  C    5.987632
    39  O    7.973756
    40  C    5.994302
    41  C    5.996979
    42  O    7.994383
    43  O    7.998244
    44  C    6.002041
    45  H    1.014091
    46  H    1.003734
    47  H    0.989591
    48  H    1.000962
    49  H    1.003043
    50  H    0.994954
    51  H    1.002934
    52  H    1.013615
    53  H    0.987377
    54  H    1.007947
    55  H    0.994384
    56  H    1.003184
    57  H    1.016274
    58  H    1.021485
    59  H    1.020074
    60  H    1.008255
    61  H    1.009096
    62  H    1.014487
    63  H    0.999603
    64  H    0.995648
    65  H    0.997981
    66  H    0.996072
    67  H    1.009990
    68  H    0.990345
    69  H    1.004712
    70  H    1.005437
    71  H    0.992656
    72  H    0.991742
    73  H    0.980217
    74  H    0.978307
    75  H    0.976594
    76  H    0.991104
    77  H    0.995186
    78  H    0.993952
    79  H    0.999974
    80  Mg  11.999972
    81  C    6.000071
    82  C    6.000069
    83  C    5.999886
    84  C    5.999886
    85  N    6.999975
    86  C    5.999993
    87  C    6.000005
    88  C    6.000011
    89  C    5.999976
    90  C    5.999970
    91  C    6.000001
    92  C    5.999997
    93  H    1.000083
    94  N    6.999991
    95  C    5.999960
    96  C    6.000022
    97  C    5.999966
    98  C    6.000073
    99  C    6.000012
   100  C    6.000000
   101  O    7.999977
   102  C    5.999993
   103  N    7.000044
   104  C    6.000017
   105  C    5.999988
   106  C    5.999987
   107  C    6.000073
   108  C    6.000017
   109  C    6.000024
   110  C    6.000009
   111  N    6.999981
   112  C    6.000070
   113  C    5.999957
   114  C    6.000032
   115  C    5.999982
   116  C    6.000017
   117  C    6.000023
   118  O    8.000037
   119  C    5.999983
   120  C    6.000008
   121  O    8.000062
   122  O    7.999969
   123  C    5.999957
   124  H    1.000017
   125  H    0.999993
   126  H    0.999983
   127  H    1.000049
   128  H    0.999992
   129  H    1.000016
   130  H    1.000055
   131  H    1.000032
   132  H    0.999971
   133  H    0.999962
   134  H    0.999981
   135  H    0.999965
   136  H    0.999996
   137  H    1.000034
   138  H    0.999982
   139  H    0.999976
   140  H    1.000031
   141  H    0.999989
   142  H    0.999959
   143  H    0.999994
   144  H    0.999962
   145  H    1.000044
   146  H    1.000019
   147  H    0.999940
   148  H    0.999990
   149  H    1.000000
   150  H    1.000010
   151  H    0.999887
   152  H    0.999915
   153  H    1.000077
   154  H    0.999959
   155  H    0.999963
   156  H    1.000015
   157  H    1.000081
   158  H    1.000034
 Sum of Mulliken charges = 624.00000

 Dipole moment (field-independent basis, Debye):
    X=              0.5425    Y=             -6.0071    Z=              9.5555  Tot=             11.2999
 Quadrupole moment (field-independent basis, Debye-Ang):
   XX=            -20.0058   YY=              5.9216   ZZ=              2.8180
   XY=            107.4846   XZ=           -171.8570   YZ=             -8.2053

 Normal termination of Gaussian 16 at Wed Sep 22 07:37:34 2021.
