 Gaussian 16, Revision A.03,
 Gaussian 16:  ES64L-G16RevA.03 25-Dec-2016

 ----------------------------------------------------------
 #p cam-b3lyp/Def2SVP td=(nstates=5) density=(transition=1)
 ----------------------------------------------------------

 --------------------------------
 TDDFT excited states in gaussian
 --------------------------------
 Symbolic Z-matrix:
 Charge =  0 Multiplicity = 1

                         Standard orientation:
 ---------------------------------------------------------------------
 Center     Atomic      Atomic             Coordinates (Angstroms)
 Number     Number       Type             X           Y           Z
 ---------------------------------------------------------------------
      1         12           0      -28.457311    0.437548    0.373647
      2          6           0      -26.692686   -2.064221   -1.442757
      3          6           0      -28.226793    2.480317   -2.382534
      4          6           0      -30.046851    2.658909    2.233163
      5          6           0      -28.181513   -1.597140    3.323784
      6          7           0      -27.475484    0.262499   -1.728786
      7          6           0      -26.924575   -0.910775   -2.210701
      8          6           0      -26.553271   -0.633589   -3.707821
      9          6           0      -27.019551    0.887750   -4.016202
     10          6           0      -27.588106    1.232008   -2.635796
     11          6           0      -25.932799    1.832490   -4.570206
     12          6           0      -27.016130   -1.708322   -4.776232
     13          6           0      -25.918684   -2.333798   -5.587183
     14          1           0      -24.615846   -1.646420   -5.900111
     15          7           0      -29.195438    2.350365   -0.083280
     16          6           0      -28.980173    2.996030   -1.259959
     17          6           0      -29.779813    4.192702   -1.204216
     18          6           0      -30.223250    4.318384    0.130021
     19          6           0      -29.819343    3.088523    0.886090
     20          6           0      -29.852416    5.127258   -2.423558
     21          6           0      -30.865649    5.516753    0.760428
     22          8           0      -31.111607    5.559137    1.989231
     23          6           0      -31.166584    6.705026   -0.075568
     24          7           0      -28.959562    0.490731    2.537688
     25          6           0      -29.665062    1.465690    2.995245
     26          6           0      -30.153420    1.359236    4.537109
     27          6           0      -29.526234   -0.003148    4.869825
     28          6           0      -28.871953   -0.402531    3.569906
     29          6           0      -29.588803    2.578626    5.354076
     30          6           0      -30.493826   -1.117788    5.402384
     31          6           0      -31.460278   -1.746079    4.370421
     32          7           0      -27.534910   -1.321157    0.860610
     33          6           0      -27.502898   -1.985889    2.109098
     34          6           0      -26.841081   -3.282505    1.910321
     35          6           0      -26.517053   -3.355669    0.534271
     36          6           0      -26.999735   -2.149535   -0.077263
     37          6           0      -26.604703   -4.355635    3.014912
     38          6           0      -25.949183   -4.186001   -0.390179
     39          8           0      -25.407055   -5.268025   -0.292660
     40          6           0      -26.064969   -3.454704   -1.756735
     41          6           0      -24.750367   -3.387205   -2.352041
     42          8           0      -23.930822   -2.483483   -2.152522
     43          8           0      -24.458299   -4.599288   -2.988750
     44          6           0      -23.060223   -4.713493   -3.472925
     45          1           0      -28.007840    3.297417   -3.073640
     46          1           0      -30.422843    3.463033    2.869271
     47          1           0      -28.073811   -2.255896    4.187960
     48          1           0      -25.479606   -0.799852   -3.630166
     49          1           0      -27.761917    0.871418   -4.812916
     50          1           0      -26.252166    2.275273   -5.514497
     51          1           0      -24.937247    1.410175   -4.705627
     52          1           0      -25.849817    2.607087   -3.807828
     53          1           0      -27.749529   -1.269467   -5.453003
     54          1           0      -27.460738   -2.515845   -4.194517
     55          1           0      -26.273502   -2.351360   -6.618281
     56          1           0      -25.718879   -3.320448   -5.170709
     57          1           0      -29.524915    4.634132   -3.339090
     58          1           0      -29.236567    6.008252   -2.247395
     59          1           0      -30.905702    5.396711   -2.494634
     60          1           0      -31.822725    6.367968   -0.878069
     61          1           0      -30.265009    7.099493   -0.545813
     62          1           0      -31.575714    7.509923    0.533722
     63          1           0      -31.240526    1.314252    4.607009
     64          1           0      -28.660496    0.143513    5.516056
     65          1           0      -28.648734    2.880176    4.892165
     66          1           0      -29.361463    2.233442    6.363288
     67          1           0      -30.213283    3.467823    5.444189
     68          1           0      -30.982209   -0.777098    6.314806
     69          1           0      -29.874785   -1.917561    5.807689
     70          1           0      -31.810263   -1.098254    3.567418
     71          1           0      -32.281762   -2.210954    4.916714
     72          1           0      -30.906217   -2.581092    3.941900
     73          1           0      -26.927020   -5.353928    2.718722
     74          1           0      -27.058802   -4.097585    3.970963
     75          1           0      -25.539051   -4.580358    3.066107
     76          1           0      -26.710052   -4.134737   -2.312112
     77          1           0      -22.369242   -4.790315   -2.633822
     78          1           0      -22.710047   -3.856639   -4.047351
     79          1           0      -23.058867   -5.510548   -4.216630
     80         12           0       28.382562    0.510808   -0.233076
     81          6           0       26.097451   -2.149785    0.117076
     82          6           0       25.770537    2.449114   -1.048513
     83          6           0       30.504830    2.987767   -0.029932
     84          6           0       30.772322   -1.631054    1.339166
     85          7           0       26.178528    0.169562   -0.391318
     86          6           0       25.455947   -0.971514   -0.293528
     87          6           0       23.985064   -0.789301   -0.608645
     88          6           0       24.017076    0.659020   -1.242894
     89          6           0       25.394279    1.177090   -0.883529
     90          6           0       23.756985    0.709525   -2.804989
     91          6           0       22.864341   -0.919471    0.512928
     92          6           0       23.220255   -0.890240    2.023087
     93          1           0       22.181913   -0.241953    3.013207
     94          7           0       28.139025    2.468134   -0.651399
     95          6           0       26.995309    3.106204   -0.860679
     96          6           0       27.265161    4.568043   -0.933979
     97          6           0       28.742760    4.699928   -0.790938
     98          6           0       29.179823    3.342669   -0.462682
     99          6           0       26.232215    5.598457   -1.302983
    100          6           0       29.520460    5.989072   -0.839251
    101          8           0       28.919742    7.030517   -1.091917
    102          6           0       31.055114    6.141413   -0.528189
    103          7           0       30.403456    0.704856    0.674363
    104          6           0       31.013271    1.810003    0.417658
    105          6           0       32.526710    1.638968    0.886044
    106          6           0       32.471510    0.250746    1.527110
    107          6           0       31.096786   -0.286064    1.177975
    108          6           0       33.653538    1.797376   -0.148332
    109          6           0       32.517012    0.280219    3.141969
    110          6           0       33.770702   -0.320113    3.804176
    111          7           0       28.475685   -1.428315    0.630301
    112          6           0       29.506781   -2.196025    1.103574
    113          6           0       29.088944   -3.616819    1.225265
    114          6           0       27.689506   -3.641706    0.965159
    115          6           0       27.429533   -2.279838    0.501847
    116          6           0       29.933149   -4.795374    1.759534
    117          6           0       26.489193   -4.407919    0.916265
    118          8           0       26.173622   -5.551252    1.287913
    119          6           0       25.406922   -3.493797    0.287539
    120          6           0       24.917265   -4.196297   -0.982124
    121          8           0       23.902285   -4.782310   -1.250512
    122          8           0       25.816547   -3.890347   -2.009355
    123          6           0       25.486433   -4.371959   -3.386643
    124          1           0       24.900501    3.058247   -1.303126
    125          1           0       31.186647    3.841562   -0.017131
    126          1           0       31.579972   -2.328485    1.569436
    127          1           0       23.789249   -1.495739   -1.415104
    128          1           0       23.230610    1.265016   -0.792834
    129          1           0       23.648640   -0.294314   -3.214313
    130          1           0       24.721971    1.057468   -3.171922
    131          1           0       22.912191    1.365694   -3.015236
    132          1           0       22.322792   -1.842772    0.306752
    133          1           0       22.117509   -0.140807    0.354263
    134          1           0       24.153212   -0.330804    2.092195
    135          1           0       23.259760   -1.876133    2.485267
    136          1           0       26.662730    6.564197   -1.566920
    137          1           0       25.502471    5.602771   -0.492451
    138          1           0       25.690689    5.133429   -2.127413
    139          1           0       31.796658    5.520292   -1.032018
    140          1           0       31.211775    5.884793    0.519530
    141          1           0       31.411581    7.154425   -0.712613
    142          1           0       32.807206    2.402106    1.611236
    143          1           0       33.241372   -0.478311    1.271959
    144          1           0       33.265691    2.046854   -1.136103
    145          1           0       34.292607    0.914579   -0.186859
    146          1           0       34.328367    2.625534    0.068164
    147          1           0       31.687306   -0.273790    3.578881
    148          1           0       32.412046    1.330412    3.415181
    149          1           0       33.607579   -0.802629    4.768170
    150          1           0       34.422756    0.530980    4.000366
    151          1           0       34.123280   -1.038165    3.063677
    152          1           0       30.854212   -4.510812    2.267172
    153          1           0       30.186189   -5.363111    0.864468
    154          1           0       29.284259   -5.431534    2.360978
    155          1           0       24.578122   -3.383578    0.986074
    156          1           0       24.917185   -5.295065   -3.493669
    157          1           0       26.465797   -4.589370   -3.812468
    158          1           0       25.039669   -3.669368   -4.090407
 ---------------------------------------------------------------------

 SCF Done:  E(RCAM-B3LYP) =  -4069.79295555     A.U. after   19 cycles

 Excitation energies and oscillator strengths:

 Excited State   1:      Singlet-A      1.7536 eV  707.03 nm  f=0.3650  <S**2>=0.000
     310 -> 316       -0.18836
     312 -> 314        0.68189
     310 <- 316       -0.10757
 This state for optimization and/or second-order correction.
 Total Energy, E(TD-HF/TD-DFT) =  -4069.72851238
 Copying the excited state density for this state as the 1-particle RhoCI density.

 Excited State   2:      Singlet-A      1.7690 eV  700.86 nm  f=0.4182  <S**2>=0.000
     309 -> 315        0.18507
     311 -> 313        0.68374
     309 <- 315        0.10631

 Excited State   3:      Singlet-A      2.2093 eV  561.19 nm  f=0.1089  <S**2>=0.000
     310 -> 314        0.64208
     312 -> 316        0.28089

 Excited State   4:      Singlet-A      2.2833 eV  542.99 nm  f=0.0990  <S**2>=0.000
     309 -> 313        0.63711
     311 -> 315       -0.29627

 Excited State   5:      Singlet-A      3.1828 eV  389.54 nm  f=0.0000  <S**2>=0.000
     312 -> 313        0.70711

 The electronic state is 1-A.
 Alpha  occ. eigenvalues --  -46.90073 -46.89800 -19.24601 -19.24251 -19.20417
 Alpha  occ. eigenvalues --  -19.19469 -19.19276 -19.18756 -19.18605 -19.17508
 Alpha  occ. eigenvalues --  -14.42658 -14.42320 -14.41866 -14.41845 -14.40440
 Alpha  occ. eigenvalues --  -14.40169 -14.39748 -14.39660 -10.39882 -10.38594
 Alpha  occ. eigenvalues --  -10.35693 -10.35611 -10.35050 -10.33283 -10.31886
 Alpha  occ. eigenvalues --  -10.31870 -10.31701 -10.31526 -10.31400 -10.31128
 Alpha  occ. eigenvalues --  -10.31084 -10.31031 -10.30881 -10.30775 -10.30771
 Alpha  occ. eigenvalues --  -10.30734 -10.30184 -10.30180 -10.30112 -10.30105
 Alpha  occ. eigenvalues --  -10.29871 -10.29837 -10.29407 -10.29343 -10.28972
 Alpha  occ. eigenvalues --  -10.28808 -10.28800 -10.28759 -10.28759 -10.28360
 Alpha  occ. eigenvalues --  -10.28087 -10.28042 -10.28023 -10.27971 -10.27965
 Alpha  occ. eigenvalues --  -10.27963 -10.27933 -10.27915 -10.27825 -10.27673
 Alpha  occ. eigenvalues --  -10.27629 -10.27566 -10.27389 -10.27378 -10.27319
 Alpha  occ. eigenvalues --  -10.27251 -10.27211 -10.27187 -10.27119 -10.27094
 Alpha  occ. eigenvalues --  -10.27009 -10.26839 -10.26588 -10.26583 -10.26574
 Alpha  occ. eigenvalues --  -10.26383 -10.26348 -10.26339 -10.26313 -10.26183
 Alpha  occ. eigenvalues --  -10.25986 -10.25955 -10.25855 -10.25794 -10.25384
 Alpha  occ. eigenvalues --  -10.23880  -3.18551  -3.18136  -1.93439  -1.93051
 Alpha  occ. eigenvalues --   -1.93005  -1.92854  -1.92627  -1.92393  -1.16061
 Alpha  occ. eigenvalues --   -1.14337  -1.09575  -1.09333  -1.09230  -1.08447
 Alpha  occ. eigenvalues --   -1.07282  -1.06750  -1.06294  -1.06093  -1.04829
 Alpha  occ. eigenvalues --   -1.04017  -1.03681  -1.03308  -1.03015  -1.01685
 Alpha  occ. eigenvalues --   -0.93589  -0.92264  -0.89813  -0.89731  -0.88830
 Alpha  occ. eigenvalues --   -0.88619  -0.88307  -0.88267  -0.87809  -0.87236
 Alpha  occ. eigenvalues --   -0.86908  -0.86774  -0.85460  -0.85416  -0.84897
 Alpha  occ. eigenvalues --   -0.84304  -0.83964  -0.83355  -0.82907  -0.82521
 Alpha  occ. eigenvalues --   -0.82207  -0.81799  -0.80814  -0.80657  -0.80552
 Alpha  occ. eigenvalues --   -0.80030  -0.78524  -0.78305  -0.77716  -0.77561
 Alpha  occ. eigenvalues --   -0.77035  -0.76696  -0.76426  -0.75712  -0.75376
 Alpha  occ. eigenvalues --   -0.74961  -0.73326  -0.72506  -0.72404  -0.71541
 Alpha  occ. eigenvalues --   -0.70449  -0.69572  -0.69273  -0.69020  -0.68699
 Alpha  occ. eigenvalues --   -0.67822  -0.67534  -0.66897  -0.66864  -0.65702
 Alpha  occ. eigenvalues --   -0.65519  -0.65298  -0.64888  -0.64881  -0.64626
 Alpha  occ. eigenvalues --   -0.64218  -0.63169  -0.61399  -0.60610  -0.60210
 Alpha  occ. eigenvalues --   -0.60207  -0.59485  -0.59472  -0.58588  -0.58559
 Alpha  occ. eigenvalues --   -0.58113  -0.58094  -0.57922  -0.57507  -0.57318
 Alpha  occ. eigenvalues --   -0.56378  -0.56263  -0.56004  -0.55882  -0.55701
 Alpha  occ. eigenvalues --   -0.55253  -0.55080  -0.54932  -0.54536  -0.53954
 Alpha  occ. eigenvalues --   -0.53618  -0.53576  -0.53222  -0.53016  -0.52998
 Alpha  occ. eigenvalues --   -0.52831  -0.52821  -0.52609  -0.52025  -0.52005
 Alpha  occ. eigenvalues --   -0.51773  -0.51542  -0.51534  -0.51271  -0.51254
 Alpha  occ. eigenvalues --   -0.51118  -0.50790  -0.50625  -0.50437  -0.50022
 Alpha  occ. eigenvalues --   -0.49832  -0.49806  -0.49495  -0.49492  -0.49230
 Alpha  occ. eigenvalues --   -0.49196  -0.49034  -0.48936  -0.48882  -0.48844
 Alpha  occ. eigenvalues --   -0.48561  -0.48554  -0.48522  -0.48299  -0.47962
 Alpha  occ. eigenvalues --   -0.47910  -0.47907  -0.47640  -0.47489  -0.47442
 Alpha  occ. eigenvalues --   -0.47296  -0.47243  -0.46940  -0.46718  -0.46653
 Alpha  occ. eigenvalues --   -0.46592  -0.46496  -0.46285  -0.46144  -0.46093
 Alpha  occ. eigenvalues --   -0.45907  -0.45803  -0.45535  -0.45468  -0.45365
 Alpha  occ. eigenvalues --   -0.44911  -0.44876  -0.44578  -0.44215  -0.44205
 Alpha  occ. eigenvalues --   -0.43924  -0.43762  -0.43728  -0.43587  -0.43426
 Alpha  occ. eigenvalues --   -0.43301  -0.43184  -0.43131  -0.42705  -0.42685
 Alpha  occ. eigenvalues --   -0.42458  -0.42346  -0.42259  -0.42080  -0.42017
 Alpha  occ. eigenvalues --   -0.41845  -0.41805  -0.41563  -0.41471  -0.41356
 Alpha  occ. eigenvalues --   -0.41255  -0.41238  -0.41124  -0.40928  -0.40690
 Alpha  occ. eigenvalues --   -0.40571  -0.40100  -0.39976  -0.39759  -0.39243
 Alpha  occ. eigenvalues --   -0.39099  -0.38859  -0.38214  -0.37664  -0.36923
 Alpha  occ. eigenvalues --   -0.36900  -0.36668  -0.36611  -0.36346  -0.36325
 Alpha  occ. eigenvalues --   -0.36079  -0.35476  -0.35018  -0.34270  -0.33916
 Alpha  occ. eigenvalues --   -0.33653  -0.33651  -0.33028  -0.31915  -0.31418
 Alpha  occ. eigenvalues --   -0.31297  -0.31188  -0.31052  -0.30971  -0.30310
 Alpha  occ. eigenvalues --   -0.29945  -0.29539  -0.29275  -0.24498  -0.23772
 Alpha  occ. eigenvalues --   -0.21538  -0.21226
 Alpha virt. eigenvalues --   -0.08918  -0.08523  -0.02037  -0.01766  -0.00623
 Alpha virt. eigenvalues --    0.00160   0.01181   0.01863   0.02342   0.02601
 Alpha virt. eigenvalues --    0.04302   0.04965   0.05028   0.05435   0.05557

 Mulliken charges:
               1
     1  Mg  12.000102
     2  C    5.987195
     3  C    6.024929
     4  C    6.007674
     5  C    5.979891
     6  N    6.998510
     7  C    6.023325
     8  C    5.992924
     9  C    6.017662
    10  C    5.960721
    11  C    5.999533
    12  C    5.998673
    13  C    5.997864
    14  H    1.005030
    15  N    7.018942
    16  C    5.950860
    17  C    5.984175
    18  C    5.983845
    19  C    5.964654
    20  C    6.002665
    21  C    5.988068
    22  O    7.971656
    23  C    6.004659
    24  N    6.991062
    25  C    5.969597
    26  C    6.008037
    27  C    5.990925
    28  C    6.039260
    29  C    6.004814
    30  C    5.995576
    31  C    5.995926
    32  N    6.995885
    33  C    6.049413
    34  C    6.025439
    35  C    6.002795
    36  C    6.029999
    37  C    5.997069
    38  C    6.014024
    39  O    8.030421
    40  C    6.001071
    41  C    6.005145
    42  O    8.008441
    43  O    7.999468
    44  C    5.996731
    45  H    0.996599
    46  H    0.992992
    47  H    1.008062
    48  H    0.996715
    49  H    0.995007
    50  H    0.997423
    51  H    0.988891
    52  H    1.003321
    53  H    1.008626
    54  H    0.993807
    55  H    1.004133
    56  H    0.994869
    57  H    0.982115
    58  H    0.982043
    59  H    0.984955
    60  H    0.992979
    61  H    0.992966
    62  H    0.985381
    63  H    0.998493
    64  H    1.001605
    65  H    1.000129
    66  H    0.988099
    67  H    1.003611
    68  H    1.009657
    69  H    0.996632
    70  H    1.012021
    71  H    1.005012
    72  H    0.991254
    73  H    1.019236
    74  H    1.019284
    75  H    1.018735
    76  H    1.007937
    77  H    1.000993
    78  H    1.006455
    79  H    1.005305
    80  Mg  12.000053
    81  C    6.000352
    82  C    5.999747
    83  C    5.999567
    84  C    6.000226
    85  N    7.000002
    86  C    5.999490
    87  C    6.000155
    88  C    5.999884
    89  C    6.000319
    90  C    5.999977
    91  C    5.999976
    92  C    6.000143
    93  H    0.999841
    94  N    6.999896
    95  C    6.000544
    96  C    6.000440
    97  C    6.000006
    98  C    6.000645
    99  C    5.999938
   100  C    6.000144
   101  O    8.000245
   102  C    5.999955
   103  N    7.000047
   104  C    6.000405
   105  C    5.999887
   106  C    6.000053
   107  C    5.999630
   108  C    5.999995
   109  C    6.000096
   110  C    5.999997
   111  N    7.000015
   112  C    5.999560
   113  C    5.999620
   114  C    5.999913
   115  C    5.999594
   116  C    6.000047
   117  C    5.999768
   118  O    7.999572
   119  C    5.999998
   120  C    5.999980
   121  O    7.999858
   122  O    8.000050
   123  C    6.000053
   124  H    1.000110
   125  H    1.000152
   126  H    0.999929
   127  H    0.999968
   128  H    1.000022
   129  H    1.000160
   130  H    0.999952
   131  H    1.000020
   132  H    0.999992
   133  H    0.999873
   134  H    0.999970
   135  H    1.000037
   136  H    1.000223
   137  H    1.000282
   138  H    1.000276
   139  H    1.000145
   140  H    1.000123
   141  H    1.000172
   142  H    1.000020
   143  H    1.000008
   144  H    0.999960
   145  H    1.000131
   146  H    1.000020
   147  H    1.000035
   148  H    0.999833
   149  H    0.999993
   150  H    0.999936
   151  H    1.000014
   152  H    0.999760
   153  H    0.999757
   154  H    0.999795
   155  H    0.999854
   156  H    0.999935
   157  H    0.999978
   158  H    0.999878
 Sum of Mulliken charges = 624.00000

 Dipole moment (field-independent basis, Debye):
    X=              4.0257    Y=             -9.4849    Z=              1.8961  Tot=             10.4769
 Quadrupole moment (field-independent basis, Debye-Ang):
   XX=           -226.1664   YY=             -8.5352   ZZ=              2.8982
   XY=            277.1920   XZ=            -54.8006   YZ=             -2.4874

 Normal termination of Gaussian 16 at Wed Sep 22 07:57:46 2021.
