 Gaussian 16, Revision A.03,
 Gaussian 16:  ES64L-G16RevA.03 25-Dec-2016

 ----------------------------------------------------------
 #p cam-b3lyp/Def2SVP td=(nstates=5) density=(transition=1)
 ----------------------------------------------------------

 --------------------------------
 TDDFT excited states in gaussian
 --------------------------------
 Symbolic Z-matrix:
 Charge =  0 Multiplicity = 1

                         Standard orientation:
 ---------------------------------------------------------------------
 Center     Atomic      Atomic             Coordinates (Angstroms)
 Number     Number       Type             X           Y           Z
 ---------------------------------------------------------------------
      1         12           0      -27.580618   -0.442623   -0.297668
      2          6           0      -25.679330    2.364010   -0.855995
      3          6           0      -29.012587    1.215235    2.506008
      4          6           0      -29.111328   -3.286060    0.703065
      5          6           0      -25.989225   -2.113455   -2.732093
      6          7           0      -27.357294    1.570975    0.708164
      7          6           0      -26.487416    2.534214    0.272452
      8          6           0      -26.643375    3.823205    1.082464
      9          6           0      -27.585751    3.315797    2.269404
     10          6           0      -28.016642    1.952121    1.814559
     11          6           0      -26.916569    3.370272    3.691700
     12          6           0      -27.297011    5.023930    0.257358
     13          6           0      -26.776984    6.439468    0.329555
     14          1           0      -26.489027    7.020257    1.668333
     15          7           0      -28.941565   -0.987398    1.353703
     16          6           0      -29.522717   -0.154037    2.244469
     17          6           0      -30.538499   -0.816443    2.992036
     18          6           0      -30.618023   -2.143123    2.462662
     19          6           0      -29.471324   -2.188215    1.506950
     20          6           0      -31.215651   -0.071286    4.096674
     21          6           0      -31.479941   -3.303706    2.929647
     22          8           0      -31.263555   -4.469361    2.583950
     23          6           0      -32.645724   -3.060190    3.871920
     24          7           0      -27.446241   -2.499407   -0.833919
     25          6           0      -28.283413   -3.455318   -0.351843
     26          6           0      -28.144631   -4.748650   -1.153129
     27          6           0      -27.258075   -4.289579   -2.372575
     28          6           0      -26.873726   -2.879261   -1.970781
     29          6           0      -27.682137   -6.072722   -0.476277
     30          6           0      -27.904221   -4.421838   -3.814591
     31          6           0      -28.643792   -3.254711   -4.433620
     32          7           0      -26.079812   -0.047092   -1.478212
     33          6           0      -25.577820   -0.737379   -2.552170
     34          6           0      -24.524269   -0.059476   -3.215272
     35          6           0      -24.553402    1.196264   -2.616825
     36          6           0      -25.528284    1.158565   -1.586886
     37          6           0      -23.614273   -0.430787   -4.378876
     38          6           0      -23.980451    2.470159   -2.584395
     39          8           0      -23.054783    2.896263   -3.250220
     40          6           0      -24.662178    3.353463   -1.395379
     41          6           0      -23.610877    3.725311   -0.456578
     42          8           0      -22.954020    2.939756    0.255057
     43          8           0      -23.344229    5.058191   -0.443165
     44          6           0      -22.115061    5.528452    0.205493
     45          1           0      -29.440858    1.851300    3.283001
     46          1           0      -29.793729   -4.130469    0.818570
     47          1           0      -25.726524   -2.476432   -3.727194
     48          1           0      -25.649720    4.172778    1.365625
     49          1           0      -28.458100    3.958913    2.386860
     50          1           0      -27.524213    4.023178    4.317326
     51          1           0      -25.892578    3.691040    3.499476
     52          1           0      -26.942436    2.437112    4.255230
     53          1           0      -28.319591    5.004082    0.634647
     54          1           0      -27.476324    4.734089   -0.777449
     55          1           0      -27.411725    7.099863   -0.261234
     56          1           0      -25.786675    6.405496   -0.123138
     57          1           0      -32.275254   -0.289973    3.969441
     58          1           0      -31.106151    1.005051    3.961670
     59          1           0      -30.900084   -0.318717    5.110804
     60          1           0      -33.238845   -2.178887    3.625981
     61          1           0      -32.308682   -3.159420    4.904654
     62          1           0      -33.311273   -3.905026    3.692157
     63          1           0      -29.176951   -4.987949   -1.409279
     64          1           0      -26.393654   -4.933210   -2.531334
     65          1           0      -26.677214   -6.334697   -0.807024
     66          1           0      -28.375731   -6.843372   -0.812204
     67          1           0      -27.739195   -5.890027    0.596225
     68          1           0      -28.598721   -5.259301   -3.763796
     69          1           0      -27.132441   -4.676414   -4.541337
     70          1           0      -29.639133   -3.540122   -4.774931
     71          1           0      -28.116265   -2.798780   -5.272495
     72          1           0      -28.718454   -2.518631   -3.633155
     73          1           0      -23.896055   -1.416795   -4.750305
     74          1           0      -22.577848   -0.416478   -4.040710
     75          1           0      -23.738789    0.313354   -5.165044
     76          1           0      -24.963926    4.234306   -1.962834
     77          1           0      -21.762431    6.493895   -0.157634
     78          1           0      -21.304093    4.802709    0.258683
     79          1           0      -22.420435    5.797198    1.216860
     80         12           0       26.944363   -0.886060    0.273163
     81          6           0       27.807912    2.457999   -0.348628
     82          6           0       26.691514   -0.285775    3.543826
     83          6           0       26.243880   -4.022243    0.656960
     84          6           0       28.242605   -1.566816   -3.034376
     85          7           0       27.333766    0.890778    1.427936
     86          6           0       27.499422    2.153004    1.013022
     87          6           0       27.656367    3.109776    2.166620
     88          6           0       27.706281    2.135200    3.410996
     89          6           0       27.205402    0.848177    2.784667
     90          6           0       29.064844    1.956215    4.163209
     91          6           0       26.369020    4.075935    2.279331
     92          6           0       26.737607    5.586523    2.446714
     93          1           0       25.441624    6.543344    2.243471
     94          7           0       26.299411   -1.911829    1.793368
     95          6           0       26.208575   -1.494311    3.110253
     96          6           0       25.472639   -2.481536    3.851095
     97          6           0       25.260572   -3.659307    3.023745
     98          6           0       25.839875   -3.213535    1.698964
     99          6           0       25.198521   -2.236751    5.362809
    100          6           0       24.621262   -5.029772    3.216164
    101          8           0       24.451936   -5.895424    2.338532
    102          6           0       24.082702   -5.220432    4.589816
    103          7           0       27.380032   -2.511747   -0.991556
    104          6           0       26.949452   -3.726640   -0.518399
    105          6           0       27.356164   -4.857329   -1.464075
    106          6           0       27.694324   -4.067096   -2.755424
    107          6           0       27.848449   -2.632686   -2.246095
    108          6           0       28.484354   -5.740252   -0.797157
    109          6           0       26.637940   -4.173917   -3.935769
    110          6           0       27.160636   -3.914834   -5.357833
    111          7           0       27.814694    0.190142   -1.404502
    112          6           0       28.261083   -0.235462   -2.618833
    113          6           0       28.633193    0.880305   -3.459604
    114          6           0       28.390069    1.963848   -2.595748
    115          6           0       27.957908    1.500825   -1.344726
    116          6           0       29.158744    0.954751   -4.911652
    117          6           0       28.425212    3.398493   -2.536318
    118          8           0       28.567312    4.257656   -3.366519
    119          6           0       28.197611    3.757503   -0.977165
    120          6           0       27.261546    4.879151   -1.090146
    121          8           0       26.013959    4.856989   -1.242080
    122          8           0       28.029103    5.979888   -1.012133
    123          6           0       27.381100    7.286539   -1.133826
    124          1           0       26.517765   -0.077678    4.601774
    125          1           0       25.939129   -5.066330    0.756254
    126          1           0       28.533129   -1.819383   -4.056266
    127          1           0       28.521327    3.770974    2.107174
    128          1           0       26.987739    2.336243    4.205815
    129          1           0       29.424016    0.947075    3.961461
    130          1           0       28.817767    2.060545    5.219553
    131          1           0       29.892649    2.618489    3.912200
    132          1           0       25.640171    3.810490    3.046022
    133          1           0       25.769101    3.883485    1.389789
    134          1           0       27.493797    5.878622    1.718339
    135          1           0       27.086578    5.872027    3.438797
    136          1           0       24.245800   -1.716162    5.449499
    137          1           0       25.835027   -1.469135    5.804664
    138          1           0       25.383824   -3.068748    6.041779
    139          1           0       23.300225   -4.517195    4.872725
    140          1           0       24.985477   -5.145900    5.197297
    141          1           0       23.693658   -6.222448    4.772869
    142          1           0       26.462036   -5.470781   -1.575815
    143          1           0       28.622204   -4.452302   -3.178121
    144          1           0       29.444170   -5.551066   -1.277679
    145          1           0       28.384114   -6.825003   -0.823573
    146          1           0       28.732109   -5.517185    0.240819
    147          1           0       25.978206   -3.328049   -3.740590
    148          1           0       26.047347   -5.087765   -4.003931
    149          1           0       26.732403   -3.011784   -5.794759
    150          1           0       27.027746   -4.681777   -6.121154
    151          1           0       28.213886   -3.666757   -5.234324
    152          1           0       29.634207   -0.007433   -5.102021
    153          1           0       29.870437    1.772826   -5.030392
    154          1           0       28.280898    1.065601   -5.548119
    155          1           0       29.127136    4.133828   -0.549641
    156          1           0       27.418258    7.781378   -0.163492
    157          1           0       26.393612    7.216837   -1.588774
    158          1           0       28.001443    7.914093   -1.773591
 ---------------------------------------------------------------------

 SCF Done:  E(RCAM-B3LYP) =  -4069.82603805     A.U. after   18 cycles

 Excitation energies and oscillator strengths:

 Excited State   1:      Singlet-A      1.7199 eV  720.87 nm  f=0.4114  <S**2>=0.000
     310 -> 316       -0.17811
     311 -> 313        0.68654
     310 <- 316       -0.10694
 This state for optimization and/or second-order correction.
 Total Energy, E(TD-HF/TD-DFT) =  -4069.76283200
 Copying the excited state density for this state as the 1-particle RhoCI density.

 Excited State   2:      Singlet-A      1.7272 eV  717.84 nm  f=0.3852  <S**2>=0.000
     309 -> 315       -0.19745
     312 -> 314        0.68094
     309 <- 315       -0.11062

 Excited State   3:      Singlet-A      2.1905 eV  566.01 nm  f=0.1749  <S**2>=0.000
     310 -> 313        0.66248
     311 -> 316        0.23743

 Excited State   4:      Singlet-A      2.2496 eV  551.13 nm  f=0.0628  <S**2>=0.000
     309 -> 314        0.61703
     312 -> 315        0.33569

 Excited State   5:      Singlet-A      3.0989 eV  400.09 nm  f=0.0000  <S**2>=0.000
     312 -> 313        0.70711

 The electronic state is 1-A.
 Alpha  occ. eigenvalues --  -46.89109 -46.87558 -19.25081 -19.24853 -19.19656
 Alpha  occ. eigenvalues --  -19.19023 -19.18875 -19.18600 -19.18535 -19.18414
 Alpha  occ. eigenvalues --  -14.42584 -14.42136 -14.41715 -14.41544 -14.39581
 Alpha  occ. eigenvalues --  -14.39503 -14.39444 -14.38392 -10.38945 -10.38555
 Alpha  occ. eigenvalues --  -10.35981 -10.35365 -10.34647 -10.34528 -10.31698
 Alpha  occ. eigenvalues --  -10.31629 -10.31178 -10.31076 -10.30991 -10.30878
 Alpha  occ. eigenvalues --  -10.30774 -10.30591 -10.30429 -10.30260 -10.30130
 Alpha  occ. eigenvalues --  -10.30101 -10.30075 -10.30053 -10.30027 -10.29884
 Alpha  occ. eigenvalues --  -10.29453 -10.29216 -10.29012 -10.28708 -10.28582
 Alpha  occ. eigenvalues --  -10.28528 -10.28458 -10.28360 -10.28355 -10.28276
 Alpha  occ. eigenvalues --  -10.28008 -10.28003 -10.27977 -10.27851 -10.27823
 Alpha  occ. eigenvalues --  -10.27729 -10.27722 -10.27699 -10.27684 -10.27665
 Alpha  occ. eigenvalues --  -10.27595 -10.27501 -10.27460 -10.27316 -10.27287
 Alpha  occ. eigenvalues --  -10.26915 -10.26869 -10.26791 -10.26635 -10.26608
 Alpha  occ. eigenvalues --  -10.26490 -10.26419 -10.26418 -10.26244 -10.26233
 Alpha  occ. eigenvalues --  -10.26181 -10.26068 -10.26048 -10.25860 -10.25807
 Alpha  occ. eigenvalues --  -10.25714 -10.25350 -10.25209 -10.25042 -10.24623
 Alpha  occ. eigenvalues --  -10.24426  -3.17718  -3.16401  -1.92601  -1.92134
 Alpha  occ. eigenvalues --   -1.92067  -1.91286  -1.90869  -1.90716  -1.15921
 Alpha  occ. eigenvalues --   -1.15864  -1.10760  -1.09893  -1.09461  -1.09377
 Alpha  occ. eigenvalues --   -1.05858  -1.05535  -1.05377  -1.05178  -1.04644
 Alpha  occ. eigenvalues --   -1.04289  -1.04157  -1.03578  -1.03482  -1.02398
 Alpha  occ. eigenvalues --   -0.92700  -0.92617  -0.89097  -0.89024  -0.88260
 Alpha  occ. eigenvalues --   -0.88248  -0.88204  -0.88033  -0.87785  -0.87434
 Alpha  occ. eigenvalues --   -0.87421  -0.86958  -0.86425  -0.86250  -0.84520
 Alpha  occ. eigenvalues --   -0.84288  -0.83813  -0.83769  -0.82686  -0.82465
 Alpha  occ. eigenvalues --   -0.82256  -0.81845  -0.81254  -0.81170  -0.80326
 Alpha  occ. eigenvalues --   -0.80288  -0.78393  -0.78205  -0.77482  -0.77306
 Alpha  occ. eigenvalues --   -0.77103  -0.76905  -0.76256  -0.75907  -0.75497
 Alpha  occ. eigenvalues --   -0.75390  -0.73546  -0.72774  -0.72119  -0.71550
 Alpha  occ. eigenvalues --   -0.69637  -0.69234  -0.69218  -0.68784  -0.68133
 Alpha  occ. eigenvalues --   -0.67902  -0.67203  -0.67133  -0.66039  -0.65639
 Alpha  occ. eigenvalues --   -0.65532  -0.65125  -0.64849  -0.64773  -0.64431
 Alpha  occ. eigenvalues --   -0.64214  -0.62248  -0.61755  -0.60223  -0.60183
 Alpha  occ. eigenvalues --   -0.59839  -0.59828  -0.59136  -0.59072  -0.58626
 Alpha  occ. eigenvalues --   -0.58299  -0.57963  -0.57916  -0.57296  -0.57142
 Alpha  occ. eigenvalues --   -0.56310  -0.56247  -0.55914  -0.55428  -0.55410
 Alpha  occ. eigenvalues --   -0.54985  -0.54882  -0.54352  -0.54079  -0.53907
 Alpha  occ. eigenvalues --   -0.53420  -0.53307  -0.53201  -0.53134  -0.52794
 Alpha  occ. eigenvalues --   -0.52763  -0.52599  -0.52543  -0.52227  -0.52210
 Alpha  occ. eigenvalues --   -0.52088  -0.51589  -0.51440  -0.51418  -0.51013
 Alpha  occ. eigenvalues --   -0.50761  -0.50716  -0.50570  -0.50375  -0.50276
 Alpha  occ. eigenvalues --   -0.50153  -0.50010  -0.49847  -0.49543  -0.49411
 Alpha  occ. eigenvalues --   -0.49235  -0.49097  -0.49039  -0.48913  -0.48801
 Alpha  occ. eigenvalues --   -0.48765  -0.48567  -0.48472  -0.48217  -0.48101
 Alpha  occ. eigenvalues --   -0.48009  -0.47828  -0.47551  -0.47407  -0.47248
 Alpha  occ. eigenvalues --   -0.47148  -0.46861  -0.46859  -0.46525  -0.46491
 Alpha  occ. eigenvalues --   -0.46333  -0.46171  -0.45963  -0.45895  -0.45892
 Alpha  occ. eigenvalues --   -0.45703  -0.45510  -0.45320  -0.45137  -0.44993
 Alpha  occ. eigenvalues --   -0.44873  -0.44490  -0.44022  -0.43946  -0.43930
 Alpha  occ. eigenvalues --   -0.43719  -0.43630  -0.43547  -0.43464  -0.43376
 Alpha  occ. eigenvalues --   -0.43216  -0.43084  -0.42968  -0.42862  -0.42848
 Alpha  occ. eigenvalues --   -0.42645  -0.42232  -0.42197  -0.42064  -0.41896
 Alpha  occ. eigenvalues --   -0.41885  -0.41830  -0.41523  -0.41332  -0.41323
 Alpha  occ. eigenvalues --   -0.41186  -0.41117  -0.40804  -0.40627  -0.40570
 Alpha  occ. eigenvalues --   -0.40307  -0.39993  -0.39839  -0.39584  -0.39527
 Alpha  occ. eigenvalues --   -0.38767  -0.38516  -0.38238  -0.37831  -0.37369
 Alpha  occ. eigenvalues --   -0.37346  -0.36986  -0.36612  -0.36033  -0.35675
 Alpha  occ. eigenvalues --   -0.35488  -0.35207  -0.34559  -0.33970  -0.33922
 Alpha  occ. eigenvalues --   -0.33444  -0.32959  -0.32886  -0.31713  -0.31339
 Alpha  occ. eigenvalues --   -0.31304  -0.31224  -0.30893  -0.30531  -0.30421
 Alpha  occ. eigenvalues --   -0.30320  -0.30097  -0.29595  -0.24173  -0.23838
 Alpha  occ. eigenvalues --   -0.21470  -0.21104
 Alpha virt. eigenvalues --   -0.09089  -0.08426  -0.02287  -0.01195  -0.00280
 Alpha virt. eigenvalues --    0.00223   0.01840   0.02417   0.02472   0.03161
 Alpha virt. eigenvalues --    0.04756   0.04802   0.05152   0.06120   0.06147

 Mulliken charges:
               1
     1  Mg  11.997842
     2  C    6.025486
     3  C    5.985699
     4  C    5.968733
     5  C    6.000765
     6  N    7.006115
     7  C    5.968166
     8  C    6.010471
     9  C    5.986037
    10  C    6.034483
    11  C    5.995546
    12  C    6.005184
    13  C    6.000242
    14  H    0.992615
    15  N    6.993256
    16  C    6.045037
    17  C    6.019072
    18  C    6.019994
    19  C    6.040372
    20  C    5.994046
    21  C    6.012220
    22  O    8.031988
    23  C    5.992385
    24  N    6.984500
    25  C    6.042093
    26  C    5.988678
    27  C    6.011086
    28  C    5.977906
    29  C    6.000258
    30  C    6.003082
    31  C    6.005134
    32  N    7.002954
    33  C    5.965347
    34  C    5.970073
    35  C    5.997367
    36  C    5.967917
    37  C    6.002849
    38  C    5.985764
    39  O    7.967902
    40  C    5.990253
    41  C    5.996980
    42  O    7.994358
    43  O    7.997634
    44  C    6.003729
    45  H    1.013187
    46  H    1.001309
    47  H    0.986585
    48  H    1.001910
    49  H    1.002712
    50  H    1.003607
    51  H    1.015293
    52  H    0.997514
    53  H    0.987427
    54  H    1.004787
    55  H    0.998160
    56  H    1.005924
    57  H    1.018120
    58  H    1.017809
    59  H    1.023487
    60  H    1.007201
    61  H    1.010559
    62  H    1.015498
    63  H    0.997213
    64  H    0.996996
    65  H    1.010388
    66  H    1.002493
    67  H    0.994275
    68  H    0.987718
    69  H    1.000966
    70  H    0.989785
    71  H    1.003282
    72  H    0.998904
    73  H    0.981884
    74  H    0.980804
    75  H    0.981751
    76  H    0.993668
    77  H    0.995645
    78  H    0.999020
    79  H    0.992503
    80  Mg  12.000037
    81  C    5.999953
    82  C    6.000138
    83  C    6.000051
    84  C    5.999826
    85  N    6.999959
    86  C    6.000202
    87  C    5.999936
    88  C    6.000059
    89  C    5.999720
    90  C    6.000027
    91  C    5.999959
    92  C    5.999979
    93  H    1.000062
    94  N    7.000051
    95  C    5.999685
    96  C    5.999871
    97  C    5.999817
    98  C    5.999872
    99  C    6.000045
   100  C    5.999892
   101  O    7.999772
   102  C    6.000055
   103  N    6.999967
   104  C    5.999823
   105  C    6.000040
   106  C    5.999941
   107  C    6.000244
   108  C    6.000056
   109  C    5.999967
   110  C    5.999996
   111  N    7.000005
   112  C    6.000338
   113  C    6.000193
   114  C    6.000076
   115  C    6.000196
   116  C    5.999987
   117  C    6.000085
   118  O    8.000233
   119  C    6.000025
   120  C    6.000007
   121  O    8.000082
   122  O    7.999994
   123  C    5.999977
   124  H    0.999929
   125  H    0.999965
   126  H    1.000066
   127  H    1.000000
   128  H    1.000015
   129  H    0.999992
   130  H    0.999969
   131  H    0.999873
   132  H    1.000111
   133  H    1.000000
   134  H    0.999958
   135  H    1.000023
   136  H    0.999871
   137  H    0.999836
   138  H    0.999849
   139  H    0.999952
   140  H    0.999933
   141  H    0.999879
   142  H    1.000030
   143  H    1.000016
   144  H    0.999884
   145  H    0.999966
   146  H    1.000021
   147  H    1.000032
   148  H    1.000107
   149  H    0.999996
   150  H    1.000049
   151  H    0.999956
   152  H    1.000114
   153  H    1.000102
   154  H    1.000168
   155  H    1.000036
   156  H    1.000038
   157  H    1.000046
   158  H    1.000012
 Sum of Mulliken charges = 624.00000

 Dipole moment (field-independent basis, Debye):
    X=             -7.7648    Y=             -2.2757    Z=              7.7894  Tot=             11.2314
 Quadrupole moment (field-independent basis, Debye-Ang):
   XX=            429.7559   YY=              0.3774   ZZ=             -1.0005
   XY=             67.4640   XZ=           -218.9082   YZ=             -4.5870

 Normal termination of Gaussian 16 at Thu Sep 23 14:23:06 2021.
