 Gaussian 16, Revision A.03,
 Gaussian 16:  ES64L-G16RevA.03 25-Dec-2016

 -----------------------------------
 #p cam-b3lyp/Def2SVP td=(nstates=5)
 -----------------------------------

 --------------------------------
 TDDFT excited states in gaussian
 --------------------------------
 Symbolic Z-matrix:
 Charge =  0 Multiplicity = 1

                         Standard orientation:
 ---------------------------------------------------------------------
 Center     Atomic      Atomic             Coordinates (Angstroms)
 Number     Number       Type             X           Y           Z
 ---------------------------------------------------------------------
      1         12           0       12.635975    0.307499    0.507459
      2          6           0        9.410506   -0.608676   -0.454362
      3          6           0       13.019032    1.972246   -2.348895
      4          6           0       16.014009   -0.022487    0.913779
      5          6           0       12.204911   -1.490422    3.460073
      6          7           0       11.277958    0.784264   -1.154140
      7          6           0       10.042960    0.322213   -1.307366
      8          6           0        9.393919    1.008065   -2.563590
      9          6           0       10.604291    1.731745   -3.200781
     10          6           0       11.728817    1.476831   -2.201605
     11          6           0       11.081869    1.099996   -4.601262
     12          6           0        8.199741    2.018327   -2.246352
     13          6           0        7.074213    1.885789   -3.214096
     14          1           0        6.532538    3.126119   -3.907934
     15          7           0       14.273993    0.921570   -0.568182
     16          6           0       14.228508    1.632277   -1.738235
     17          6           0       15.569818    2.164897   -2.015260
     18          6           0       16.435842    1.573137   -1.053834
     19          6           0       15.564440    0.737681   -0.210938
     20          6           0       15.888814    3.081772   -3.239033
     21          6           0       17.985339    1.691045   -0.935675
     22          8           0       18.652732    1.145070   -0.064268
     23          6           0       18.694758    2.537928   -1.923484
     24          7           0       13.897076   -0.614650    1.903344
     25          6           0       15.292227   -0.695346    1.861289
     26          6           0       15.788805   -1.670367    2.960682
     27          6           0       14.646518   -1.570375    4.064318
     28          6           0       13.524265   -1.184965    3.059270
     29          6           0       16.099033   -3.084850    2.425573
     30          6           0       14.809181   -0.522866    5.128862
     31          6           0       14.500043    0.918310    4.851265
     32          7           0       11.099762   -0.664446    1.487768
     33          6           0       11.060006   -1.385899    2.658482
     34          6           0        9.731392   -1.948015    2.911784
     35          6           0        9.036544   -1.754561    1.634031
     36          6           0        9.945619   -0.973404    0.819376
     37          6           0        9.335021   -2.739722    4.050262
     38          6           0        7.822406   -2.030429    0.875692
     39          8           0        6.871875   -2.678628    1.107985
     40          6           0        8.000137   -1.210033   -0.506153
     41          6           0        7.683558   -2.006335   -1.746814
     42          8           0        8.499165   -2.643439   -2.406781
     43          8           0        6.339451   -1.815228   -2.065411
     44          6           0        5.822635   -2.484667   -3.272828
     45          1           0       13.267748    2.700044   -3.124542
     46          1           0       17.102043   -0.101624    0.969716
     47          1           0       12.109441   -1.954167    4.443715
     48          1           0        9.045068    0.279149   -3.295511
     49          1           0       10.471711    2.790252   -3.424505
     50          1           0       10.559540    1.647336   -5.386185
     51          1           0       10.809181    0.056931   -4.759668
     52          1           0       12.155012    1.270469   -4.694955
     53          1           0        8.530350    3.056599   -2.278996
     54          1           0        7.771431    1.940854   -1.246928
     55          1           0        6.248819    1.554795   -2.584396
     56          1           0        7.169921    1.149777   -4.011868
     57          1           0       16.159064    2.405534   -4.049576
     58          1           0       16.653974    3.820538   -2.999371
     59          1           0       15.007934    3.529083   -3.700764
     60          1           0       18.421721    2.537512   -2.978616
     61          1           0       19.759281    2.305551   -1.906816
     62          1           0       18.792311    3.547463   -1.523184
     63          1           0       16.689471   -1.186134    3.336975
     64          1           0       14.475621   -2.520228    4.570636
     65          1           0       15.604739   -3.916429    2.927855
     66          1           0       17.161455   -3.267144    2.262374
     67          1           0       15.741681   -3.178437    1.400229
     68          1           0       15.810231   -0.469638    5.555133
     69          1           0       14.174230   -0.806021    5.968487
     70          1           0       13.474930    1.006108    5.210731
     71          1           0       14.490930    1.210349    3.800926
     72          1           0       15.181966    1.548466    5.423129
     73          1           0        8.297643   -2.470497    4.249750
     74          1           0        9.953702   -2.424453    4.890099
     75          1           0        9.406360   -3.800995    3.814172
     76          1           0        7.295853   -0.378780   -0.472600
     77          1           0        6.081343   -3.540176   -3.184503
     78          1           0        6.313397   -2.103419   -4.167934
     79          1           0        4.760063   -2.424745   -3.508886
     80         12           0      -12.214725   -0.412217   -0.506797
     81          6           0      -11.922564    2.881711    0.725704
     82          6           0       -8.811167   -0.367423   -1.269341
     83          6           0      -12.335960   -3.812659   -0.698309
     84          6           0      -15.535967   -0.399413    0.834487
     85          7           0      -10.619559    1.081617   -0.321267
     86          6           0      -10.719569    2.313444    0.221799
     87          6           0       -9.319798    3.004224    0.309244
     88          6           0       -8.480234    2.070130   -0.678333
     89          6           0       -9.376933    0.797986   -0.822115
     90          6           0       -8.137939    2.537065   -2.111343
     91          6           0       -8.830008    2.975513    1.806411
     92          6           0       -8.034226    4.238895    2.236845
     93          1           0       -6.777855    3.972492    3.162163
     94          7           0      -10.793979   -1.917558   -1.136409
     95          6           0       -9.487425   -1.638766   -1.438404
     96          6           0       -8.901050   -2.854652   -1.857911
     97          6           0       -9.835456   -3.913696   -1.656807
     98          6           0      -11.095814   -3.247124   -1.186583
     99          6           0       -7.479098   -3.007832   -2.343750
    100          6           0       -9.561086   -5.376606   -1.739599
    101          8           0       -8.438325   -5.812575   -1.937299
    102          6           0      -10.541154   -6.410929   -1.533519
    103          7           0      -13.738140   -1.899319    0.122147
    104          6           0      -13.560164   -3.240467   -0.248364
    105          6           0      -14.819278   -4.018985   -0.027375
    106          6           0      -15.847975   -2.965677    0.527839
    107          6           0      -15.033257   -1.683854    0.508090
    108          6           0      -15.237494   -4.677146   -1.348428
    109          6           0      -16.575116   -3.424056    1.847762
    110          6           0      -18.072748   -3.469308    1.815448
    111          7           0      -13.548766    0.964569    0.551299
    112          6           0      -14.852722    0.813802    0.954915
    113          6           0      -15.396436    2.102928    1.435814
    114          6           0      -14.219423    2.897013    1.405377
    115          6           0      -13.191637    2.201081    0.797058
    116          6           0      -16.767895    2.421413    2.010312
    117          6           0      -13.694795    4.163693    1.841792
    118          8           0      -14.247350    5.080834    2.469003
    119          6           0      -12.225638    4.259801    1.431296
    120          6           0      -11.978305    5.455951    0.604762
    121          8           0      -11.212016    6.293866    0.916667
    122          8           0      -12.562566    5.400446   -0.627529
    123          6           0      -12.065529    6.492630   -1.492166
    124          1           0       -7.767497   -0.363427   -1.592006
    125          1           0      -12.331896   -4.889792   -0.872492
    126          1           0      -16.496160   -0.215956    1.322300
    127          1           0       -9.426282    4.029048   -0.046849
    128          1           0       -7.634357    1.554506   -0.223955
    129          1           0       -8.872829    3.263897   -2.459267
    130          1           0       -8.036254    1.755821   -2.864683
    131          1           0       -7.186631    3.061605   -2.028648
    132          1           0       -8.253549    2.072170    2.007843
    133          1           0       -9.747378    2.904906    2.390911
    134          1           0       -8.777812    4.833514    2.767805
    135          1           0       -7.818685    4.720463    1.282788
    136          1           0       -7.270812   -3.880894   -2.962332
    137          1           0       -6.901163   -3.050252   -1.420949
    138          1           0       -7.007308   -2.118024   -2.760638
    139          1           0      -11.304986   -6.276564   -2.300492
    140          1           0      -10.945052   -6.375575   -0.521323
    141          1           0      -10.053262   -7.377527   -1.659361
    142          1           0      -14.696168   -4.721276    0.796736
    143          1           0      -16.603768   -2.586317   -0.160237
    144          1           0      -14.445291   -4.681482   -2.097484
    145          1           0      -16.073999   -4.154771   -1.812632
    146          1           0      -15.343843   -5.751447   -1.200825
    147          1           0      -16.230264   -2.720461    2.605486
    148          1           0      -16.376191   -4.458407    2.125817
    149          1           0      -18.428895   -2.857041    2.643497
    150          1           0      -18.452513   -4.475965    1.991134
    151          1           0      -18.489576   -3.213610    0.841247
    152          1           0      -16.851085    2.167184    3.067175
    153          1           0      -17.586655    1.984286    1.437391
    154          1           0      -16.754389    3.510750    1.977017
    155          1           0      -11.612048    4.452509    2.310397
    156          1           0      -12.561833    6.400573   -2.458597
    157          1           0      -10.983345    6.431657   -1.606494
    158          1           0      -12.370120    7.489752   -1.176126
 ---------------------------------------------------------------------

 SCF Done:  E(RCAM-B3LYP) =  -4069.79318316     A.U. after   19 cycles

 Excitation energies and oscillator strengths:

 Excited State   1:      Singlet-A      1.6783 eV  738.76 nm  f=0.5494  <S**2>=0.000
     309 -> 315        0.13216
     310 -> 316       -0.11315
     311 -> 313        0.52691
     312 -> 314        0.44073
 This state for optimization and/or second-order correction.
 Total Energy, E(TD-HF/TD-DFT) =  -4069.73150787
 Copying the excited state density for this state as the 1-particle RhoCI density.

 Excited State   2:      Singlet-A      1.6833 eV  736.55 nm  f=0.2440  <S**2>=0.000
     309 -> 315       -0.11137
     310 -> 316       -0.13609
     311 -> 313       -0.44088
     312 -> 314        0.52640

 Excited State   3:      Singlet-A      2.2017 eV  563.12 nm  f=0.1148  <S**2>=0.000
     309 -> 313        0.64199
     311 -> 315       -0.28116

 Excited State   4:      Singlet-A      2.2560 eV  549.57 nm  f=0.1052  <S**2>=0.000
     310 -> 314        0.63265
     312 -> 316        0.30602

 Excited State   5:      Singlet-A      2.7179 eV  456.17 nm  f=0.0000  <S**2>=0.000
     312 -> 313        0.70706

 The electronic state is 1-A.
 Alpha  occ. eigenvalues --  -46.90827 -46.87888 -19.25116 -19.24979 -19.20060
 Alpha  occ. eigenvalues --  -19.19919 -19.19648 -19.19155 -19.18838 -19.17301
 Alpha  occ. eigenvalues --  -14.42965 -14.42692 -14.42162 -14.41392 -14.39895
 Alpha  occ. eigenvalues --  -14.39291 -14.39252 -14.39195 -10.39652 -10.38731
 Alpha  occ. eigenvalues --  -10.35620 -10.35484 -10.34767 -10.33485 -10.32233
 Alpha  occ. eigenvalues --  -10.31973 -10.31851 -10.31830 -10.31754 -10.31303
 Alpha  occ. eigenvalues --  -10.31054 -10.30980 -10.30559 -10.30556 -10.30172
 Alpha  occ. eigenvalues --  -10.29970 -10.29852 -10.29849 -10.29718 -10.29444
 Alpha  occ. eigenvalues --  -10.29355 -10.29297 -10.29073 -10.29024 -10.28900
 Alpha  occ. eigenvalues --  -10.28759 -10.28749 -10.28632 -10.28500 -10.28451
 Alpha  occ. eigenvalues --  -10.28415 -10.28344 -10.28278 -10.28264 -10.28186
 Alpha  occ. eigenvalues --  -10.28159 -10.28140 -10.27881 -10.27736 -10.27637
 Alpha  occ. eigenvalues --  -10.27530 -10.27529 -10.27511 -10.27470 -10.27048
 Alpha  occ. eigenvalues --  -10.27035 -10.26959 -10.26865 -10.26795 -10.26673
 Alpha  occ. eigenvalues --  -10.26648 -10.26509 -10.26390 -10.26090 -10.26047
 Alpha  occ. eigenvalues --  -10.26020 -10.25905 -10.25788 -10.25743 -10.25537
 Alpha  occ. eigenvalues --  -10.25509 -10.25440 -10.25344 -10.25270 -10.25240
 Alpha  occ. eigenvalues --  -10.24518  -3.18974  -3.16591  -1.93888  -1.93410
 Alpha  occ. eigenvalues --   -1.93270  -1.91495  -1.91022  -1.90918  -1.17975
 Alpha  occ. eigenvalues --   -1.15114  -1.12906  -1.10132  -1.09532  -1.09043
 Alpha  occ. eigenvalues --   -1.08950  -1.07412  -1.05150  -1.05105  -1.03741
 Alpha  occ. eigenvalues --   -1.03548  -1.03426  -1.02838  -1.02526  -1.02105
 Alpha  occ. eigenvalues --   -0.92622  -0.91836  -0.89415  -0.89011  -0.89001
 Alpha  occ. eigenvalues --   -0.88606  -0.88228  -0.88052  -0.87989  -0.87149
 Alpha  occ. eigenvalues --   -0.87007  -0.86867  -0.86276  -0.85811  -0.84871
 Alpha  occ. eigenvalues --   -0.84648  -0.84150  -0.83564  -0.82706  -0.82510
 Alpha  occ. eigenvalues --   -0.82501  -0.81839  -0.80965  -0.80921  -0.80546
 Alpha  occ. eigenvalues --   -0.80331  -0.78652  -0.78214  -0.77609  -0.77239
 Alpha  occ. eigenvalues --   -0.76862  -0.76701  -0.76490  -0.75816  -0.75423
 Alpha  occ. eigenvalues --   -0.74834  -0.73137  -0.72511  -0.72214  -0.71437
 Alpha  occ. eigenvalues --   -0.69367  -0.69258  -0.69196  -0.68464  -0.67950
 Alpha  occ. eigenvalues --   -0.67724  -0.66888  -0.66730  -0.66344  -0.65705
 Alpha  occ. eigenvalues --   -0.65677  -0.64989  -0.64641  -0.64583  -0.64204
 Alpha  occ. eigenvalues --   -0.64066  -0.63311  -0.61766  -0.60118  -0.60073
 Alpha  occ. eigenvalues --   -0.60015  -0.59563  -0.58986  -0.58880  -0.58842
 Alpha  occ. eigenvalues --   -0.58303  -0.58071  -0.57732  -0.57197  -0.57073
 Alpha  occ. eigenvalues --   -0.56505  -0.56077  -0.55775  -0.55546  -0.55491
 Alpha  occ. eigenvalues --   -0.55315  -0.55132  -0.54805  -0.54551  -0.54060
 Alpha  occ. eigenvalues --   -0.53533  -0.53502  -0.53376  -0.53348  -0.53190
 Alpha  occ. eigenvalues --   -0.52932  -0.52817  -0.52641  -0.52483  -0.52257
 Alpha  occ. eigenvalues --   -0.52136  -0.51749  -0.51745  -0.51592  -0.51465
 Alpha  occ. eigenvalues --   -0.51350  -0.51327  -0.51203  -0.50883  -0.50378
 Alpha  occ. eigenvalues --   -0.50142  -0.50038  -0.50038  -0.49850  -0.49581
 Alpha  occ. eigenvalues --   -0.49559  -0.49496  -0.49257  -0.49117  -0.49033
 Alpha  occ. eigenvalues --   -0.48613  -0.48577  -0.48388  -0.48285  -0.48204
 Alpha  occ. eigenvalues --   -0.47958  -0.47769  -0.47521  -0.47321  -0.46956
 Alpha  occ. eigenvalues --   -0.46933  -0.46785  -0.46757  -0.46672  -0.46566
 Alpha  occ. eigenvalues --   -0.46349  -0.46327  -0.46250  -0.46064  -0.45751
 Alpha  occ. eigenvalues --   -0.45715  -0.45474  -0.45159  -0.45128  -0.45084
 Alpha  occ. eigenvalues --   -0.44921  -0.44847  -0.44674  -0.44603  -0.44357
 Alpha  occ. eigenvalues --   -0.44345  -0.44133  -0.44006  -0.43698  -0.43583
 Alpha  occ. eigenvalues --   -0.43319  -0.43296  -0.43219  -0.42997  -0.42876
 Alpha  occ. eigenvalues --   -0.42772  -0.42637  -0.42635  -0.42293  -0.41854
 Alpha  occ. eigenvalues --   -0.41774  -0.41539  -0.41495  -0.41340  -0.41260
 Alpha  occ. eigenvalues --   -0.41152  -0.41018  -0.40783  -0.40468  -0.40205
 Alpha  occ. eigenvalues --   -0.40127  -0.39625  -0.39226  -0.39101  -0.38667
 Alpha  occ. eigenvalues --   -0.38637  -0.38037  -0.37889  -0.37647  -0.37638
 Alpha  occ. eigenvalues --   -0.37229  -0.36951  -0.36880  -0.36548  -0.36502
 Alpha  occ. eigenvalues --   -0.36393  -0.35883  -0.34921  -0.34424  -0.34253
 Alpha  occ. eigenvalues --   -0.34125  -0.33483  -0.32776  -0.31484  -0.31380
 Alpha  occ. eigenvalues --   -0.31184  -0.30981  -0.30968  -0.30383  -0.29994
 Alpha  occ. eigenvalues --   -0.29989  -0.29523  -0.29185  -0.24500  -0.23953
 Alpha  occ. eigenvalues --   -0.21564  -0.20748
 Alpha virt. eigenvalues --   -0.09374  -0.08432  -0.02243  -0.01350   0.00294
 Alpha virt. eigenvalues --    0.00433   0.01218   0.02442   0.02451   0.02820
 Alpha virt. eigenvalues --    0.04602   0.04704   0.05458   0.05605   0.06089

 Mulliken charges:
               1
     1  Mg   0.845293
     2  C    0.027407
     3  C   -0.076845
     4  C   -0.074877
     5  C   -0.103094
     6  N   -0.243925
     7  C   -0.032133
     8  C    0.000715
     9  C   -0.076706
    10  C    0.082338
    11  C    0.038862
    12  C    0.070149
    13  C   -0.093296
    14  H    0.009456
    15  N   -0.370791
    16  C    0.094343
    17  C   -0.139793
    18  C   -0.062005
    19  C    0.101643
    20  C    0.093665
    21  C    0.039014
    22  O   -0.200744
    23  C    0.041907
    24  N   -0.293917
    25  C    0.034446
    26  C    0.001866
    27  C   -0.010284
    28  C    0.025401
    29  C    0.092682
    30  C    0.017572
    31  C    0.022117
    32  N   -0.363058
    33  C    0.153972
    34  C   -0.162472
    35  C   -0.039932
    36  C    0.088744
    37  C    0.122989
    38  C    0.056432
    39  O   -0.102144
    40  C   -0.071477
    41  C    0.218814
    42  O   -0.220148
    43  O   -0.352140
    44  C    0.187083
    45  H   -0.036801
    46  H   -0.006491
    47  H   -0.034571
    48  H    0.020358
    49  H    0.017568
    50  H    0.008527
    51  H    0.029615
    52  H    0.017088
    53  H    0.013809
    54  H    0.013044
    55  H    0.031519
    56  H    0.030139
    57  H    0.034871
    58  H    0.042206
    59  H    0.009131
    60  H    0.038090
    61  H    0.012011
    62  H    0.038753
    63  H   -0.003773
    64  H   -0.003975
    65  H    0.017253
    66  H    0.021764
    67  H    0.010554
    68  H    0.001258
    69  H   -0.002042
    70  H    0.005415
    71  H    0.031865
    72  H    0.016175
    73  H    0.033470
    74  H    0.015306
    75  H    0.051296
    76  H    0.046692
    77  H    0.036859
    78  H    0.022916
    79  H    0.042967
    80  Mg   0.801151
    81  C    0.004411
    82  C   -0.071507
    83  C   -0.019726
    84  C   -0.048290
    85  N   -0.286882
    86  C   -0.055437
    87  C   -0.042469
    88  C   -0.052357
    89  C    0.058050
    90  C    0.080556
    91  C    0.048715
    92  C   -0.050726
    93  H    0.026473
    94  N   -0.365279
    95  C    0.114148
    96  C   -0.149621
    97  C   -0.022398
    98  C    0.090983
    99  C    0.140497
   100  C   -0.050209
   101  O   -0.214348
   102  C    0.079009
   103  N   -0.287375
   104  C    0.025735
   105  C   -0.009794
   106  C   -0.012919
   107  C    0.028424
   108  C    0.074426
   109  C    0.039552
   110  C   -0.004077
   111  N   -0.281349
   112  C    0.026146
   113  C   -0.155077
   114  C    0.014920
   115  C    0.076274
   116  C    0.107439
   117  C    0.020240
   118  O   -0.190173
   119  C    0.052734
   120  C    0.149206
   121  O   -0.180178
   122  O   -0.336470
   123  C    0.181976
   124  H   -0.017871
   125  H   -0.053301
   126  H   -0.027295
   127  H    0.012405
   128  H    0.010087
   129  H    0.010122
   130  H    0.024988
   131  H    0.017169
   132  H    0.018068
   133  H    0.012960
   134  H    0.042803
   135  H    0.031649
   136  H    0.047169
   137  H    0.016226
   138  H   -0.005089
   139  H    0.029860
   140  H    0.043549
   141  H    0.024881
   142  H    0.021347
   143  H    0.015104
   144  H    0.014926
   145  H    0.018853
   146  H    0.014629
   147  H    0.017001
   148  H    0.015967
   149  H    0.020642
   150  H    0.008631
   151  H    0.012665
   152  H    0.041360
   153  H    0.029788
   154  H    0.041812
   155  H    0.031447
   156  H    0.027416
   157  H    0.035928
   158  H    0.039706
 Sum of Mulliken charges =  -0.00000

 Dipole moment (field-independent basis, Debye):
    X=             -2.8351    Y=              0.6285    Z=             -3.6787  Tot=              4.6867
 Quadrupole moment (field-independent basis, Debye-Ang):
   XX=           -433.5570   YY=           -538.6098   ZZ=           -488.1180
   XY=            102.3031   XZ=             25.4086   YZ=            -42.9155

 Normal termination of Gaussian 16 at Tue Aug 31 22:36:36 2021.
