 Gaussian 16, Revision A.03,
 Gaussian 16:  ES64L-G16RevA.03 25-Dec-2016

 -----------------------------------
 #p cam-b3lyp/Def2SVP td=(nstates=5)
 -----------------------------------

 --------------------------------
 TDDFT excited states in gaussian
 --------------------------------
 Symbolic Z-matrix:
 Charge =  0 Multiplicity = 1

                         Standard orientation:
 ---------------------------------------------------------------------
 Center     Atomic      Atomic             Coordinates (Angstroms)
 Number     Number       Type             X           Y           Z
 ---------------------------------------------------------------------
      1         12           0       25.805050    0.825984    0.279786
      2          6           0       26.777663   -2.355603   -0.503450
      3          6           0       23.553072    0.827726   -2.176003
      4          6           0       25.182619    3.934009    1.038271
      5          6           0       28.629023    0.917880    2.452179
      6          7           0       25.331148   -0.563330   -1.318743
      7          6           0       25.672117   -1.874535   -1.251674
      8          6           0       24.769574   -2.732793   -2.095169
      9          6           0       23.922529   -1.626650   -2.843336
     10          6           0       24.335603   -0.350441   -2.142737
     11          6           0       24.096817   -1.609454   -4.380960
     12          6           0       23.930575   -3.872665   -1.250088
     13          6           0       23.899207   -5.310948   -1.789165
     14          1           0       24.138349   -5.496888   -3.320549
     15          7           0       24.480019    2.080703   -0.321139
     16          6           0       23.606602    1.961853   -1.354926
     17          6           0       22.865755    3.171841   -1.616279
     18          6           0       23.174819    3.998622   -0.578756
     19          6           0       24.402889    3.390289    0.020922
     20          6           0       22.031099    3.213966   -2.883223
     21          6           0       22.573005    5.373384   -0.225954
     22          8           0       22.956924    6.067004    0.686854
     23          6           0       21.472527    5.809286   -1.147646
     24          7           0       26.909290    2.260196    1.454162
     25          6           0       26.314138    3.445657    1.677855
     26          6           0       27.085606    4.256110    2.724159
     27          6           0       27.993122    3.175044    3.403482
     28          6           0       27.871754    2.038884    2.367306
     29          6           0       27.892426    5.536672    2.243603
     30          6           0       27.522871    2.651799    4.812810
     31          6           0       26.182626    2.002201    5.036438
     32          7           0       27.375932   -0.426842    0.982669
     33          6           0       28.506807   -0.253780    1.787229
     34          6           0       29.308968   -1.481381    1.864106
     35          6           0       28.654845   -2.349125    0.976762
     36          6           0       27.508927   -1.638610    0.499015
     37          6           0       30.507078   -1.763183    2.733960
     38          6           0       28.670689   -3.611031    0.391463
     39          8           0       29.447672   -4.550913    0.454840
     40          6           0       27.346440   -3.763819   -0.400736
     41          6           0       27.808649   -4.328970   -1.689170
     42          8           0       28.312501   -3.685476   -2.612898
     43          8           0       27.714165   -5.690501   -1.692539
     44          6           0       28.390535   -6.457706   -2.743267
     45          1           0       22.702256    0.724203   -2.852980
     46          1           0       24.999011    4.953010    1.383093
     47          1           0       29.427869    1.073612    3.181255
     48          1           0       25.336744   -3.227330   -2.883819
     49          1           0       22.870100   -1.763260   -2.595629
     50          1           0       24.745405   -0.776670   -4.652541
     51          1           0       23.120590   -1.444187   -4.836802
     52          1           0       24.548425   -2.563987   -4.651444
     53          1           0       22.912583   -3.485613   -1.203919
     54          1           0       24.339807   -3.980777   -0.246124
     55          1           0       22.905031   -5.738560   -1.662064
     56          1           0       24.559506   -5.941947   -1.194352
     57          1           0       22.591711    3.103796   -3.811621
     58          1           0       21.546507    4.138887   -3.195368
     59          1           0       21.295399    2.438822   -2.668660
     60          1           0       20.678954    5.063112   -1.179369
     61          1           0       22.019833    6.001051   -2.070335
     62          1           0       20.895370    6.697736   -0.893930
     63          1           0       26.275582    4.624636    3.354571
     64          1           0       29.025706    3.524253    3.383033
     65          1           0       27.760625    5.665860    1.169610
     66          1           0       28.965403    5.375614    2.340936
     67          1           0       27.673913    6.472080    2.760991
     68          1           0       27.617494    3.574774    5.385450
     69          1           0       28.210053    1.915585    5.228567
     70          1           0       25.571627    2.109510    4.139235
     71          1           0       25.644724    2.503444    5.840979
     72          1           0       26.187437    0.927202    5.215480
     73          1           0       31.435236   -1.795812    2.165106
     74          1           0       30.364873   -2.706113    3.262212
     75          1           0       30.562349   -0.876519    3.366021
     76          1           0       26.618825   -4.372409    0.136509
     77          1           0       28.631554   -7.471829   -2.422392
     78          1           0       29.210425   -5.899416   -3.192551
     79          1           0       27.773909   -6.581063   -3.633392
     80         12           0      -26.836309   -0.074311   -0.194570
     81          6           0      -23.396211   -0.785607   -0.425284
     82          6           0      -26.881614   -2.136956    2.604939
     83          6           0      -29.977530    0.860301    0.397710
     84          6           0      -26.321378    2.575149   -2.375992
     85          7           0      -25.214888   -1.177604    1.019139
     86          6           0      -23.900410   -1.454125    0.697308
     87          6           0      -23.275814   -2.608469    1.452558
     88          6           0      -24.405288   -3.057540    2.410084
     89          6           0      -25.574587   -2.088905    2.035630
     90          6           0      -24.806247   -4.582659    2.276665
     91          6           0      -21.938891   -2.290511    2.259826
     92          6           0      -21.767218   -0.878203    2.842510
     93          1           0      -21.972330   -0.680731    4.373689
     94          7           0      -28.202869   -0.569411    1.259763
     95          6           0      -28.060113   -1.468366    2.278208
     96          6           0      -29.335514   -1.623569    2.991820
     97          6           0      -30.266238   -0.748367    2.352691
     98          6           0      -29.467521   -0.089309    1.274147
     99          6           0      -29.536984   -2.578040    4.162787
    100          6           0      -31.716022   -0.603622    2.948757
    101          8           0      -31.981052   -1.226167    3.967702
    102          6           0      -32.756176    0.395522    2.287822
    103          7           0      -27.914413    1.542571   -0.789351
    104          6           0      -29.281519    1.644766   -0.542329
    105          6           0      -29.926691    2.886611   -1.381377
    106          6           0      -28.600385    3.458125   -2.123341
    107          6           0      -27.562083    2.454371   -1.737414
    108          6           0      -31.052827    2.431822   -2.355820
    109          6           0      -28.172962    4.931359   -1.709660
    110          6           0      -27.924858    5.971846   -2.812764
    111          7           0      -25.228992    0.700058   -1.324167
    112          6           0      -25.131186    1.780732   -2.162754
    113          6           0      -23.734204    1.883391   -2.634827
    114          6           0      -23.057953    0.786200   -2.037096
    115          6           0      -24.026041    0.143882   -1.215587
    116          6           0      -23.142311    2.931552   -3.535854
    117          6           0      -21.720691    0.178236   -1.903124
    118          8           0      -20.641014    0.382675   -2.477025
    119          6           0      -21.966989   -1.006932   -0.981431
    120          6           0      -21.743941   -2.260991   -1.618448
    121          8           0      -22.593127   -2.777682   -2.389952
    122          8           0      -20.507171   -2.820092   -1.240087
    123          6           0      -20.199960   -4.178052   -1.677509
    124          1           0      -26.998814   -2.898381    3.378439
    125          1           0      -31.045396    1.078528    0.458150
    126          1           0      -26.257674    3.390839   -3.098595
    127          1           0      -23.068947   -3.324432    0.658032
    128          1           0      -24.094099   -2.728479    3.400879
    129          1           0      -24.497166   -5.118420    3.174136
    130          1           0      -24.281281   -4.953256    1.395820
    131          1           0      -25.884902   -4.703204    2.170933
    132          1           0      -21.188858   -2.412994    1.477421
    133          1           0      -21.789642   -3.059486    3.018133
    134          1           0      -22.427019   -0.171901    2.337530
    135          1           0      -20.772280   -0.522914    2.577507
    136          1           0      -29.558984   -2.100974    5.142620
    137          1           0      -28.885325   -3.447594    4.076335
    138          1           0      -30.489466   -3.100403    4.074984
    139          1           0      -32.734456    0.206901    1.214217
    140          1           0      -32.429812    1.407618    2.525608
    141          1           0      -33.733199    0.402082    2.771023
    142          1           0      -30.433568    3.509967   -0.645362
    143          1           0      -28.775974    3.369868   -3.195718
    144          1           0      -30.594975    2.277335   -3.332637
    145          1           0      -31.901892    3.115283   -2.370103
    146          1           0      -31.551851    1.509065   -2.060317
    147          1           0      -27.298794    4.830554   -1.065610
    148          1           0      -29.040592    5.249722   -1.131778
    149          1           0      -27.319597    6.807134   -2.459480
    150          1           0      -28.937071    6.294148   -3.055950
    151          1           0      -27.419580    5.409732   -3.598425
    152          1           0      -23.779151    3.801955   -3.380267
    153          1           0      -23.347375    2.525723   -4.526469
    154          1           0      -22.067180    3.081687   -3.433289
    155          1           0      -21.235936   -0.820359   -0.195068
    156          1           0      -20.084514   -4.346022   -2.748316
    157          1           0      -20.964020   -4.866823   -1.315887
    158          1           0      -19.339828   -4.500849   -1.090700
 ---------------------------------------------------------------------

 SCF Done:  E(RCAM-B3LYP) =  -4069.79502034     A.U. after   18 cycles

 Excitation energies and oscillator strengths:

 Excited State   1:      Singlet-A      1.7180 eV  721.69 nm  f=0.3764  <S**2>=0.000
     309 -> 315       -0.18149
     311 -> 313        0.68505
     309 <- 315       -0.10791
 This state for optimization and/or second-order correction.
 Total Energy, E(TD-HF/TD-DFT) =  -4069.73188584
 Copying the excited state density for this state as the 1-particle RhoCI density.

 Excited State   2:      Singlet-A      1.7684 eV  701.11 nm  f=0.3750  <S**2>=0.000
     310 -> 316       -0.19165
     312 -> 314        0.68181
     310 <- 316       -0.10600

 Excited State   3:      Singlet-A      2.2757 eV  544.82 nm  f=0.0578  <S**2>=0.000
     310 -> 314        0.61594
     312 -> 316        0.33784

 Excited State   4:      Singlet-A      2.3104 eV  536.64 nm  f=0.0714  <S**2>=0.000
     309 -> 313        0.61633
     311 -> 315        0.33582

 Excited State   5:      Singlet-A      3.1959 eV  387.95 nm  f=0.0000  <S**2>=0.000
     312 -> 313        0.70710

 The electronic state is 1-A.
 Alpha  occ. eigenvalues --  -46.88955 -46.87953 -19.25824 -19.23907 -19.20267
 Alpha  occ. eigenvalues --  -19.19930 -19.19642 -19.19223 -19.18334 -19.17646
 Alpha  occ. eigenvalues --  -14.42667 -14.42111 -14.41705 -14.41056 -14.39997
 Alpha  occ. eigenvalues --  -14.39987 -14.39344 -14.38745 -10.40055 -10.38249
 Alpha  occ. eigenvalues --  -10.36520 -10.35960 -10.35381 -10.33542 -10.32148
 Alpha  occ. eigenvalues --  -10.31908 -10.31378 -10.30964 -10.30824 -10.30666
 Alpha  occ. eigenvalues --  -10.30652 -10.30614 -10.30580 -10.30447 -10.30239
 Alpha  occ. eigenvalues --  -10.30131 -10.30117 -10.29869 -10.29326 -10.29032
 Alpha  occ. eigenvalues --  -10.29026 -10.28961 -10.28922 -10.28713 -10.28494
 Alpha  occ. eigenvalues --  -10.28398 -10.28336 -10.28335 -10.28333 -10.28060
 Alpha  occ. eigenvalues --  -10.28059 -10.27847 -10.27822 -10.27806 -10.27791
 Alpha  occ. eigenvalues --  -10.27771 -10.27758 -10.27741 -10.27589 -10.27555
 Alpha  occ. eigenvalues --  -10.27497 -10.27484 -10.27421 -10.27322 -10.27235
 Alpha  occ. eigenvalues --  -10.27182 -10.27165 -10.26825 -10.26759 -10.26687
 Alpha  occ. eigenvalues --  -10.26610 -10.26597 -10.26516 -10.26490 -10.26260
 Alpha  occ. eigenvalues --  -10.26082 -10.26036 -10.26032 -10.25896 -10.25889
 Alpha  occ. eigenvalues --  -10.25560 -10.25484 -10.25212 -10.25203 -10.25051
 Alpha  occ. eigenvalues --  -10.24056  -3.17581  -3.16808  -1.92439  -1.92053
 Alpha  occ. eigenvalues --   -1.91886  -1.91673  -1.91277  -1.91141  -1.15004
 Alpha  occ. eigenvalues --   -1.14837  -1.11523  -1.10442  -1.09087  -1.08997
 Alpha  occ. eigenvalues --   -1.07054  -1.05916  -1.05583  -1.04694  -1.04175
 Alpha  occ. eigenvalues --   -1.04108  -1.03576  -1.02991  -1.02641  -1.01908
 Alpha  occ. eigenvalues --   -0.93163  -0.92336  -0.89624  -0.89193  -0.88877
 Alpha  occ. eigenvalues --   -0.88416  -0.88077  -0.88019  -0.87955  -0.87462
 Alpha  occ. eigenvalues --   -0.86835  -0.86553  -0.86109  -0.85589  -0.84553
 Alpha  occ. eigenvalues --   -0.84368  -0.83942  -0.83580  -0.82830  -0.82705
 Alpha  occ. eigenvalues --   -0.82598  -0.81690  -0.81058  -0.81037  -0.80521
 Alpha  occ. eigenvalues --   -0.80112  -0.79019  -0.78197  -0.77460  -0.77247
 Alpha  occ. eigenvalues --   -0.76977  -0.76800  -0.76550  -0.75697  -0.75205
 Alpha  occ. eigenvalues --   -0.74932  -0.72636  -0.72361  -0.71779  -0.71681
 Alpha  occ. eigenvalues --   -0.69639  -0.69323  -0.69023  -0.68939  -0.68462
 Alpha  occ. eigenvalues --   -0.68145  -0.67311  -0.66839  -0.65807  -0.65410
 Alpha  occ. eigenvalues --   -0.65216  -0.64970  -0.64741  -0.64608  -0.64229
 Alpha  occ. eigenvalues --   -0.63757  -0.62471  -0.61708  -0.61112  -0.60261
 Alpha  occ. eigenvalues --   -0.59653  -0.59313  -0.59279  -0.59094  -0.58682
 Alpha  occ. eigenvalues --   -0.57923  -0.57797  -0.57769  -0.57546  -0.57212
 Alpha  occ. eigenvalues --   -0.56300  -0.56171  -0.55633  -0.55311  -0.55114
 Alpha  occ. eigenvalues --   -0.54976  -0.54667  -0.54461  -0.54413  -0.54221
 Alpha  occ. eigenvalues --   -0.53794  -0.53631  -0.53202  -0.53113  -0.52643
 Alpha  occ. eigenvalues --   -0.52619  -0.52615  -0.52433  -0.52370  -0.52292
 Alpha  occ. eigenvalues --   -0.52154  -0.51626  -0.51592  -0.51254  -0.51215
 Alpha  occ. eigenvalues --   -0.50975  -0.50736  -0.50606  -0.50457  -0.50328
 Alpha  occ. eigenvalues --   -0.50227  -0.50007  -0.49495  -0.49387  -0.49381
 Alpha  occ. eigenvalues --   -0.49329  -0.49284  -0.49088  -0.48992  -0.48773
 Alpha  occ. eigenvalues --   -0.48601  -0.48569  -0.48375  -0.48164  -0.48058
 Alpha  occ. eigenvalues --   -0.48008  -0.47780  -0.47393  -0.47227  -0.47165
 Alpha  occ. eigenvalues --   -0.46794  -0.46651  -0.46640  -0.46508  -0.46474
 Alpha  occ. eigenvalues --   -0.46265  -0.46187  -0.45797  -0.45703  -0.45477
 Alpha  occ. eigenvalues --   -0.45408  -0.45246  -0.44994  -0.44823  -0.44817
 Alpha  occ. eigenvalues --   -0.44638  -0.44582  -0.44505  -0.44207  -0.44111
 Alpha  occ. eigenvalues --   -0.43950  -0.43906  -0.43827  -0.43459  -0.43255
 Alpha  occ. eigenvalues --   -0.43169  -0.43060  -0.42954  -0.42904  -0.42842
 Alpha  occ. eigenvalues --   -0.42701  -0.42432  -0.42419  -0.42286  -0.42134
 Alpha  occ. eigenvalues --   -0.42123  -0.41840  -0.41588  -0.41569  -0.41246
 Alpha  occ. eigenvalues --   -0.41088  -0.41056  -0.40743  -0.40631  -0.40516
 Alpha  occ. eigenvalues --   -0.40299  -0.39881  -0.39722  -0.39584  -0.39202
 Alpha  occ. eigenvalues --   -0.38930  -0.38464  -0.38191  -0.37670  -0.37537
 Alpha  occ. eigenvalues --   -0.37104  -0.37036  -0.36997  -0.36653  -0.36443
 Alpha  occ. eigenvalues --   -0.36269  -0.35147  -0.34780  -0.34436  -0.34354
 Alpha  occ. eigenvalues --   -0.33273  -0.33221  -0.32935  -0.32490  -0.31435
 Alpha  occ. eigenvalues --   -0.31358  -0.31226  -0.31002  -0.30711  -0.30286
 Alpha  occ. eigenvalues --   -0.30086  -0.29706  -0.29626  -0.24164  -0.23808
 Alpha  occ. eigenvalues --   -0.20853  -0.20603
 Alpha virt. eigenvalues --   -0.08207  -0.07823  -0.01828  -0.01747   0.00228
 Alpha virt. eigenvalues --    0.00254   0.01629   0.02031   0.02282   0.03029
 Alpha virt. eigenvalues --    0.03413   0.05011   0.05029   0.05198   0.06116

 Mulliken charges:
               1
     1  Mg   0.850567
     2  C    0.012127
     3  C   -0.109462
     4  C   -0.070326
     5  C   -0.108754
     6  N   -0.257960
     7  C   -0.051800
     8  C   -0.000847
     9  C   -0.101401
    10  C    0.045285
    11  C    0.094740
    12  C    0.048922
    13  C   -0.072549
    14  H    0.012997
    15  N   -0.419464
    16  C    0.163728
    17  C   -0.108883
    18  C   -0.091227
    19  C    0.161842
    20  C    0.094036
    21  C    0.026216
    22  O   -0.168449
    23  C    0.036199
    24  N   -0.251363
    25  C    0.003034
    26  C   -0.036979
    27  C    0.001989
    28  C   -0.034623
    29  C    0.070314
    30  C    0.035377
    31  C    0.008542
    32  N   -0.312646
    33  C    0.155321
    34  C   -0.183107
    35  C    0.078795
    36  C    0.062721
    37  C    0.144278
    38  C   -0.022474
    39  O   -0.177559
    40  C    0.001698
    41  C    0.195330
    42  O   -0.239440
    43  O   -0.323700
    44  C    0.190511
    45  H   -0.033043
    46  H   -0.010553
    47  H   -0.035047
    48  H    0.022030
    49  H    0.005886
    50  H    0.023428
    51  H    0.016555
    52  H    0.024991
    53  H    0.008955
    54  H    0.018137
    55  H    0.025948
    56  H    0.040061
    57  H    0.037372
    58  H    0.007444
    59  H    0.045240
    60  H    0.040714
    61  H    0.049178
    62  H    0.021294
    63  H    0.008512
    64  H    0.002533
    65  H    0.016670
    66  H    0.005056
    67  H    0.028208
    68  H    0.006565
    69  H    0.007637
    70  H    0.009867
    71  H    0.017904
    72  H    0.021342
    73  H    0.036300
    74  H    0.041569
    75  H   -0.001565
    76  H    0.044058
    77  H    0.042892
    78  H    0.040277
    79  H    0.012030
    80  Mg   0.851619
    81  C   -0.100140
    82  C   -0.078322
    83  C   -0.099234
    84  C   -0.088974
    85  N   -0.279398
    86  C   -0.081165
    87  C   -0.019354
    88  C   -0.002822
    89  C   -0.000096
    90  C    0.073891
    91  C    0.027116
    92  C   -0.064901
    93  H    0.020885
    94  N   -0.362141
    95  C    0.140214
    96  C   -0.140669
    97  C   -0.078362
    98  C    0.187284
    99  C    0.142628
   100  C    0.026527
   101  O   -0.197119
   102  C    0.035346
   103  N   -0.347400
   104  C    0.055844
   105  C   -0.054214
   106  C   -0.028377
   107  C    0.061106
   108  C    0.055228
   109  C    0.021392
   110  C    0.018569
   111  N   -0.317881
   112  C    0.107223
   113  C   -0.195295
   114  C   -0.057900
   115  C    0.233636
   116  C    0.136015
   117  C    0.071818
   118  O   -0.182124
   119  C    0.008111
   120  C    0.252112
   121  O   -0.249960
   122  O   -0.351347
   123  C    0.193050
   124  H   -0.033187
   125  H   -0.057960
   126  H   -0.041241
   127  H    0.023634
   128  H    0.018845
   129  H    0.021278
   130  H    0.018755
   131  H    0.026175
   132  H    0.015685
   133  H    0.022971
   134  H    0.041913
   135  H    0.033096
   136  H    0.040417
   137  H    0.001801
   138  H    0.020862
   139  H    0.054667
   140  H    0.038700
   141  H    0.026098
   142  H    0.018372
   143  H    0.011709
   144  H    0.016648
   145  H    0.016020
   146  H    0.011116
   147  H    0.024233
   148  H    0.000217
   149  H    0.028349
   150  H    0.019660
   151  H    0.018968
   152  H    0.013668
   153  H    0.031444
   154  H    0.042830
   155  H    0.030544
   156  H    0.050915
   157  H    0.016641
   158  H    0.033737
 Sum of Mulliken charges =  -0.00000

 Dipole moment (field-independent basis, Debye):
    X=             -7.5033    Y=              1.7947    Z=             -0.4055  Tot=              7.7257
 Quadrupole moment (field-independent basis, Debye-Ang):
   XX=           -651.2784   YY=           -493.4878   ZZ=           -512.7152
   XY=             37.8913   XZ=             40.4915   YZ=            -10.6239

 Normal termination of Gaussian 16 at Tue Aug 31 16:30:37 2021.
