 Gaussian 16, Revision A.03,
 Gaussian 16:  ES64L-G16RevA.03 25-Dec-2016

 -----------------------------------
 #p cam-b3lyp/Def2SVP td=(nstates=5)
 -----------------------------------

 --------------------------------
 TDDFT excited states in gaussian
 --------------------------------
 Symbolic Z-matrix:
 Charge =  0 Multiplicity = 1

                         Standard orientation:
 ---------------------------------------------------------------------
 Center     Atomic      Atomic             Coordinates (Angstroms)
 Number     Number       Type             X           Y           Z
 ---------------------------------------------------------------------
      1         12           0      -16.454980   -0.812917    0.032226
      2          6           0      -18.430321    1.791845    1.003254
      3          6           0      -13.736555    1.440101   -0.186859
      4          6           0      -14.536629   -3.291747   -1.146148
      5          6           0      -19.151014   -2.918321    0.344392
      6          7           0      -16.177905    1.392115    0.057595
      7          6           0      -17.143805    2.245446    0.606162
      8          6           0      -16.631142    3.709339    0.716376
      9          6           0      -15.166492    3.488120    0.253712
     10          6           0      -15.006222    2.009211   -0.048729
     11          6           0      -14.520085    4.359487   -0.905984
     12          6           0      -16.724824    4.395735    2.149775
     13          6           0      -16.150855    5.837946    2.141384
     14          1           0      -17.228191    6.917415    2.255139
     15          7           0      -14.355152   -0.912645   -0.547394
     16          6           0      -13.408992    0.064948   -0.326437
     17          6           0      -12.157566   -0.471733   -0.848270
     18          6           0      -12.407760   -1.852810   -1.132478
     19          6           0      -13.800850   -2.099143   -0.930282
     20          6           0      -10.937435    0.363900   -0.908393
     21          6           0      -11.320634   -2.815367   -1.725964
     22          8           0      -11.574197   -3.951819   -2.174419
     23          6           0       -9.892171   -2.352509   -1.847390
     24          7           0      -16.781083   -2.701960   -0.353473
     25          6           0      -15.811219   -3.605415   -0.872043
     26          6           0      -16.459901   -4.893370   -1.326218
     27          6           0      -17.701397   -4.889179   -0.436352
     28          6           0      -17.896763   -3.426819   -0.062117
     29          6           0      -16.804180   -4.899563   -2.853531
     30          6           0      -17.504651   -5.692212    0.868912
     31          6           0      -17.757041   -7.175827    0.843028
     32          7           0      -18.454545   -0.696955    0.520912
     33          6           0      -19.396099   -1.624251    0.759021
     34          6           0      -20.612565   -0.976385    1.151859
     35          6           0      -20.298813    0.359366    1.286591
     36          6           0      -18.946836    0.482647    0.930353
     37          6           0      -21.865628   -1.728639    1.436264
     38          6           0      -20.834594    1.602144    1.647130
     39          8           0      -21.936834    1.922614    2.048060
     40          6           0      -19.612101    2.621138    1.477712
     41          6           0      -20.034532    3.687247    0.529983
     42          8           0      -20.260230    3.567234   -0.649609
     43          8           0      -20.002791    4.890670    1.110192
     44          6           0      -20.361927    6.069759    0.231538
     45          1           0      -12.920287    2.157290   -0.079563
     46          1           0      -13.921757   -4.111479   -1.523111
     47          1           0      -20.015153   -3.539035    0.588777
     48          1           0      -17.164211    4.316893   -0.015006
     49          1           0      -14.493029    3.643303    1.097136
     50          1           0      -13.468094    4.619602   -0.785721
     51          1           0      -15.181367    5.189232   -1.156278
     52          1           0      -14.499504    3.684090   -1.761167
     53          1           0      -16.204672    3.692066    2.798533
     54          1           0      -17.772359    4.413586    2.450251
     55          1           0      -15.481704    5.966719    1.290643
     56          1           0      -15.547032    5.933768    3.043301
     57          1           0      -10.710448    0.548641   -1.958543
     58          1           0      -10.195254   -0.152157   -0.299315
     59          1           0      -11.093015    1.313429   -0.396046
     60          1           0       -9.269577   -3.165852   -2.220165
     61          1           0       -9.576979   -2.209358   -0.812910
     62          1           0       -9.712838   -1.442451   -2.419272
     63          1           0      -15.811434   -5.749309   -1.137200
     64          1           0      -18.597424   -5.249652   -0.941203
     65          1           0      -17.666625   -4.268321   -3.064033
     66          1           0      -16.983839   -5.918774   -3.196657
     67          1           0      -15.912072   -4.519487   -3.350092
     68          1           0      -18.068628   -5.284393    1.706828
     69          1           0      -16.491874   -5.536579    1.240878
     70          1           0      -16.821757   -7.654595    1.131666
     71          1           0      -17.863546   -7.386555   -0.221205
     72          1           0      -18.631435   -7.497469    1.409020
     73          1           0      -21.969263   -1.900882    2.506862
     74          1           0      -22.076616   -2.625248    0.852635
     75          1           0      -22.670930   -1.041787    1.175254
     76          1           0      -19.393133    3.056049    2.453178
     77          1           0      -19.753951    5.990363   -0.669932
     78          1           0      -20.121373    7.032214    0.683865
     79          1           0      -21.424723    5.998326   -0.000724
     80         12           0       16.652657   -0.625822    0.389965
     81          6           0       15.361129    2.301067   -1.116763
     82          6           0       18.317253    1.372465    2.618202
     83          6           0       18.352271   -3.294659    1.367943
     84          6           0       15.278881   -2.471592   -2.247710
     85          7           0       16.944631    1.600367    0.606730
     86          6           0       16.211607    2.578210   -0.070941
     87          6           0       16.367214    3.943385    0.643431
     88          6           0       17.342228    3.618084    1.833375
     89          6           0       17.551112    2.080828    1.745641
     90          6           0       18.565071    4.505041    1.989796
     91          6           0       15.070835    4.630435    1.100172
     92          6           0       14.903353    6.079254    0.565422
     93          1           0       14.696612    7.142423    1.621312
     94          7           0       18.076411   -0.907403    1.872481
     95          6           0       18.676648    0.019356    2.673265
     96          6           0       19.476878   -0.691016    3.642174
     97          6           0       19.615410   -2.072638    3.189874
     98          6           0       18.668182   -2.096113    2.085862
     99          6           0       20.301042    0.064365    4.808658
    100          6           0       20.617761   -3.103674    3.485649
    101          8           0       20.653065   -4.226805    3.070216
    102          6           0       21.748983   -2.684184    4.419664
    103          7           0       16.940121   -2.576457   -0.495429
    104          6           0       17.652750   -3.515126    0.157456
    105          6           0       17.408652   -4.899053   -0.448747
    106          6           0       16.177574   -4.667338   -1.339525
    107          6           0       16.074351   -3.158527   -1.353755
    108          6           0       18.674590   -5.402160   -1.282962
    109          6           0       14.890249   -5.308188   -0.609021
    110          6           0       14.369315   -4.539074    0.635695
    111          7           0       15.434387   -0.279181   -1.305821
    112          6           0       14.966094   -1.116467   -2.245426
    113          6           0       14.182304   -0.351448   -3.177600
    114          6           0       14.270409    0.959502   -2.748329
    115          6           0       15.103157    0.993658   -1.626476
    116          6           0       13.425942   -0.822207   -4.405234
    117          6           0       13.839972    2.304708   -3.138770
    118          8           0       13.265869    2.835487   -4.047420
    119          6           0       14.461296    3.225114   -2.055163
    120          6           0       15.313177    4.190018   -2.793829
    121          8           0       16.175133    3.817614   -3.549674
    122          8           0       14.954365    5.512847   -2.590605
    123          6           0       15.563968    6.519434   -3.522760
    124          1           0       18.669324    1.998185    3.441137
    125          1           0       18.794766   -4.228284    1.722593
    126          1           0       14.644367   -2.983229   -2.974437
    127          1           0       16.923713    4.616155   -0.009425
    128          1           0       16.822795    3.850238    2.763308
    129          1           0       18.756817    5.075207    1.082020
    130          1           0       19.467077    3.963407    2.275727
    131          1           0       18.298983    5.245170    2.744033
    132          1           0       14.915270    4.770864    2.169848
    133          1           0       14.199436    4.054262    0.789889
    134          1           0       14.155858    6.128929   -0.226271
    135          1           0       15.842188    6.362511    0.091255
    136          1           0       20.103196   -0.456312    5.745530
    137          1           0       20.022061    1.099143    5.003788
    138          1           0       21.377888    0.187680    4.693587
    139          1           0       21.229828   -2.443988    5.347799
    140          1           0       22.185726   -1.805147    3.946745
    141          1           0       22.465920   -3.472693    4.650565
    142          1           0       17.120870   -5.652155    0.285589
    143          1           0       16.190346   -4.969914   -2.386845
    144          1           0       18.669313   -6.491481   -1.236639
    145          1           0       19.669550   -5.096858   -0.957246
    146          1           0       18.463553   -5.077127   -2.301627
    147          1           0       15.040179   -6.350129   -0.326893
    148          1           0       14.019523   -5.212349   -1.257820
    149          1           0       13.614859   -5.058745    1.225370
    150          1           0       13.916445   -3.613021    0.281164
    151          1           0       15.233422   -4.292485    1.253495
    152          1           0       12.613437   -1.516956   -4.193707
    153          1           0       14.185266   -1.343898   -4.987200
    154          1           0       13.085062    0.002123   -5.031612
    155          1           0       13.595234    3.744552   -1.645405
    156          1           0       15.823652    7.284172   -2.790751
    157          1           0       14.850338    6.924813   -4.239808
    158          1           0       16.427672    6.252993   -4.131448
 ---------------------------------------------------------------------

 SCF Done:  E(RCAM-B3LYP) =  -4069.84316098     A.U. after   19 cycles

 Excitation energies and oscillator strengths:

 Excited State   1:      Singlet-A      1.6534 eV  749.89 nm  f=0.4032  <S**2>=0.000
     309 -> 315       -0.16004
     312 -> 314        0.69048
     309 <- 315       -0.10383
 This state for optimization and/or second-order correction.
 Total Energy, E(TD-HF/TD-DFT) =  -4069.78240083
 Copying the excited state density for this state as the 1-particle RhoCI density.

 Excited State   2:      Singlet-A      1.7037 eV  727.74 nm  f=0.3929  <S**2>=0.000
     310 -> 316       -0.17551
     311 -> 313        0.68700
     310 <- 316       -0.10759

 Excited State   3:      Singlet-A      2.1918 eV  565.68 nm  f=0.1374  <S**2>=0.000
     310 -> 313        0.65684
     311 -> 316        0.24838

 Excited State   4:      Singlet-A      2.2510 eV  550.79 nm  f=0.1085  <S**2>=0.000
     309 -> 314        0.63837
     312 -> 315        0.28837

 Excited State   5:      Singlet-A      2.9598 eV  418.89 nm  f=0.0000  <S**2>=0.000
     312 -> 313        0.70709

 The electronic state is 1-A.
 Alpha  occ. eigenvalues --  -46.89590 -46.87522 -19.25192 -19.24934 -19.19654
 Alpha  occ. eigenvalues --  -19.19395 -19.19327 -19.18757 -19.18572 -19.18443
 Alpha  occ. eigenvalues --  -14.42739 -14.42157 -14.41967 -14.41760 -14.39818
 Alpha  occ. eigenvalues --  -14.39276 -14.38885 -14.38870 -10.38842 -10.38546
 Alpha  occ. eigenvalues --  -10.35232 -10.35203 -10.34959 -10.34418 -10.32308
 Alpha  occ. eigenvalues --  -10.32073 -10.31856 -10.31574 -10.31376 -10.30820
 Alpha  occ. eigenvalues --  -10.30806 -10.30799 -10.30583 -10.30286 -10.30029
 Alpha  occ. eigenvalues --  -10.30009 -10.29673 -10.29581 -10.29490 -10.29398
 Alpha  occ. eigenvalues --  -10.29286 -10.29207 -10.29012 -10.29000 -10.28723
 Alpha  occ. eigenvalues --  -10.28620 -10.28499 -10.28235 -10.28116 -10.28083
 Alpha  occ. eigenvalues --  -10.28077 -10.28076 -10.28040 -10.27934 -10.27811
 Alpha  occ. eigenvalues --  -10.27807 -10.27776 -10.27557 -10.27474 -10.27438
 Alpha  occ. eigenvalues --  -10.27388 -10.27387 -10.27137 -10.27073 -10.27034
 Alpha  occ. eigenvalues --  -10.26783 -10.26693 -10.26690 -10.26599 -10.26562
 Alpha  occ. eigenvalues --  -10.26548 -10.26371 -10.26319 -10.26219 -10.26185
 Alpha  occ. eigenvalues --  -10.26004 -10.26003 -10.25852 -10.25755 -10.25654
 Alpha  occ. eigenvalues --  -10.25597 -10.25546 -10.25121 -10.25104 -10.25088
 Alpha  occ. eigenvalues --  -10.25036  -3.17992  -3.16302  -1.92875  -1.92461
 Alpha  occ. eigenvalues --   -1.92286  -1.91204  -1.90773  -1.90600  -1.16929
 Alpha  occ. eigenvalues --   -1.15738  -1.11718  -1.11111  -1.10458  -1.08299
 Alpha  occ. eigenvalues --   -1.07670  -1.07159  -1.05460  -1.05233  -1.04336
 Alpha  occ. eigenvalues --   -1.03942  -1.03880  -1.03120  -1.02045  -1.01980
 Alpha  occ. eigenvalues --   -0.93353  -0.92408  -0.89103  -0.88923  -0.88861
 Alpha  occ. eigenvalues --   -0.88799  -0.88681  -0.88265  -0.87925  -0.87787
 Alpha  occ. eigenvalues --   -0.87191  -0.86590  -0.86588  -0.86376  -0.84459
 Alpha  occ. eigenvalues --   -0.84347  -0.83989  -0.83543  -0.82554  -0.82548
 Alpha  occ. eigenvalues --   -0.81601  -0.81257  -0.81233  -0.80911  -0.80656
 Alpha  occ. eigenvalues --   -0.80211  -0.78425  -0.78406  -0.77576  -0.77467
 Alpha  occ. eigenvalues --   -0.77236  -0.76810  -0.76230  -0.76212  -0.75269
 Alpha  occ. eigenvalues --   -0.75222  -0.73239  -0.73150  -0.71829  -0.71811
 Alpha  occ. eigenvalues --   -0.69465  -0.69411  -0.69244  -0.68977  -0.68338
 Alpha  occ. eigenvalues --   -0.68125  -0.67350  -0.66102  -0.65819  -0.65531
 Alpha  occ. eigenvalues --   -0.65367  -0.65203  -0.64974  -0.64642  -0.64487
 Alpha  occ. eigenvalues --   -0.64206  -0.62327  -0.62102  -0.60458  -0.60272
 Alpha  occ. eigenvalues --   -0.60012  -0.59766  -0.59332  -0.59136  -0.58900
 Alpha  occ. eigenvalues --   -0.58799  -0.58346  -0.58173  -0.58038  -0.57582
 Alpha  occ. eigenvalues --   -0.56571  -0.56102  -0.56033  -0.55417  -0.55267
 Alpha  occ. eigenvalues --   -0.55044  -0.54775  -0.54623  -0.54267  -0.54245
 Alpha  occ. eigenvalues --   -0.53485  -0.53475  -0.53370  -0.52990  -0.52957
 Alpha  occ. eigenvalues --   -0.52734  -0.52716  -0.52484  -0.52307  -0.52173
 Alpha  occ. eigenvalues --   -0.51933  -0.51784  -0.51689  -0.51541  -0.51347
 Alpha  occ. eigenvalues --   -0.51308  -0.50814  -0.50392  -0.50271  -0.50079
 Alpha  occ. eigenvalues --   -0.50004  -0.49922  -0.49845  -0.49752  -0.49554
 Alpha  occ. eigenvalues --   -0.49428  -0.49365  -0.49293  -0.49079  -0.48964
 Alpha  occ. eigenvalues --   -0.48780  -0.48453  -0.48332  -0.48281  -0.48102
 Alpha  occ. eigenvalues --   -0.47986  -0.47761  -0.47621  -0.47520  -0.47514
 Alpha  occ. eigenvalues --   -0.47141  -0.47053  -0.46946  -0.46540  -0.46480
 Alpha  occ. eigenvalues --   -0.46475  -0.46178  -0.46145  -0.46053  -0.45946
 Alpha  occ. eigenvalues --   -0.45874  -0.45639  -0.45518  -0.45352  -0.45293
 Alpha  occ. eigenvalues --   -0.45152  -0.44715  -0.44564  -0.44246  -0.44102
 Alpha  occ. eigenvalues --   -0.43772  -0.43733  -0.43731  -0.43575  -0.43431
 Alpha  occ. eigenvalues --   -0.43377  -0.43356  -0.43103  -0.42947  -0.42866
 Alpha  occ. eigenvalues --   -0.42482  -0.42354  -0.42120  -0.42030  -0.42025
 Alpha  occ. eigenvalues --   -0.41828  -0.41646  -0.41571  -0.41511  -0.41412
 Alpha  occ. eigenvalues --   -0.41144  -0.40969  -0.40898  -0.40659  -0.40432
 Alpha  occ. eigenvalues --   -0.40360  -0.40064  -0.39842  -0.39781  -0.39126
 Alpha  occ. eigenvalues --   -0.38459  -0.38377  -0.38113  -0.38081  -0.37888
 Alpha  occ. eigenvalues --   -0.37497  -0.37070  -0.36953  -0.36684  -0.36586
 Alpha  occ. eigenvalues --   -0.36411  -0.36284  -0.34449  -0.34237  -0.34130
 Alpha  occ. eigenvalues --   -0.34027  -0.33443  -0.33297  -0.31663  -0.31480
 Alpha  occ. eigenvalues --   -0.31268  -0.31264  -0.30670  -0.30496  -0.30436
 Alpha  occ. eigenvalues --   -0.30345  -0.30196  -0.29116  -0.24627  -0.24223
 Alpha  occ. eigenvalues --   -0.21627  -0.21135
 Alpha virt. eigenvalues --   -0.09218  -0.09089  -0.01565  -0.01475   0.00389
 Alpha virt. eigenvalues --    0.00511   0.01636   0.02339   0.02465   0.03394
 Alpha virt. eigenvalues --    0.04639   0.05260   0.05345   0.05625   0.06202

 Mulliken charges:
               1
     1  Mg   0.828508
     2  C    0.007459
     3  C   -0.059475
     4  C   -0.069218
     5  C   -0.093577
     6  N   -0.267903
     7  C   -0.051189
     8  C    0.020236
     9  C   -0.103976
    10  C    0.038318
    11  C    0.063724
    12  C    0.034972
    13  C   -0.056570
    14  H    0.031823
    15  N   -0.358568
    16  C    0.139154
    17  C   -0.203002
    18  C   -0.035948
    19  C    0.110406
    20  C    0.139562
    21  C    0.019203
    22  O   -0.225617
    23  C    0.056051
    24  N   -0.391517
    25  C    0.083600
    26  C   -0.019369
    27  C   -0.020617
    28  C    0.118452
    29  C    0.088230
    30  C   -0.004923
    31  C    0.053333
    32  N   -0.339569
    33  C    0.089622
    34  C   -0.168129
    35  C    0.069278
    36  C    0.103911
    37  C    0.107991
    38  C    0.017655
    39  O   -0.153782
    40  C   -0.052429
    41  C    0.180645
    42  O   -0.217031
    43  O   -0.331565
    44  C    0.179185
    45  H   -0.027497
    46  H   -0.006604
    47  H   -0.026956
    48  H    0.017600
    49  H    0.009440
    50  H    0.020302
    51  H    0.021764
    52  H    0.015418
    53  H    0.010941
    54  H    0.033005
    55  H    0.030034
    56  H    0.029301
    57  H    0.042976
    58  H    0.027669
    59  H    0.001097
    60  H    0.024401
    61  H    0.024805
    62  H    0.040037
    63  H    0.000218
    64  H   -0.003814
    65  H    0.020464
    66  H    0.019238
    67  H    0.019175
    68  H   -0.002536
    69  H   -0.003898
    70  H    0.012683
    71  H   -0.002468
    72  H    0.028751
    73  H    0.038324
    74  H    0.023672
    75  H    0.027426
    76  H    0.043178
    77  H    0.041500
    78  H    0.041637
    79  H    0.051370
    80  Mg   0.812995
    81  C   -0.023647
    82  C   -0.077268
    83  C   -0.061989
    84  C   -0.064305
    85  N   -0.302472
    86  C   -0.035108
    87  C    0.006884
    88  C   -0.058629
    89  C    0.050793
    90  C    0.068889
    91  C    0.056741
    92  C   -0.088689
    93  H    0.008272
    94  N   -0.363083
    95  C    0.161232
    96  C   -0.117002
    97  C   -0.041624
    98  C    0.130647
    99  C    0.062502
   100  C   -0.022257
   101  O   -0.176299
   102  C    0.054563
   103  N   -0.263223
   104  C    0.030060
   105  C   -0.035240
   106  C   -0.014449
   107  C    0.032501
   108  C    0.066523
   109  C    0.004408
   110  C   -0.014672
   111  N   -0.320758
   112  C    0.065130
   113  C   -0.162613
   114  C   -0.035112
   115  C    0.140044
   116  C    0.116954
   117  C    0.069077
   118  O   -0.136734
   119  C    0.003818
   120  C    0.181194
   121  O   -0.201471
   122  O   -0.351238
   123  C    0.165220
   124  H   -0.034097
   125  H   -0.000936
   126  H   -0.031163
   127  H    0.018643
   128  H    0.008088
   129  H    0.008586
   130  H    0.022481
   131  H    0.009331
   132  H    0.019105
   133  H    0.009094
   134  H    0.046077
   135  H    0.015687
   136  H    0.027190
   137  H    0.003874
   138  H    0.033331
   139  H    0.021857
   140  H    0.036842
   141  H    0.022671
   142  H    0.016603
   143  H    0.012882
   144  H    0.017399
   145  H    0.035577
   146  H    0.016247
   147  H    0.020247
   148  H    0.002072
   149  H    0.023658
   150  H    0.021661
   151  H    0.021064
   152  H    0.029114
   153  H    0.019807
   154  H    0.036335
   155  H    0.033740
   156  H    0.035881
   157  H    0.044020
   158  H    0.056469
 Sum of Mulliken charges =  -0.00000

 Dipole moment (field-independent basis, Debye):
    X=              2.5884    Y=              2.0968    Z=              4.7919  Tot=              5.8360
 Quadrupole moment (field-independent basis, Debye-Ang):
   XX=           -650.2016   YY=           -474.5895   ZZ=           -521.4075
   XY=             31.2949   XZ=             33.2876   YZ=             11.7442

 Normal termination of Gaussian 16 at Thu Sep  2 10:33:58 2021.
