 Gaussian 16, Revision A.03,
 Gaussian 16:  ES64L-G16RevA.03 25-Dec-2016

 -----------------------------------
 #p cam-b3lyp/Def2SVP td=(nstates=5)
 -----------------------------------

 --------------------------------
 TDDFT excited states in gaussian
 --------------------------------
 Symbolic Z-matrix:
 Charge =  0 Multiplicity = 1

                         Standard orientation:
 ---------------------------------------------------------------------
 Center     Atomic      Atomic             Coordinates (Angstroms)
 Number     Number       Type             X           Y           Z
 ---------------------------------------------------------------------
      1         12           0       18.802874   -0.366218   -0.517436
      2          6           0       16.270275    1.840323    0.369275
      3          6           0       20.541253    0.830636    2.373433
      4          6           0       21.046518   -2.731361   -0.938683
      5          6           0       16.604919   -1.842257   -2.830017
      6          7           0       18.373210    1.067514    1.221848
      7          6           0       17.285250    1.909914    1.271667
      8          6           0       17.355890    2.787986    2.523973
      9          6           0       18.841474    2.616975    2.945903
     10          6           0       19.294471    1.405569    2.174155
     11          6           0       19.837679    3.817824    2.702365
     12          6           0       16.357132    2.365732    3.614017
     13          6           0       16.256478    3.275096    4.778524
     14          1           0       14.934032    3.203519    5.633572
     15          7           0       20.575463   -0.911612    0.575064
     16          6           0       21.125597   -0.284773    1.704012
     17          6           0       22.337630   -0.974053    2.048932
     18          6           0       22.434666   -2.114144    1.168653
     19          6           0       21.316377   -1.935049    0.179344
     20          6           0       23.209272   -0.588186    3.275816
     21          6           0       23.552790   -3.155175    1.282876
     22          8           0       24.505301   -2.999366    2.028837
     23          6           0       23.478418   -4.382088    0.456655
     24          7           0       18.895275   -1.915727   -1.880646
     25          6           0       19.959044   -2.726138   -1.870329
     26          6           0       19.725088   -3.926851   -2.873975
     27          6           0       18.280203   -3.716419   -3.469984
     28          6           0       17.845884   -2.398972   -2.622849
     29          6           0       20.821805   -4.196854   -3.937443
     30          6           0       17.384519   -4.929920   -3.141099
     31          6           0       16.275516   -5.218428   -4.160201
     32          7           0       16.822313   -0.116496   -1.169015
     33          6           0       16.109443   -0.689297   -2.184813
     34          6           0       14.854567    0.054487   -2.347747
     35          6           0       14.932565    1.081647   -1.445951
     36          6           0       16.083161    0.921846   -0.707548
     37          6           0       13.786226   -0.201297   -3.415724
     38          6           0       14.221905    2.207527   -0.918701
     39          8           0       13.172225    2.717505   -1.224435
     40          6           0       15.070890    2.757366    0.275847
     41          6           0       15.516861    4.130949   -0.085853
     42          8           0       16.039123    4.478849   -1.108427
     43          8           0       15.357581    4.961788    1.036762
     44          6           0       15.818776    6.311852    0.880023
     45          1           0       21.032055    1.325360    3.213606
     46          1           0       21.711839   -3.553631   -1.211799
     47          1           0       15.923769   -2.231612   -3.589716
     48          1           0       17.223086    3.811345    2.175596
     49          1           0       19.011970    2.330905    3.983194
     50          1           0       20.317593    3.959683    3.670460
     51          1           0       19.488586    4.655020    2.097339
     52          1           0       20.635704    3.428217    2.070504
     53          1           0       16.583466    1.428344    4.122853
     54          1           0       15.367705    2.232198    3.176494
     55          1           0       16.388048    4.286937    4.395161
     56          1           0       17.111394    3.104384    5.432568
     57          1           0       22.905601   -1.414984    3.918706
     58          1           0       22.893108    0.297514    3.827258
     59          1           0       24.295920   -0.508018    3.241049
     60          1           0       22.468270   -4.758602    0.617665
     61          1           0       24.173490   -5.114817    0.866955
     62          1           0       23.668605   -4.017557   -0.553123
     63          1           0       19.731515   -4.824570   -2.255139
     64          1           0       18.246038   -3.488686   -4.534908
     65          1           0       21.362963   -5.096007   -3.641158
     66          1           0       21.430746   -3.299522   -4.042263
     67          1           0       20.356123   -4.470296   -4.884242
     68          1           0       16.962749   -4.705579   -2.161693
     69          1           0       17.935377   -5.852290   -2.955921
     70          1           0       16.483387   -6.246340   -4.459307
     71          1           0       16.226934   -4.513525   -4.990267
     72          1           0       15.303044   -5.227473   -3.667793
     73          1           0       12.750269   -0.181546   -3.078962
     74          1           0       14.083293   -1.178796   -3.796394
     75          1           0       14.035737    0.454345   -4.250126
     76          1           0       14.407673    2.769048    1.140863
     77          1           0       14.927218    6.938124    0.846968
     78          1           0       16.455946    6.565542    0.032477
     79          1           0       16.418682    6.551571    1.757529
     80         12           0      -18.856165   -0.497286    0.032629
     81          6           0      -15.901728    1.436605   -0.007294
     82          6           0      -19.993609    1.199912   -2.706696
     83          6           0      -21.813225   -1.857247    0.558354
     84          6           0      -17.785550   -1.834750    3.139207
     85          7           0      -17.956265    1.062212   -1.269319
     86          6           0      -16.790103    1.649893   -1.088025
     87          6           0      -16.423593    2.383753   -2.365334
     88          6           0      -17.825833    2.689544   -3.019542
     89          6           0      -18.683894    1.587815   -2.292835
     90          6           0      -18.242968    4.194594   -2.808422
     91          6           0      -15.589258    1.508157   -3.335222
     92          6           0      -14.742969    2.300528   -4.426023
     93          1           0      -14.782829    3.827544   -4.529900
     94          7           0      -20.557118   -0.510426   -1.034735
     95          6           0      -20.861417    0.205188   -2.221088
     96          6           0      -22.211863   -0.202484   -2.674092
     97          6           0      -22.778428   -1.047264   -1.653222
     98          6           0      -21.733814   -1.203521   -0.617866
     99          6           0      -22.816638    0.224107   -3.964976
    100          6           0      -24.171634   -1.775740   -1.514585
    101          8           0      -24.460630   -2.552327   -0.594031
    102          6           0      -25.265350   -1.406316   -2.474298
    103          7           0      -19.737462   -1.604442    1.701817
    104          6           0      -20.947434   -2.094458    1.647000
    105          6           0      -21.350537   -2.941700    2.821224
    106          6           0      -20.042998   -2.941542    3.688775
    107          6           0      -19.071817   -2.150713    2.755742
    108          6           0      -22.656472   -2.452888    3.454552
    109          6           0      -19.491966   -4.324704    4.011839
    110          6           0      -18.920503   -4.535677    5.459641
    111          7           0      -17.141094   -0.353355    1.354173
    112          6           0      -16.843487   -1.003834    2.567705
    113          6           0      -15.500452   -0.704015    2.928152
    114          6           0      -15.124751    0.379061    2.071068
    115          6           0      -16.109931    0.513814    1.125903
    116          6           0      -14.686921   -1.430774    3.960350
    117          6           0      -14.081135    1.326874    1.611765
    118          8           0      -12.981856    1.558998    2.070200
    119          6           0      -14.700399    2.193156    0.414329
    120          6           0      -13.632567    2.609531   -0.543513
    121          8           0      -12.933099    1.888255   -1.191723
    122          8           0      -13.455558    4.005768   -0.537073
    123          6           0      -12.092786    4.500875   -0.825465
    124          1           0      -20.499962    1.822692   -3.447682
    125          1           0      -22.699141   -2.463795    0.754554
    126          1           0      -17.456713   -2.323654    4.058686
    127          1           0      -15.775600    3.183412   -2.006670
    128          1           0      -17.819619    2.492370   -4.092070
    129          1           0      -17.480810    4.720351   -2.234248
    130          1           0      -19.092471    4.127152   -2.128757
    131          1           0      -18.388095    4.761733   -3.727959
    132          1           0      -16.332898    0.897189   -3.848536
    133          1           0      -14.951579    0.871542   -2.721984
    134          1           0      -15.054944    1.866932   -5.377382
    135          1           0      -13.715328    1.972456   -4.267860
    136          1           0      -22.193210    0.726700   -4.703584
    137          1           0      -23.626752    0.939456   -3.826027
    138          1           0      -23.150203   -0.711973   -4.413541
    139          1           0      -25.257472   -1.981484   -3.400037
    140          1           0      -25.033397   -0.348288   -2.602309
    141          1           0      -26.197694   -1.519374   -1.921758
    142          1           0      -21.499504   -3.913695    2.351151
    143          1           0      -20.142966   -2.419633    4.639673
    144          1           0      -22.858246   -1.394007    3.289909
    145          1           0      -22.517207   -2.582616    4.527080
    146          1           0      -23.526749   -3.011688    3.109664
    147          1           0      -18.686226   -4.595583    3.329767
    148          1           0      -20.286339   -5.001413    3.697335
    149          1           0      -18.870321   -3.596233    6.009857
    150          1           0      -17.905849   -4.898947    5.297846
    151          1           0      -19.407574   -5.255804    6.117942
    152          1           0      -15.330964   -1.478515    4.838566
    153          1           0      -13.758959   -0.932218    4.240996
    154          1           0      -14.509360   -2.457130    3.637581
    155          1           0      -15.002813    3.161876    0.810821
    156          1           0      -12.134415    5.064749   -1.757470
    157          1           0      -11.362527    3.693236   -0.886748
    158          1           0      -11.847726    5.159616    0.007627
 ---------------------------------------------------------------------

 SCF Done:  E(RCAM-B3LYP) =  -4069.80420699     A.U. after   19 cycles

 Excitation energies and oscillator strengths:

 Excited State   1:      Singlet-A      1.7653 eV  702.36 nm  f=0.4187  <S**2>=0.000
     309 -> 316       -0.17232
     311 -> 313        0.68720
     309 <- 316       -0.10341
 This state for optimization and/or second-order correction.
 Total Energy, E(TD-HF/TD-DFT) =  -4069.73933523
 Copying the excited state density for this state as the 1-particle RhoCI density.

 Excited State   2:      Singlet-A      1.7948 eV  690.81 nm  f=0.3534  <S**2>=0.000
     310 -> 315        0.18882
     312 -> 314        0.68002
     310 <- 315        0.10302

 Excited State   3:      Singlet-A      2.1691 eV  571.59 nm  f=0.0989  <S**2>=0.000
     310 -> 314        0.64307
     312 -> 315       -0.27288

 Excited State   4:      Singlet-A      2.2942 eV  540.42 nm  f=0.1176  <S**2>=0.000
     309 -> 313        0.63733
     311 -> 316        0.29072

 Excited State   5:      Singlet-A      3.0972 eV  400.31 nm  f=0.0000  <S**2>=0.000
     312 -> 313        0.70710

 The electronic state is 1-A.
 Alpha  occ. eigenvalues --  -46.89618 -46.88506 -19.24898 -19.23221 -19.20451
 Alpha  occ. eigenvalues --  -19.20277 -19.19533 -19.18653 -19.18479 -19.18328
 Alpha  occ. eigenvalues --  -14.42615 -14.42302 -14.41934 -14.41708 -14.40184
 Alpha  occ. eigenvalues --  -14.39711 -14.39051 -14.37970 -10.39460 -10.38505
 Alpha  occ. eigenvalues --  -10.36768 -10.34821 -10.34775 -10.34106 -10.32317
 Alpha  occ. eigenvalues --  -10.32180 -10.31550 -10.31515 -10.31178 -10.31133
 Alpha  occ. eigenvalues --  -10.31075 -10.31035 -10.30833 -10.30783 -10.30603
 Alpha  occ. eigenvalues --  -10.30578 -10.30519 -10.30061 -10.29701 -10.29500
 Alpha  occ. eigenvalues --  -10.29190 -10.29176 -10.28539 -10.28305 -10.28204
 Alpha  occ. eigenvalues --  -10.28189 -10.28168 -10.28153 -10.28146 -10.28125
 Alpha  occ. eigenvalues --  -10.28058 -10.27950 -10.27860 -10.27858 -10.27822
 Alpha  occ. eigenvalues --  -10.27745 -10.27704 -10.27696 -10.27665 -10.27596
 Alpha  occ. eigenvalues --  -10.27594 -10.27560 -10.27483 -10.27368 -10.27354
 Alpha  occ. eigenvalues --  -10.26878 -10.26871 -10.26757 -10.26661 -10.26498
 Alpha  occ. eigenvalues --  -10.26460 -10.26357 -10.26199 -10.26193 -10.26124
 Alpha  occ. eigenvalues --  -10.26051 -10.26039 -10.26010 -10.25940 -10.25846
 Alpha  occ. eigenvalues --  -10.25828 -10.25583 -10.25582 -10.25415 -10.24390
 Alpha  occ. eigenvalues --  -10.23939  -3.18039  -3.16967  -1.92946  -1.92498
 Alpha  occ. eigenvalues --   -1.92327  -1.91880  -1.91424  -1.91263  -1.16573
 Alpha  occ. eigenvalues --   -1.15157  -1.10455  -1.10289  -1.10080  -1.09504
 Alpha  occ. eigenvalues --   -1.08783  -1.06953  -1.05075  -1.04551  -1.04485
 Alpha  occ. eigenvalues --   -1.03747  -1.03679  -1.02781  -1.01660  -1.00938
 Alpha  occ. eigenvalues --   -0.93221  -0.91781  -0.89370  -0.89253  -0.89191
 Alpha  occ. eigenvalues --   -0.88871  -0.88796  -0.88051  -0.87711  -0.87563
 Alpha  occ. eigenvalues --   -0.87203  -0.86417  -0.85905  -0.85407  -0.85171
 Alpha  occ. eigenvalues --   -0.84006  -0.83951  -0.83654  -0.83121  -0.82838
 Alpha  occ. eigenvalues --   -0.82546  -0.81663  -0.81257  -0.80809  -0.80637
 Alpha  occ. eigenvalues --   -0.79828  -0.78568  -0.77717  -0.77309  -0.77159
 Alpha  occ. eigenvalues --   -0.77071  -0.76340  -0.76162  -0.75486  -0.75362
 Alpha  occ. eigenvalues --   -0.75116  -0.73203  -0.72474  -0.72004  -0.71662
 Alpha  occ. eigenvalues --   -0.69798  -0.69293  -0.69030  -0.68587  -0.67745
 Alpha  occ. eigenvalues --   -0.67218  -0.66723  -0.66597  -0.66057  -0.66014
 Alpha  occ. eigenvalues --   -0.65537  -0.65158  -0.64938  -0.64573  -0.64490
 Alpha  occ. eigenvalues --   -0.63431  -0.62653  -0.61008  -0.60199  -0.60173
 Alpha  occ. eigenvalues --   -0.59855  -0.59270  -0.59069  -0.58810  -0.58567
 Alpha  occ. eigenvalues --   -0.58417  -0.58022  -0.57531  -0.57507  -0.56794
 Alpha  occ. eigenvalues --   -0.56463  -0.56423  -0.55859  -0.55436  -0.55400
 Alpha  occ. eigenvalues --   -0.55045  -0.54887  -0.54345  -0.54230  -0.53984
 Alpha  occ. eigenvalues --   -0.53651  -0.53531  -0.53279  -0.53163  -0.53108
 Alpha  occ. eigenvalues --   -0.53085  -0.52789  -0.52602  -0.52144  -0.51983
 Alpha  occ. eigenvalues --   -0.51863  -0.51701  -0.51683  -0.51616  -0.51329
 Alpha  occ. eigenvalues --   -0.51167  -0.50877  -0.50801  -0.50694  -0.50477
 Alpha  occ. eigenvalues --   -0.50325  -0.50244  -0.50139  -0.50000  -0.49832
 Alpha  occ. eigenvalues --   -0.49275  -0.49246  -0.49003  -0.48901  -0.48820
 Alpha  occ. eigenvalues --   -0.48621  -0.48300  -0.48256  -0.48061  -0.47990
 Alpha  occ. eigenvalues --   -0.47802  -0.47500  -0.47486  -0.47339  -0.47282
 Alpha  occ. eigenvalues --   -0.47113  -0.47054  -0.46984  -0.46528  -0.46462
 Alpha  occ. eigenvalues --   -0.46426  -0.46359  -0.46117  -0.46104  -0.45766
 Alpha  occ. eigenvalues --   -0.45529  -0.45412  -0.45285  -0.45088  -0.45008
 Alpha  occ. eigenvalues --   -0.44840  -0.44633  -0.44220  -0.44123  -0.43911
 Alpha  occ. eigenvalues --   -0.43872  -0.43687  -0.43654  -0.43294  -0.43274
 Alpha  occ. eigenvalues --   -0.43196  -0.43042  -0.42915  -0.42704  -0.42672
 Alpha  occ. eigenvalues --   -0.42567  -0.42338  -0.42253  -0.42223  -0.41995
 Alpha  occ. eigenvalues --   -0.41978  -0.41820  -0.41650  -0.41521  -0.41498
 Alpha  occ. eigenvalues --   -0.41320  -0.41113  -0.40943  -0.40569  -0.40221
 Alpha  occ. eigenvalues --   -0.40105  -0.39969  -0.39873  -0.39673  -0.39026
 Alpha  occ. eigenvalues --   -0.38777  -0.38748  -0.38004  -0.37690  -0.37632
 Alpha  occ. eigenvalues --   -0.37526  -0.36861  -0.36475  -0.36342  -0.36048
 Alpha  occ. eigenvalues --   -0.35721  -0.35359  -0.35203  -0.34204  -0.34133
 Alpha  occ. eigenvalues --   -0.33762  -0.33681  -0.33064  -0.31873  -0.31722
 Alpha  occ. eigenvalues --   -0.31157  -0.30998  -0.30608  -0.30440  -0.30080
 Alpha  occ. eigenvalues --   -0.29906  -0.29887  -0.28266  -0.24626  -0.23693
 Alpha  occ. eigenvalues --   -0.21620  -0.21296
 Alpha virt. eigenvalues --   -0.08990  -0.08457  -0.01993  -0.01898  -0.00093
 Alpha virt. eigenvalues --    0.00961   0.02072   0.02753   0.02772   0.03041
 Alpha virt. eigenvalues --    0.04462   0.04862   0.05445   0.05802   0.05868

 Mulliken charges:
               1
     1  Mg   0.819427
     2  C    0.006829
     3  C   -0.063032
     4  C   -0.089757
     5  C   -0.063105
     6  N   -0.264028
     7  C   -0.106148
     8  C    0.076762
     9  C   -0.101722
    10  C    0.006158
    11  C    0.083488
    12  C    0.079416
    13  C   -0.054153
    14  H    0.025281
    15  N   -0.352377
    16  C    0.163993
    17  C   -0.119943
    18  C   -0.079755
    19  C    0.210341
    20  C    0.108909
    21  C   -0.024762
    22  O   -0.198902
    23  C    0.067355
    24  N   -0.318202
    25  C    0.038766
    26  C   -0.072128
    27  C   -0.046005
    28  C    0.073397
    29  C    0.071538
    30  C    0.009600
    31  C    0.015614
    32  N   -0.337756
    33  C    0.071554
    34  C   -0.219879
    35  C    0.070851
    36  C    0.099110
    37  C    0.148647
    38  C    0.009805
    39  O   -0.147507
    40  C   -0.000641
    41  C    0.189474
    42  O   -0.181764
    43  O   -0.348308
    44  C    0.164119
    45  H   -0.031053
    46  H   -0.042686
    47  H   -0.031326
    48  H   -0.002955
    49  H    0.005801
    50  H    0.021097
    51  H    0.026155
    52  H    0.008107
    53  H    0.004411
    54  H    0.011842
    55  H    0.014296
    56  H    0.017944
    57  H    0.035793
    58  H   -0.003354
    59  H    0.050404
    60  H    0.031129
    61  H    0.030810
    62  H    0.058522
    63  H    0.015096
    64  H    0.017493
    65  H    0.014280
    66  H    0.028234
    67  H    0.012849
    68  H    0.008967
    69  H    0.006475
    70  H    0.015350
    71  H    0.022914
    72  H    0.016466
    73  H    0.048066
    74  H   -0.016019
    75  H    0.035037
    76  H    0.042254
    77  H    0.038460
    78  H    0.044863
    79  H    0.023717
    80  Mg   0.811736
    81  C    0.065962
    82  C   -0.080734
    83  C   -0.049855
    84  C   -0.080334
    85  N   -0.243679
    86  C   -0.044141
    87  C   -0.078521
    88  C   -0.052600
    89  C    0.070657
    90  C    0.081536
    91  C    0.031116
    92  C   -0.039739
    93  H    0.027273
    94  N   -0.472461
    95  C    0.156163
    96  C   -0.129865
    97  C   -0.044041
    98  C    0.185465
    99  C    0.083040
   100  C    0.032461
   101  O   -0.206846
   102  C    0.049073
   103  N   -0.232693
   104  C   -0.065531
   105  C    0.007721
   106  C   -0.051197
   107  C    0.034422
   108  C    0.080396
   109  C    0.038159
   110  C   -0.000209
   111  N   -0.356279
   112  C    0.124445
   113  C   -0.178830
   114  C    0.006987
   115  C    0.040634
   116  C    0.124967
   117  C    0.058968
   118  O   -0.165302
   119  C   -0.025043
   120  C    0.157010
   121  O   -0.178188
   122  O   -0.379245
   123  C    0.174344
   124  H   -0.025480
   125  H   -0.012950
   126  H   -0.046870
   127  H    0.010084
   128  H    0.009999
   129  H    0.016397
   130  H    0.011388
   131  H    0.026195
   132  H    0.000510
   133  H    0.030980
   134  H    0.019254
   135  H    0.041764
   136  H    0.019248
   137  H    0.042627
   138  H    0.038228
   139  H    0.056896
   140  H    0.022344
   141  H    0.038996
   142  H    0.015437
   143  H    0.015267
   144  H    0.024421
   145  H    0.009819
   146  H    0.034378
   147  H    0.006800
   148  H   -0.002373
   149  H    0.016803
   150  H    0.017343
   151  H    0.022444
   152  H    0.015579
   153  H    0.033923
   154  H    0.028236
   155  H    0.049820
   156  H    0.034608
   157  H    0.053050
   158  H    0.037633
 Sum of Mulliken charges =  -0.00000

 Dipole moment (field-independent basis, Debye):
    X=             -3.2133    Y=             -2.1114    Z=             -2.3606  Tot=              4.5117
 Quadrupole moment (field-independent basis, Debye-Ang):
   XX=           -309.0284   YY=           -481.4678   ZZ=           -480.9536
   XY=            -16.3437   XZ=             34.6999   YZ=             13.0048

 Normal termination of Gaussian 16 at Thu Sep 16 11:17:11 2021.
