 Gaussian 16, Revision A.03,
 Gaussian 16:  ES64L-G16RevA.03 25-Dec-2016

 -----------------------------------------------------------
 #p cam-b3lyp/Def2SVP td=(nstates=5, root=1) density=current
 -----------------------------------------------------------

 --------------------------------
 TDDFT excited states in gaussian
 --------------------------------
 Symbolic Z-matrix:
 Charge =  0 Multiplicity = 1

                         Standard orientation:
 ---------------------------------------------------------------------
 Center     Atomic      Atomic             Coordinates (Angstroms)
 Number     Number       Type             X           Y           Z
 ---------------------------------------------------------------------
      1         12           0       -0.729001   -0.036937    0.216630
      2          6           0        2.768552    0.211233   -0.202608
      3          6           0       -0.516530   -3.433356   -0.095389
      4          6           0       -4.013512   -0.103524   -0.062018
      5          6           0       -0.872536    3.503174    0.035344
      6          7           0        0.981945   -1.438120    0.001525
      7          6           0        2.250479   -1.103647   -0.129320
      8          6           0        3.095114   -2.345343    0.092447
      9          6           0        2.122053   -3.519167   -0.311365
     10          6           0        0.747316   -2.771660   -0.139581
     11          6           0        2.468592   -4.087763   -1.739777
     12          6           0        3.516826   -2.520363    1.573998
     13          6           0        4.778990   -3.456899    1.826480
     14          1           0        5.503688   -4.166374    0.679477
     15          7           0       -2.060273   -1.539569    0.166675
     16          6           0       -1.815299   -2.935772    0.114353
     17          6           0       -3.118706   -3.637199    0.179483
     18          6           0       -4.155836   -2.639423    0.104462
     19          6           0       -3.469111   -1.330010    0.066508
     20          6           0       -3.260027   -5.113741    0.297657
     21          6           0       -5.731593   -2.728119    0.097699
     22          8           0       -6.482640   -1.743541    0.121369
     23          6           0       -6.366730   -4.075833   -0.086709
     24          7           0       -2.252122    1.501485   -0.102784
     25          6           0       -3.527650    1.219531   -0.128933
     26          6           0       -4.445435    2.406134   -0.222502
     27          6           0       -3.433202    3.604972   -0.200694
     28          6           0       -2.085102    2.846907    0.016371
     29          6           0       -5.417817    2.282597   -1.399243
     30          6           0       -3.676000    4.624464    0.905121
     31          6           0       -3.479113    6.136081    0.526360
     32          7           0        0.644379    1.633640    0.038695
     33          6           0        0.421796    3.024537    0.023961
     34          6           0        1.678518    3.687958    0.087789
     35          6           0        2.645466    2.665984   -0.175611
     36          6           0        1.987485    1.462544   -0.146183
     37          6           0        1.887917    5.139424    0.411582
     38          6           0        4.069481    2.271861   -0.299270
     39          8           0        5.069841    2.958345   -0.321157
     40          6           0        4.117782    0.694280   -0.576199
     41          6           0        5.369816    0.098583   -0.020634
     42          8           0        5.707606    0.086219    1.126280
     43          8           0        6.203044   -0.388411   -1.045045
     44          6           0        7.658629   -0.344353   -0.790532
     45          1           0       -0.550544   -4.487893   -0.378415
     46          1           0       -5.099863   -0.011542   -0.010805
     47          1           0       -0.950112    4.592237    0.058275
     48          1           0        3.996483   -2.129572   -0.481109
     49          1           0        2.174223   -4.345521    0.398319
     50          1           0        3.306024   -3.540162   -2.170848
     51          1           0        1.612272   -3.788431   -2.344148
     52          1           0        2.742821   -5.142630   -1.757386
     53          1           0        2.645666   -2.976010    2.046480
     54          1           0        3.674405   -1.521628    1.981023
     55          1           0        4.425156   -4.199951    2.542785
     56          1           0        5.484210   -2.826988    2.369223
     57          1           0       -2.378488   -5.716464    0.513108
     58          1           0       -3.628234   -5.569055   -0.621272
     59          1           0       -3.944764   -5.239392    1.136745
     60          1           0       -6.517172   -4.627094    0.841382
     61          1           0       -5.633232   -4.522440   -0.759120
     62          1           0       -7.299814   -3.895337   -0.619740
     63          1           0       -4.985601    2.342266    0.721995
     64          1           0       -3.391541    4.165928   -1.133530
     65          1           0       -5.053141    1.650347   -2.209380
     66          1           0       -5.504036    3.290756   -1.802633
     67          1           0       -6.395214    1.903570   -1.099877
     68          1           0       -3.022219    4.442110    1.757841
     69          1           0       -4.649519    4.345044    1.307689
     70          1           0       -3.050731    6.245524   -0.469794
     71          1           0       -2.759603    6.504795    1.257126
     72          1           0       -4.338486    6.805943    0.570454
     73          1           0        1.191958    5.671932   -0.236807
     74          1           0        2.894239    5.508614    0.212966
     75          1           0        1.583233    5.337933    1.439628
     76          1           0        4.276811    0.536619   -1.642469
     77          1           0        8.022203   -1.371639   -0.761938
     78          1           0        7.902558    0.184938    0.131240
     79          1           0        8.080393    0.185313   -1.644701
 ---------------------------------------------------------------------

 SCF Done:  E(RCAM-B3LYP) =  -2034.89487227     A.U. after   19 cycles

 Excitation energies and oscillator strengths:

 Excited State   1:      Singlet-A      1.7949 eV  690.75 nm  f=0.3732  <S**2>=0.000
     155 ->158        -0.18897
     156 ->157         0.68029
     155 <-158        -0.10308
 This state for optimization and/or second-order correction.
 Total Energy, E(TD-HF/TD-DFT) =  -2034.82891027
 Copying the excited state density for this state as the 1-particle RhoCI density.

 Excited State   2:      Singlet-A      2.1693 eV  571.55 nm  f=0.0991  <S**2>=0.000
     155 ->157         0.64309
     156 ->158         0.27283

 Excited State   3:      Singlet-A      3.2259 eV  384.34 nm  f=0.0016  <S**2>=0.000
     153 ->157        -0.15183
     154 ->157         0.66578

 Excited State   4:      Singlet-A      3.4302 eV  361.44 nm  f=0.2989  <S**2>=0.000
     151 ->157        -0.21722
     152 ->157         0.20756
     153 ->157        -0.27645
     155 ->157        -0.18498
     156 ->158         0.53707

 Excited State   5:      Singlet-A      3.5682 eV  347.47 nm  f=0.0290  <S**2>=0.000
     150 ->157         0.51199
     150 ->158        -0.12669
     150 ->159        -0.36480
     150 ->160        -0.11212
     151 ->157        -0.13813

 The electronic state is 1-A.
 Alpha  occ. eigenvalues --  -46.88534 -19.23261 -19.20302 -19.19571 -19.18360
 Alpha  occ. eigenvalues --  -14.41962 -14.41735 -14.39738 -14.37999 -10.38543
 Alpha  occ. eigenvalues --  -10.36792 -10.34808 -10.32209 -10.31544 -10.30878
 Alpha  occ. eigenvalues --  -10.30810 -10.30630 -10.30606 -10.30090 -10.29728
 Alpha  occ. eigenvalues --  -10.29203 -10.28204 -10.28183 -10.28086 -10.27975
 Alpha  occ. eigenvalues --  -10.27887 -10.27851 -10.27690 -10.27627 -10.27621
 Alpha  occ. eigenvalues --  -10.27588 -10.27383 -10.26894 -10.26692 -10.26217
 Alpha  occ. eigenvalues --  -10.26151 -10.26074 -10.25973 -10.25869 -10.25859
 Alpha  occ. eigenvalues --  -10.25613 -10.25443 -10.24419  -3.16995  -1.91908
 Alpha  occ. eigenvalues --   -1.91452  -1.91291  -1.15196  -1.10479  -1.09537
 Alpha  occ. eigenvalues --   -1.06993  -1.05102  -1.04515  -1.01689  -1.00965
 Alpha  occ. eigenvalues --   -0.91812  -0.89278  -0.88897  -0.87741  -0.87590
 Alpha  occ. eigenvalues --   -0.87231  -0.85436  -0.83978  -0.83683  -0.82863
 Alpha  occ. eigenvalues --   -0.81692  -0.80668  -0.79861  -0.78595  -0.77185
 Alpha  occ. eigenvalues --   -0.76373  -0.75395  -0.75145  -0.72502  -0.71692
 Alpha  occ. eigenvalues --   -0.69823  -0.68617  -0.67248  -0.66626  -0.66039
 Alpha  occ. eigenvalues --   -0.65189  -0.64519  -0.63460  -0.61044  -0.60199
 Alpha  occ. eigenvalues --   -0.59098  -0.58597  -0.58051  -0.57537  -0.56825
 Alpha  occ. eigenvalues --   -0.56452  -0.55432  -0.55076  -0.54261  -0.53676
 Alpha  occ. eigenvalues --   -0.53195  -0.53113  -0.52819  -0.52174  -0.52015
 Alpha  occ. eigenvalues --   -0.51727  -0.51359  -0.51195  -0.50904  -0.50504
 Alpha  occ. eigenvalues --   -0.50171  -0.50027  -0.49276  -0.48934  -0.48647
 Alpha  occ. eigenvalues --   -0.48327  -0.48020  -0.47833  -0.47515  -0.47312
 Alpha  occ. eigenvalues --   -0.47015  -0.46554  -0.46488  -0.46147  -0.45556
 Alpha  occ. eigenvalues --   -0.45443  -0.45037  -0.44872  -0.44248  -0.43938
 Alpha  occ. eigenvalues --   -0.43715  -0.43323  -0.43070  -0.42733  -0.42596
 Alpha  occ. eigenvalues --   -0.42251  -0.42008  -0.41685  -0.41548  -0.41351
 Alpha  occ. eigenvalues --   -0.41144  -0.40972  -0.40132  -0.39996  -0.39054
 Alpha  occ. eigenvalues --   -0.38781  -0.37719  -0.37555  -0.36373  -0.35750
 Alpha  occ. eigenvalues --   -0.35399  -0.34167  -0.33791  -0.33095  -0.31897
 Alpha  occ. eigenvalues --   -0.31185  -0.30471  -0.29917  -0.28296  -0.23722
 Alpha  occ. eigenvalues --   -0.21324
 Alpha virt. eigenvalues --   -0.08484  -0.02020  -0.00120   0.02724   0.03014
 Alpha virt. eigenvalues --    0.04826   0.05771   0.06390   0.06442   0.07569
 Alpha virt. eigenvalues --    0.08579   0.08821   0.09373   0.10349   0.10620

 Mulliken charges:
               1
     1  Mg   0.803579
     2  C    0.045927
     3  C   -0.083299
     4  C   -0.059465
     5  C   -0.097149
     6  N   -0.258726
     7  C   -0.019207
     8  C   -0.082680
     9  C   -0.054120
    10  C    0.077603
    11  C    0.082923
    12  C    0.031486
    13  C   -0.040352
    14  H    0.029262
    15  N   -0.472975
    16  C    0.149857
    17  C   -0.135335
    18  C   -0.050293
    19  C    0.189462
    20  C    0.084976
    21  C    0.023788
    22  O   -0.219257
    23  C    0.050793
    24  N   -0.247400
    25  C   -0.054423
    26  C    0.005325
    27  C   -0.058225
    28  C    0.062246
    29  C    0.081942
    30  C    0.035587
    31  C   -0.000305
    32  N   -0.359709
    33  C    0.143525
    34  C   -0.174225
    35  C    0.009549
    36  C    0.055627
    37  C    0.125884
    38  C    0.057516
    39  O   -0.162173
    40  C   -0.020656
    41  C    0.156124
    42  O   -0.178109
    43  O   -0.378969
    44  C    0.174135
    45  H   -0.027180
    46  H   -0.016338
    47  H   -0.046488
    48  H    0.011962
    49  H    0.012472
    50  H    0.014341
    51  H    0.013576
    52  H    0.027123
    53  H    0.004163
    54  H    0.032045
    55  H    0.021097
    56  H    0.042171
    57  H    0.012709
    58  H    0.036492
    59  H    0.033687
    60  H    0.052156
    61  H    0.020427
    62  H    0.033379
    63  H    0.021355
    64  H    0.021838
    65  H    0.027090
    66  H    0.008447
    67  H    0.037952
    68  H    0.008555
    69  H    0.002908
    70  H    0.017326
    71  H    0.018056
    72  H    0.024946
    73  H    0.018868
    74  H    0.038027
    75  H    0.032060
    76  H    0.048578
    77  H    0.035214
    78  H    0.052999
    79  H    0.037924
 Sum of Mulliken charges =  -0.00000

 Dipole moment (field-independent basis, Debye):
    X=             -2.5007    Y=             -1.5652    Z=             -0.5381  Tot=              2.9988
 Quadrupole moment (field-independent basis, Debye-Ang):
   XX=           -273.5089   YY=           -225.6155   ZZ=           -257.0792
   XY=            -20.1295   XZ=             -6.3988   YZ=              0.8224

 Normal termination of Gaussian 16 at Tue Oct 12 13:38:46 2021.
