 Gaussian 16, Revision A.03,
 Gaussian 16:  ES64L-G16RevA.03 25-Dec-2016

 -----------------------------------
 #p cam-b3lyp/Def2SVP td=(nstates=5)
 -----------------------------------

 --------------------------------
 TDDFT excited states in gaussian
 --------------------------------
 Symbolic Z-matrix:
 Charge =  0 Multiplicity = 1

                         Standard orientation:
 ---------------------------------------------------------------------
 Center     Atomic      Atomic             Coordinates (Angstroms)
 Number     Number       Type             X           Y           Z
 ---------------------------------------------------------------------
      1         12           0       13.768561   -0.868824   -0.247489
      2          6           0       14.235916    2.448196    0.391737
      3          6           0       10.433846   -0.134605   -1.171890
      4          6           0       13.197084   -4.141841   -0.664630
      5          6           0       17.043281   -1.451840    0.609878
      6          7           0       12.390913    0.867326   -0.081812
      7          6           0       12.872510    2.169248    0.105601
      8          6           0       11.746387    3.231972   -0.037296
      9          6           0       10.584483    2.296936   -0.466111
     10          6           0       11.138279    0.884744   -0.524030
     11          6           0        9.186413    2.308595    0.287070
     12          6           0       12.000830    4.410817   -1.076592
     13          6           0       10.794574    5.384475   -1.156704
     14          1           0       11.072033    6.744003   -0.513630
     15          7           0       12.018694   -1.995203   -0.898962
     16          6           0       10.868851   -1.460258   -1.438799
     17          6           0       10.013341   -2.598698   -1.752583
     18          6           0       10.830773   -3.763517   -1.592129
     19          6           0       12.088676   -3.348801   -1.055517
     20          6           0        8.625164   -2.399899   -2.225933
     21          6           0       10.299067   -5.221059   -1.823308
     22          8           0       10.925127   -6.246741   -1.487220
     23          6           0        8.929823   -5.437217   -2.413170
     24          7           0       14.875689   -2.467088   -0.039137
     25          6           0       14.429435   -3.800246   -0.261238
     26          6           0       15.431677   -4.801337    0.267172
     27          6           0       16.705839   -3.962580    0.188513
     28          6           0       16.214899   -2.521925    0.202854
     29          6           0       15.107116   -5.282758    1.721182
     30          6           0       17.488730   -4.185465   -1.124761
     31          6           0       18.461916   -5.331604   -1.193745
     32          7           0       15.399338    0.195987    0.428725
     33          6           0       16.695256   -0.115747    0.591559
     34          6           0       17.415436    1.050135    1.010969
     35          6           0       16.516952    2.093044    0.934213
     36          6           0       15.296576    1.530461    0.529087
     37          6           0       18.870021    1.022887    1.327796
     38          6           0       16.394352    3.477348    1.108042
     39          8           0       17.206703    4.330090    1.410194
     40          6           0       14.864363    3.784063    0.752231
     41          6           0       14.248097    4.455617    1.928011
     42          8           0       14.028777    3.972454    3.012092
     43          8           0       13.803821    5.675348    1.610591
     44          6           0       13.106062    6.443911    2.712273
     45          1           0        9.477299    0.188735   -1.587384
     46          1           0       13.027675   -5.211583   -0.802765
     47          1           0       18.119440   -1.536129    0.772736
     48          1           0       11.541694    3.651419    0.947776
     49          1           0       10.318794    2.502009   -1.503585
     50          1           0        8.301798    2.165937   -0.334149
     51          1           0        9.144326    3.154322    0.973650
     52          1           0        9.203334    1.397891    0.885614
     53          1           0       12.234875    3.883489   -2.000574
     54          1           0       12.895187    4.950727   -0.765857
     55          1           0        9.895133    4.893247   -0.785479
     56          1           0       10.635515    5.590474   -2.214770
     57          1           0        7.951955   -2.753142   -1.444604
     58          1           0        8.576549   -2.872962   -3.206735
     59          1           0        8.431530   -1.345875   -2.425552
     60          1           0        8.752796   -6.502962   -2.557938
     61          1           0        9.013646   -5.027335   -3.420621
     62          1           0        8.088522   -4.978180   -1.894603
     63          1           0       15.473862   -5.688334   -0.365540
     64          1           0       17.378915   -4.117142    1.031579
     65          1           0       15.337851   -4.508375    2.451718
     66          1           0       15.655355   -6.197525    1.947986
     67          1           0       14.041638   -5.509970    1.716863
     68          1           0       18.017210   -3.293928   -1.459967
     69          1           0       16.786224   -4.299382   -1.950476
     70          1           0       18.124874   -5.976219   -2.005016
     71          1           0       18.245720   -5.890257   -0.282972
     72          1           0       19.509505   -5.034958   -1.247804
     73          1           0       19.451568    1.346968    0.465611
     74          1           0       19.283861    0.126199    1.790108
     75          1           0       19.008604    1.801246    2.078365
     76          1           0       14.841945    4.450176   -0.110566
     77          1           0       12.344460    5.783039    3.126755
     78          1           0       12.584304    7.331513    2.353504
     79          1           0       13.854893    6.702922    3.461106
     80         12           0      -14.237614    0.093556    0.553237
     81          6           0      -11.724781    1.678564   -1.335377
     82          6           0      -15.549894   -1.010869   -2.471986
     83          6           0      -16.399079   -1.808348    2.227271
     84          6           0      -12.248231    0.533255    3.362581
     85          7           0      -13.543427    0.213790   -1.642896
     86          6           0      -12.572724    1.006051   -2.224232
     87          6           0      -12.716526    1.219700   -3.716448
     88          6           0      -13.960758    0.373445   -4.076963
     89          6           0      -14.395746   -0.201201   -2.689052
     90          6           0      -15.115722    1.183578   -4.794112
     91          6           0      -11.468268    0.808101   -4.617880
     92          6           0      -10.591903   -0.362902   -4.144233
     93          1           0      -10.742801   -1.736439   -4.862706
     94          7           0      -15.733477   -1.189401   -0.033373
     95          6           0      -16.157808   -1.463758   -1.302389
     96          6           0      -17.351567   -2.319846   -1.257315
     97          6           0      -17.622235   -2.564865    0.123777
     98          6           0      -16.534874   -1.834693    0.844927
     99          6           0      -18.103224   -2.786326   -2.498353
    100          6           0      -18.793177   -3.542041    0.513832
    101          8           0      -19.409815   -4.086897   -0.391121
    102          6           0      -19.087263   -3.869249    2.038133
    103          7           0      -14.232607   -0.630683    2.452140
    104          6           0      -15.337688   -1.285442    2.991148
    105          6           0      -15.159047   -1.486443    4.600532
    106          6           0      -13.695489   -0.817819    4.817709
    107          6           0      -13.390035   -0.272046    3.460003
    108          6           0      -16.295267   -0.806809    5.420078
    109          6           0      -12.562149   -1.812848    5.317406
    110          6           0      -11.728589   -1.432472    6.550896
    111          7           0      -12.406754    1.041187    1.010457
    112          6           0      -11.692308    1.146974    2.176231
    113          6           0      -10.438585    1.877200    1.893572
    114          6           0      -10.499273    2.199356    0.511198
    115          6           0      -11.705207    1.612435    0.035921
    116          6           0       -9.323861    2.196095    2.850926
    117          6           0       -9.714558    2.818363   -0.573648
    118          8           0       -8.666114    3.479827   -0.583282
    119          6           0      -10.614806    2.659572   -1.789847
    120          6           0      -11.071348    3.904820   -2.308623
    121          8           0      -12.020200    4.540078   -1.780008
    122          8           0      -10.358147    4.275160   -3.466009
    123          6           0      -10.811575    5.444243   -4.212614
    124          1           0      -16.104018   -1.243578   -3.383358
    125          1           0      -17.179872   -2.290169    2.818731
    126          1           0      -11.712432    0.680714    4.302123
    127          1           0      -12.886321    2.293565   -3.784644
    128          1           0      -13.577057   -0.492567   -4.615100
    129          1           0      -15.197031    0.857599   -5.831006
    130          1           0      -14.826803    2.233113   -4.732287
    131          1           0      -16.079761    1.012448   -4.313956
    132          1           0      -10.861702    1.712744   -4.559507
    133          1           0      -11.802160    0.670368   -5.646555
    134          1           0      -10.734364   -0.542102   -3.078026
    135          1           0       -9.550132   -0.051344   -4.207500
    136          1           0      -17.918180   -3.822352   -2.782183
    137          1           0      -18.022869   -2.055486   -3.303134
    138          1           0      -19.180113   -2.717156   -2.345641
    139          1           0      -19.111034   -2.915251    2.565389
    140          1           0      -18.278619   -4.506572    2.394935
    141          1           0      -19.930227   -4.542832    2.192393
    142          1           0      -15.287754   -2.553068    4.782081
    143          1           0      -13.830445    0.022551    5.499016
    144          1           0      -15.940190    0.181708    5.710633
    145          1           0      -16.636345   -1.416257    6.257020
    146          1           0      -17.230223   -0.688961    4.872540
    147          1           0      -11.919697   -2.006761    4.457880
    148          1           0      -13.149769   -2.697032    5.564400
    149          1           0      -10.788286   -1.982651    6.595519
    150          1           0      -12.389307   -1.714858    7.370228
    151          1           0      -11.565264   -0.360295    6.439979
    152          1           0       -9.395202    1.414728    3.607066
    153          1           0       -9.660150    3.134871    3.291013
    154          1           0       -8.346570    2.352693    2.393380
    155          1           0       -9.944691    2.155933   -2.486200
    156          1           0      -10.745709    6.412647   -3.716606
    157          1           0      -11.845773    5.305106   -4.528903
    158          1           0      -10.297940    5.411174   -5.173579
 ---------------------------------------------------------------------

 SCF Done:  E(RCAM-B3LYP) =  -4069.82536785     A.U. after   18 cycles

 Excitation energies and oscillator strengths:

 Excited State   1:      Singlet-A      1.6533 eV  749.94 nm  f=0.4135  <S**2>=0.000
     309 -> 316        0.16007
     311 -> 313        0.69057
     309 <- 316        0.10386
 This state for optimization and/or second-order correction.
 Total Energy, E(TD-HF/TD-DFT) =  -4069.76461182
 Copying the excited state density for this state as the 1-particle RhoCI density.

 Excited State   2:      Singlet-A      1.7181 eV  721.65 nm  f=0.3582  <S**2>=0.000
     310 -> 315       -0.18142
     312 -> 314        0.68484
     310 <- 315       -0.10788

 Excited State   3:      Singlet-A      2.2511 eV  550.78 nm  f=0.1078  <S**2>=0.000
     309 -> 313        0.63839
     311 -> 316       -0.28835

 Excited State   4:      Singlet-A      2.3103 eV  536.66 nm  f=0.0711  <S**2>=0.000
     310 -> 314        0.61639
     312 -> 315        0.33573

 Excited State   5:      Singlet-A      2.8844 eV  429.84 nm  f=0.0000  <S**2>=0.000
     312 -> 313        0.70708

 The electronic state is 1-A.
 Alpha  occ. eigenvalues --  -46.88988 -46.87465 -19.25870 -19.24875 -19.20310
 Alpha  occ. eigenvalues --  -19.19668 -19.19339 -19.19266 -19.18699 -19.18516
 Alpha  occ. eigenvalues --  -14.42701 -14.42681 -14.42143 -14.41704 -14.40019
 Alpha  occ. eigenvalues --  -14.39378 -14.38829 -14.38813 -10.40098 -10.38488
 Alpha  occ. eigenvalues --  -10.36547 -10.35424 -10.35177 -10.34904 -10.32248
 Alpha  occ. eigenvalues --  -10.32195 -10.32012 -10.31940 -10.31415 -10.31321
 Alpha  occ. eigenvalues --  -10.30998 -10.30697 -10.30648 -10.30524 -10.30149
 Alpha  occ. eigenvalues --  -10.29976 -10.29904 -10.29527 -10.29415 -10.29353
 Alpha  occ. eigenvalues --  -10.29230 -10.29078 -10.28955 -10.28942 -10.28553
 Alpha  occ. eigenvalues --  -10.28531 -10.28442 -10.28431 -10.28374 -10.28371
 Alpha  occ. eigenvalues --  -10.28360 -10.28096 -10.28058 -10.28019 -10.27833
 Alpha  occ. eigenvalues --  -10.27807 -10.27750 -10.27707 -10.27529 -10.27465
 Alpha  occ. eigenvalues --  -10.27416 -10.27339 -10.27319 -10.27216 -10.27189
 Alpha  occ. eigenvalues --  -10.27088 -10.26860 -10.26791 -10.26719 -10.26717
 Alpha  occ. eigenvalues --  -10.26634 -10.26633 -10.26623 -10.26472 -10.26314
 Alpha  occ. eigenvalues --  -10.26134 -10.26106 -10.25930 -10.25793 -10.25710
 Alpha  occ. eigenvalues --  -10.25550 -10.25513 -10.25491 -10.25239 -10.25078
 Alpha  occ. eigenvalues --  -10.24979  -3.17614  -3.16245  -1.92472  -1.92086
 Alpha  occ. eigenvalues --   -1.91919  -1.91147  -1.90716  -1.90544  -1.16871
 Alpha  occ. eigenvalues --   -1.15048  -1.10468  -1.10403  -1.09131  -1.08243
 Alpha  occ. eigenvalues --   -1.07101  -1.07097  -1.05403  -1.04209  -1.03882
 Alpha  occ. eigenvalues --   -1.03609  -1.03065  -1.02674  -1.01943  -1.01924
 Alpha  occ. eigenvalues --   -0.93296  -0.93202  -0.89222  -0.89052  -0.88916
 Alpha  occ. eigenvalues --   -0.88737  -0.88621  -0.88107  -0.87869  -0.87134
 Alpha  occ. eigenvalues --   -0.86868  -0.86529  -0.86144  -0.85622  -0.84591
 Alpha  occ. eigenvalues --   -0.84290  -0.83973  -0.83934  -0.82865  -0.82491
 Alpha  occ. eigenvalues --   -0.81722  -0.81540  -0.81174  -0.81067  -0.80598
 Alpha  occ. eigenvalues --   -0.80147  -0.78349  -0.78232  -0.77522  -0.77283
 Alpha  occ. eigenvalues --   -0.77172  -0.76834  -0.76585  -0.76172  -0.75163
 Alpha  occ. eigenvalues --   -0.74964  -0.73183  -0.72396  -0.71812  -0.71770
 Alpha  occ. eigenvalues --   -0.69405  -0.69362  -0.68973  -0.68913  -0.68493
 Alpha  occ. eigenvalues --   -0.68289  -0.66871  -0.66043  -0.65836  -0.65760
 Alpha  occ. eigenvalues --   -0.65249  -0.64922  -0.64645  -0.64585  -0.64265
 Alpha  occ. eigenvalues --   -0.64145  -0.62510  -0.62045  -0.60296  -0.60217
 Alpha  occ. eigenvalues --   -0.59955  -0.59691  -0.59128  -0.59079  -0.58840
 Alpha  occ. eigenvalues --   -0.58717  -0.58288  -0.57981  -0.57804  -0.57245
 Alpha  occ. eigenvalues --   -0.56512  -0.56205  -0.56042  -0.55671  -0.55012
 Alpha  occ. eigenvalues --   -0.54985  -0.54715  -0.54500  -0.54254  -0.54205
 Alpha  occ. eigenvalues --   -0.53831  -0.53436  -0.53313  -0.53144  -0.52896
 Alpha  occ. eigenvalues --   -0.52678  -0.52670  -0.52402  -0.52254  -0.52188
 Alpha  occ. eigenvalues --   -0.51728  -0.51631  -0.51625  -0.51294  -0.51251
 Alpha  occ. eigenvalues --   -0.51010  -0.50767  -0.50359  -0.50331  -0.50217
 Alpha  occ. eigenvalues --   -0.50040  -0.49945  -0.49863  -0.49696  -0.49425
 Alpha  occ. eigenvalues --   -0.49419  -0.49317  -0.49227  -0.49023  -0.48906
 Alpha  occ. eigenvalues --   -0.48715  -0.48637  -0.48410  -0.48225  -0.48196
 Alpha  occ. eigenvalues --   -0.48049  -0.47706  -0.47461  -0.47427  -0.47257
 Alpha  occ. eigenvalues --   -0.47083  -0.46894  -0.46678  -0.46505  -0.46481
 Alpha  occ. eigenvalues --   -0.46418  -0.46298  -0.46222  -0.45995  -0.45832
 Alpha  occ. eigenvalues --   -0.45811  -0.45454  -0.45442  -0.45237  -0.45028
 Alpha  occ. eigenvalues --   -0.44854  -0.44669  -0.44659  -0.44614  -0.44239
 Alpha  occ. eigenvalues --   -0.44189  -0.43984  -0.43721  -0.43676  -0.43514
 Alpha  occ. eigenvalues --   -0.43303  -0.43294  -0.43101  -0.42987  -0.42809
 Alpha  occ. eigenvalues --   -0.42731  -0.42457  -0.42322  -0.42157  -0.41965
 Alpha  occ. eigenvalues --   -0.41776  -0.41621  -0.41586  -0.41510  -0.41121
 Alpha  occ. eigenvalues --   -0.41086  -0.40840  -0.40663  -0.40599  -0.40374
 Alpha  occ. eigenvalues --   -0.40330  -0.40011  -0.39907  -0.39778  -0.39751
 Alpha  occ. eigenvalues --   -0.38971  -0.38407  -0.38009  -0.37709  -0.37572
 Alpha  occ. eigenvalues --   -0.37441  -0.37142  -0.37071  -0.36895  -0.36695
 Alpha  occ. eigenvalues --   -0.36628  -0.36528  -0.34813  -0.34478  -0.34180
 Alpha  occ. eigenvalues --   -0.33970  -0.33255  -0.33240  -0.31465  -0.31423
 Alpha  occ. eigenvalues --   -0.31262  -0.31209  -0.31040  -0.30614  -0.30440
 Alpha  occ. eigenvalues --   -0.30317  -0.29663  -0.29059  -0.24570  -0.24198
 Alpha  occ. eigenvalues --   -0.21078  -0.20886
 Alpha virt. eigenvalues --   -0.09032  -0.08241  -0.01861  -0.01508   0.00217
 Alpha virt. eigenvalues --    0.00444   0.01596   0.01999   0.02396   0.03370
 Alpha virt. eigenvalues --    0.03453   0.04707   0.04971   0.05160   0.05406

 Mulliken charges:
               1
     1  Mg   0.828480
     2  C    0.007486
     3  C   -0.059404
     4  C   -0.069300
     5  C   -0.093693
     6  N   -0.267901
     7  C   -0.051200
     8  C    0.020239
     9  C   -0.104044
    10  C    0.038311
    11  C    0.063705
    12  C    0.034968
    13  C   -0.056586
    14  H    0.031820
    15  N   -0.358567
    16  C    0.139149
    17  C   -0.202950
    18  C   -0.035989
    19  C    0.110444
    20  C    0.139529
    21  C    0.019199
    22  O   -0.225705
    23  C    0.056054
    24  N   -0.391544
    25  C    0.083646
    26  C   -0.019329
    27  C   -0.020639
    28  C    0.118473
    29  C    0.088232
    30  C   -0.004898
    31  C    0.053340
    32  N   -0.339570
    33  C    0.089629
    34  C   -0.168214
    35  C    0.069280
    36  C    0.103873
    37  C    0.108012
    38  C    0.017613
    39  O   -0.153872
    40  C   -0.052397
    41  C    0.180661
    42  O   -0.217068
    43  O   -0.331553
    44  C    0.179173
    45  H   -0.027287
    46  H   -0.006657
    47  H   -0.027064
    48  H    0.017618
    49  H    0.009536
    50  H    0.020578
    51  H    0.021863
    52  H    0.015369
    53  H    0.010906
    54  H    0.032935
    55  H    0.030200
    56  H    0.029358
    57  H    0.043072
    58  H    0.027719
    59  H    0.001277
    60  H    0.024345
    61  H    0.024855
    62  H    0.040115
    63  H    0.000170
    64  H   -0.003893
    65  H    0.020446
    66  H    0.019141
    67  H    0.019168
    68  H   -0.002542
    69  H   -0.003885
    70  H    0.012663
    71  H   -0.002516
    72  H    0.028694
    73  H    0.038256
    74  H    0.023585
    75  H    0.027361
    76  H    0.043179
    77  H    0.041556
    78  H    0.041707
    79  H    0.051282
    80  Mg   0.851660
    81  C   -0.100175
    82  C   -0.078322
    83  C   -0.099201
    84  C   -0.088948
    85  N   -0.279401
    86  C   -0.081247
    87  C   -0.019289
    88  C   -0.002852
    89  C   -0.000070
    90  C    0.073893
    91  C    0.027092
    92  C   -0.064850
    93  H    0.020897
    94  N   -0.362150
    95  C    0.140265
    96  C   -0.140641
    97  C   -0.078309
    98  C    0.187293
    99  C    0.142602
   100  C    0.026560
   101  O   -0.197053
   102  C    0.035335
   103  N   -0.347423
   104  C    0.055892
   105  C   -0.054229
   106  C   -0.028383
   107  C    0.061103
   108  C    0.055204
   109  C    0.021374
   110  C    0.018569
   111  N   -0.317868
   112  C    0.107181
   113  C   -0.195336
   114  C   -0.057972
   115  C    0.233687
   116  C    0.136013
   117  C    0.071726
   118  O   -0.182407
   119  C    0.008162
   120  C    0.252093
   121  O   -0.249880
   122  O   -0.351424
   123  C    0.193039
   124  H   -0.033159
   125  H   -0.057872
   126  H   -0.041220
   127  H    0.023626
   128  H    0.018838
   129  H    0.021296
   130  H    0.018752
   131  H    0.026232
   132  H    0.015608
   133  H    0.022975
   134  H    0.041944
   135  H    0.032897
   136  H    0.040471
   137  H    0.001819
   138  H    0.020930
   139  H    0.054677
   140  H    0.038731
   141  H    0.026184
   142  H    0.018436
   143  H    0.011749
   144  H    0.016672
   145  H    0.016110
   146  H    0.011140
   147  H    0.024179
   148  H    0.000282
   149  H    0.028361
   150  H    0.019744
   151  H    0.018938
   152  H    0.013710
   153  H    0.031463
   154  H    0.042614
   155  H    0.030382
   156  H    0.050908
   157  H    0.016725
   158  H    0.033646
 Sum of Mulliken charges =  -0.00000

 Dipole moment (field-independent basis, Debye):
    X=             -4.7560    Y=              0.1136    Z=             -1.6712  Tot=              5.0424
 Quadrupole moment (field-independent basis, Debye-Ang):
   XX=           -533.5040   YY=           -540.8878   ZZ=           -469.1653
   XY=            -28.7901   XZ=            -59.1886   YZ=            -25.8353

 Normal termination of Gaussian 16 at Thu Sep  2 10:47:49 2021.
