 Gaussian 16, Revision A.03,
 Gaussian 16:  ES64L-G16RevA.03 25-Dec-2016

 -----------------------------------
 #p cam-b3lyp/Def2SVP td=(nstates=5)
 -----------------------------------

 --------------------------------
 TDDFT excited states in gaussian
 --------------------------------
 Symbolic Z-matrix:
 Charge =  0 Multiplicity = 1

                         Standard orientation:
 ---------------------------------------------------------------------
 Center     Atomic      Atomic             Coordinates (Angstroms)
 Number     Number       Type             X           Y           Z
 ---------------------------------------------------------------------
      1         12           0       25.472249   -0.184376   -0.144005
      2          6           0       21.993888   -0.700742    0.153908
      3          6           0       24.977358    0.858918   -3.435555
      4          6           0       28.569510    1.233040   -0.033149
      5          6           0       25.655464   -0.788350    3.381830
      6          7           0       23.718161    0.005189   -1.446984
      7          6           0       22.430605   -0.227334   -1.114638
      8          6           0       21.468063    0.178191   -2.277928
      9          6           0       22.511624    0.294596   -3.482144
     10          6           0       23.894341    0.364472   -2.756675
     11          6           0       22.623163   -0.821858   -4.545066
     12          6           0       20.754989    1.531578   -1.900966
     13          6           0       19.282935    1.629270   -2.389012
     14          1           0       18.843744    3.040014   -2.956960
     15          7           0       26.735853    0.745893   -1.633597
     16          6           0       26.319774    1.015166   -2.910460
     17          6           0       27.430871    1.563935   -3.590545
     18          6           0       28.490431    1.769120   -2.657613
     19          6           0       27.994448    1.196668   -1.361375
     20          6           0       27.445260    1.958032   -5.048603
     21          6           0       29.748748    2.534764   -2.887103
     22          8           0       29.959221    3.133001   -3.929964
     23          6           0       30.794886    2.710033   -1.913602
     24          7           0       26.863089    0.258577    1.528477
     25          6           0       28.156761    0.707778    1.224734
     26          6           0       29.035287    0.638983    2.434591
     27          6           0       28.110992    0.056191    3.566832
     28          6           0       26.806893   -0.178243    2.824137
     29          6           0       30.262195   -0.223546    2.112094
     30          6           0       28.126881    0.901032    4.896129
     31          6           0       28.521106    0.182488    6.150831
     32          7           0       24.122533   -0.695665    1.502696
     33          6           0       24.382922   -0.949530    2.826965
     34          6           0       23.172022   -1.467390    3.500966
     35          6           0       22.218720   -1.304555    2.460986
     36          6           0       22.851272   -0.931333    1.289960
     37          6           0       22.963693   -1.850472    4.957752
     38          6           0       20.802986   -1.333685    2.205996
     39          8           0       19.859871   -1.570870    2.976799
     40          6           0       20.555926   -0.979909    0.739719
     41          6           0       19.794081   -2.040674    0.054534
     42          8           0       18.752412   -1.842311   -0.457485
     43          8           0       20.491801   -3.203611   -0.099559
     44          6           0       19.780469   -4.123665   -1.013352
     45          1           0       24.871360    1.117867   -4.491531
     46          1           0       29.588466    1.618510   -0.094068
     47          1           0       25.508518   -0.974562    4.448282
     48          1           0       20.740419   -0.622942   -2.408787
     49          1           0       22.582147    1.279788   -3.942859
     50          1           0       22.297124   -1.775791   -4.129001
     51          1           0       23.602245   -0.958038   -5.004474
     52          1           0       21.910843   -0.555263   -5.325126
     53          1           0       21.333604    2.385501   -2.254418
     54          1           0       20.781174    1.558038   -0.811559
     55          1           0       18.707146    1.383009   -1.496693
     56          1           0       19.209939    0.798901   -3.091685
     57          1           0       28.424379    2.015993   -5.524241
     58          1           0       26.964645    2.935978   -5.049612
     59          1           0       26.730134    1.452746   -5.697771
     60          1           0       31.171744    1.714533   -1.675485
     61          1           0       30.431968    3.247476   -1.037034
     62          1           0       31.586291    3.310019   -2.362912
     63          1           0       29.279647    1.640297    2.788406
     64          1           0       28.237601   -0.993693    3.831967
     65          1           0       30.399283   -0.395739    1.044271
     66          1           0       30.187718   -1.214722    2.559447
     67          1           0       31.169073    0.345382    2.314854
     68          1           0       27.112581    1.290914    4.981587
     69          1           0       28.874530    1.693281    4.907629
     70          1           0       27.717225    0.332488    6.871006
     71          1           0       29.418997    0.609237    6.598182
     72          1           0       28.799065   -0.857773    5.981158
     73          1           0       22.763655   -0.988990    5.595206
     74          1           0       23.774234   -2.457224    5.363412
     75          1           0       22.016872   -2.386545    4.893691
     76          1           0       19.878778   -0.128976    0.677809
     77          1           0       20.378993   -5.030850   -1.100329
     78          1           0       19.635596   -3.661570   -1.989769
     79          1           0       18.840873   -4.510064   -0.619952
     80         12           0      -25.290953    0.581286    0.133733
     81          6           0      -22.474470   -1.701958   -0.061711
     82          6           0      -27.207291   -2.095722   -0.591642
     83          6           0      -27.748054    2.618844    0.251200
     84          6           0      -22.999963    3.248329    0.552210
     85          7           0      -24.825933   -1.749004   -0.262558
     86          6           0      -23.655682   -2.406511   -0.191474
     87          6           0      -23.891021   -3.925672   -0.293155
     88          6           0      -25.361590   -3.864269   -0.919403
     89          6           0      -25.848153   -2.533402   -0.524927
     90          6           0      -25.558214   -4.343753   -2.347829
     91          6           0      -23.762928   -4.540865    1.111141
     92          6           0      -23.354074   -6.043006    1.078814
     93          1           0      -22.824772   -6.777100   -0.238706
     94          7           0      -27.277023    0.313003   -0.090391
     95          6           0      -27.909206   -0.852684   -0.478540
     96          6           0      -29.331583   -0.562269   -0.631294
     97          6           0      -29.518844    0.804997   -0.310785
     98          6           0      -28.137103    1.293042   -0.038936
     99          6           0      -30.334419   -1.543638   -1.048647
    100          6           0      -30.879819    1.673359   -0.212032
    101          8           0      -30.884579    2.783938    0.244032
    102          6           0      -32.262628    1.026227   -0.407756
    103          7           0      -25.317579    2.685236    0.100898
    104          6           0      -26.494493    3.269475    0.310734
    105          6           0      -26.415851    4.749653    0.571811
    106          6           0      -24.946015    4.833954    1.050931
    107          6           0      -24.365819    3.544073    0.375104
    108          6           0      -26.670539    5.660217   -0.718201
    109          6           0      -24.725126    4.915099    2.619654
    110          6           0      -25.806769    5.576151    3.522749
    111          7           0      -23.202151    0.804076    0.120997
    112          6           0      -22.407569    1.877567    0.355544
    113          6           0      -21.069295    1.514700    0.483837
    114          6           0      -21.071603    0.164794    0.276912
    115          6           0      -22.368235   -0.266673    0.078320
    116          6           0      -19.916165    2.446523    0.846272
    117          6           0      -20.151137   -0.981709    0.245164
    118          8           0      -18.933043   -1.072693    0.213402
    119          6           0      -21.096735   -2.252663    0.098087
    120          6           0      -20.598234   -3.039701   -1.016206
    121          8           0      -20.763177   -2.812761   -2.219039
    122          8           0      -19.702861   -3.912728   -0.509298
    123          6           0      -18.854619   -4.497055   -1.532592
    124          1           0      -27.794751   -2.919306   -1.002990
    125          1           0      -28.607552    3.291571    0.244631
    126          1           0      -22.341747    4.089480    0.778717
    127          1           0      -23.242625   -4.383212   -1.040482
    128          1           0      -25.951333   -4.580590   -0.349030
    129          1           0      -26.154055   -5.254687   -2.396380
    130          1           0      -24.593083   -4.528668   -2.819076
    131          1           0      -26.013214   -3.604073   -3.006616
    132          1           0      -24.758909   -4.542466    1.554557
    133          1           0      -23.125258   -3.973301    1.788644
    134          1           0      -24.112845   -6.677745    1.537622
    135          1           0      -22.636267   -6.092302    1.897489
    136          1           0      -30.016318   -2.563524   -0.833484
    137          1           0      -30.455835   -1.385124   -2.120341
    138          1           0      -31.299962   -1.430416   -0.555201
    139          1           0      -32.520150    0.296655    0.360003
    140          1           0      -32.257432    0.683230   -1.442603
    141          1           0      -33.032001    1.798499   -0.428924
    142          1           0      -27.199579    4.904135    1.313052
    143          1           0      -24.410736    5.689272    0.639333
    144          1           0      -27.355727    6.409513   -0.322409
    145          1           0      -27.147049    5.140339   -1.550065
    146          1           0      -25.798421    6.183020   -1.109011
    147          1           0      -23.758906    5.380231    2.809800
    148          1           0      -24.777943    3.858027    2.880863
    149          1           0      -26.563396    4.844882    3.806076
    150          1           0      -26.144986    6.424065    2.926115
    151          1           0      -25.378613    6.019833    4.420932
    152          1           0      -20.375726    3.221721    1.459897
    153          1           0      -19.490590    2.959530   -0.015678
    154          1           0      -19.172179    1.870002    1.395714
    155          1           0      -21.014940   -2.804963    1.035081
    156          1           0      -18.110860   -5.187423   -1.135730
    157          1           0      -18.440636   -3.812841   -2.273432
    158          1           0      -19.435471   -5.163822   -2.170810
 ---------------------------------------------------------------------

 SCF Done:  E(RCAM-B3LYP) =  -4069.76100273     A.U. after   19 cycles

 Excitation energies and oscillator strengths:

 Excited State   1:      Singlet-A      1.6805 eV  737.80 nm  f=0.4092  <S**2>=0.000
     309 -> 315       -0.17287
     311 -> 313        0.68702
     309 <- 315       -0.10656
 This state for optimization and/or second-order correction.
 Total Energy, E(TD-HF/TD-DFT) =  -4069.69924681
 Copying the excited state density for this state as the 1-particle RhoCI density.

 Excited State   2:      Singlet-A      1.8345 eV  675.85 nm  f=0.3724  <S**2>=0.000
     310 -> 316        0.18807
     312 -> 314        0.68157
     310 <- 316        0.10395

 Excited State   3:      Singlet-A      2.2016 eV  563.14 nm  f=0.1137  <S**2>=0.000
     309 -> 313        0.64204
     311 -> 315        0.28114

 Excited State   4:      Singlet-A      2.2402 eV  553.46 nm  f=0.1571  <S**2>=0.000
     310 -> 314        0.65518
     312 -> 316       -0.25327

 Excited State   5:      Singlet-A      3.0664 eV  404.32 nm  f=0.0000  <S**2>=0.000
     312 -> 313        0.70710

 The electronic state is 1-A.
 Alpha  occ. eigenvalues --  -46.90829 -46.89337 -19.25101 -19.24862 -19.20503
 Alpha  occ. eigenvalues --  -19.19905 -19.18834 -19.18832 -19.18735 -19.17314
 Alpha  occ. eigenvalues --  -14.42967 -14.42694 -14.41456 -14.41104 -14.39928
 Alpha  occ. eigenvalues --  -14.39899 -14.39292 -14.38618 -10.38719 -10.38184
 Alpha  occ. eigenvalues --  -10.36955 -10.34789 -10.34763 -10.33498 -10.32235
 Alpha  occ. eigenvalues --  -10.31977 -10.31852 -10.31810 -10.31222 -10.31055
 Alpha  occ. eigenvalues --  -10.30980 -10.30769 -10.30708 -10.30596 -10.30498
 Alpha  occ. eigenvalues --  -10.30176 -10.29850 -10.29577 -10.29561 -10.29403
 Alpha  occ. eigenvalues --  -10.29300 -10.29178 -10.29075 -10.29023 -10.28900
 Alpha  occ. eigenvalues --  -10.28758 -10.28495 -10.28476 -10.28454 -10.28418
 Alpha  occ. eigenvalues --  -10.28384 -10.28162 -10.28139 -10.27941 -10.27811
 Alpha  occ. eigenvalues --  -10.27741 -10.27681 -10.27532 -10.27500 -10.27481
 Alpha  occ. eigenvalues --  -10.27472 -10.27457 -10.27344 -10.27272 -10.27237
 Alpha  occ. eigenvalues --  -10.27100 -10.27100 -10.27032 -10.26962 -10.26797
 Alpha  occ. eigenvalues --  -10.26653 -10.26512 -10.26475 -10.26382 -10.26188
 Alpha  occ. eigenvalues --  -10.26059 -10.25965 -10.25744 -10.25515 -10.25443
 Alpha  occ. eigenvalues --  -10.25441 -10.25343 -10.25284 -10.25252 -10.25195
 Alpha  occ. eigenvalues --  -10.23693  -3.18976  -3.17837  -1.93890  -1.93412
 Alpha  occ. eigenvalues --   -1.93271  -1.92739  -1.92311  -1.92122  -1.17961
 Alpha  occ. eigenvalues --   -1.16455  -1.12585  -1.09546  -1.09424  -1.09029
 Alpha  occ. eigenvalues --   -1.08945  -1.06604  -1.05758  -1.05176  -1.05106
 Alpha  occ. eigenvalues --   -1.04610  -1.03742  -1.03428  -1.03386  -1.02528
 Alpha  occ. eigenvalues --   -0.92621  -0.92317  -0.89418  -0.89144  -0.89013
 Alpha  occ. eigenvalues --   -0.88720  -0.88227  -0.88081  -0.88053  -0.87496
 Alpha  occ. eigenvalues --   -0.87008  -0.86877  -0.85817  -0.85561  -0.84875
 Alpha  occ. eigenvalues --   -0.84648  -0.84344  -0.83076  -0.82705  -0.82508
 Alpha  occ. eigenvalues --   -0.82354  -0.81917  -0.80920  -0.80702  -0.80544
 Alpha  occ. eigenvalues --   -0.80067  -0.78653  -0.78580  -0.77605  -0.76861
 Alpha  occ. eigenvalues --   -0.76811  -0.76609  -0.76488  -0.75684  -0.75425
 Alpha  occ. eigenvalues --   -0.75235  -0.73138  -0.72728  -0.72512  -0.71634
 Alpha  occ. eigenvalues --   -0.69635  -0.69367  -0.69259  -0.68735  -0.67950
 Alpha  occ. eigenvalues --   -0.67551  -0.66891  -0.66742  -0.66346  -0.65705
 Alpha  occ. eigenvalues --   -0.65416  -0.65044  -0.64989  -0.64643  -0.64640
 Alpha  occ. eigenvalues --   -0.63656  -0.63298  -0.61776  -0.60787  -0.60073
 Alpha  occ. eigenvalues --   -0.60017  -0.59478  -0.59214  -0.58986  -0.58883
 Alpha  occ. eigenvalues --   -0.58379  -0.58302  -0.57888  -0.57449  -0.57072
 Alpha  occ. eigenvalues --   -0.56511  -0.56502  -0.56074  -0.55550  -0.55448
 Alpha  occ. eigenvalues --   -0.55160  -0.55128  -0.54598  -0.54546  -0.54015
 Alpha  occ. eigenvalues --   -0.53760  -0.53579  -0.53498  -0.53376  -0.53192
 Alpha  occ. eigenvalues --   -0.52931  -0.52844  -0.52817  -0.52652  -0.52259
 Alpha  occ. eigenvalues --   -0.52245  -0.51749  -0.51649  -0.51465  -0.51324
 Alpha  occ. eigenvalues --   -0.51264  -0.51131  -0.50885  -0.50629  -0.50434
 Alpha  occ. eigenvalues --   -0.50041  -0.50008  -0.49852  -0.49683  -0.49557
 Alpha  occ. eigenvalues --   -0.49262  -0.49058  -0.49031  -0.48892  -0.48739
 Alpha  occ. eigenvalues --   -0.48613  -0.48582  -0.48392  -0.48268  -0.48195
 Alpha  occ. eigenvalues --   -0.47876  -0.47519  -0.47475  -0.47365  -0.47324
 Alpha  occ. eigenvalues --   -0.47020  -0.46955  -0.46789  -0.46707  -0.46677
 Alpha  occ. eigenvalues --   -0.46347  -0.46323  -0.46182  -0.45752  -0.45731
 Alpha  occ. eigenvalues --   -0.45408  -0.45131  -0.45082  -0.44906  -0.44847
 Alpha  occ. eigenvalues --   -0.44677  -0.44619  -0.44350  -0.44343  -0.44298
 Alpha  occ. eigenvalues --   -0.44034  -0.44008  -0.43873  -0.43777  -0.43588
 Alpha  occ. eigenvalues --   -0.43322  -0.43280  -0.43226  -0.42996  -0.42936
 Alpha  occ. eigenvalues --   -0.42870  -0.42640  -0.42630  -0.42450  -0.42288
 Alpha  occ. eigenvalues --   -0.42228  -0.42047  -0.41773  -0.41386  -0.41327
 Alpha  occ. eigenvalues --   -0.41273  -0.41020  -0.40785  -0.40376  -0.40129
 Alpha  occ. eigenvalues --   -0.39707  -0.39624  -0.39307  -0.39226  -0.38669
 Alpha  occ. eigenvalues --   -0.38577  -0.38226  -0.38055  -0.37889  -0.37627
 Alpha  occ. eigenvalues --   -0.37422  -0.37228  -0.36879  -0.36574  -0.36395
 Alpha  occ. eigenvalues --   -0.35893  -0.35622  -0.34911  -0.34145  -0.34126
 Alpha  occ. eigenvalues --   -0.33694  -0.33485  -0.32453  -0.31905  -0.31498
 Alpha  occ. eigenvalues --   -0.31485  -0.30964  -0.30581  -0.30383  -0.30338
 Alpha  occ. eigenvalues --   -0.30002  -0.29450  -0.29192  -0.24501  -0.23348
 Alpha  occ. eigenvalues --   -0.21567  -0.21339
 Alpha virt. eigenvalues --   -0.09376  -0.08229  -0.02245  -0.01052   0.00294
 Alpha virt. eigenvalues --    0.00592   0.01221   0.02436   0.02448   0.02770
 Alpha virt. eigenvalues --    0.04229   0.04701   0.05454   0.05747   0.05909

 Mulliken charges:
               1
     1  Mg   0.801169
     2  C    0.004457
     3  C   -0.071544
     4  C   -0.019788
     5  C   -0.048257
     6  N   -0.286870
     7  C   -0.055438
     8  C   -0.042438
     9  C   -0.052343
    10  C    0.058045
    11  C    0.080540
    12  C    0.048731
    13  C   -0.050679
    14  H    0.026277
    15  N   -0.365236
    16  C    0.114122
    17  C   -0.149651
    18  C   -0.022460
    19  C    0.090967
    20  C    0.140527
    21  C   -0.050240
    22  O   -0.214576
    23  C    0.079045
    24  N   -0.287392
    25  C    0.025707
    26  C   -0.009773
    27  C   -0.012934
    28  C    0.028441
    29  C    0.074441
    30  C    0.039555
    31  C   -0.004086
    32  N   -0.281373
    33  C    0.026165
    34  C   -0.155012
    35  C    0.014941
    36  C    0.076285
    37  C    0.107435
    38  C    0.020289
    39  O   -0.190019
    40  C    0.052723
    41  C    0.149220
    42  O   -0.180082
    43  O   -0.336511
    44  C    0.181924
    45  H   -0.017973
    46  H   -0.053362
    47  H   -0.027256
    48  H    0.012544
    49  H    0.009883
    50  H    0.010240
    51  H    0.025045
    52  H    0.017242
    53  H    0.017866
    54  H    0.012952
    55  H    0.042914
    56  H    0.031793
    57  H    0.047157
    58  H    0.015835
    59  H   -0.004958
    60  H    0.029958
    61  H    0.043486
    62  H    0.024741
    63  H    0.021277
    64  H    0.015149
    65  H    0.014936
    66  H    0.018894
    67  H    0.014580
    68  H    0.016994
    69  H    0.015928
    70  H    0.020668
    71  H    0.008620
    72  H    0.012701
    73  H    0.041388
    74  H    0.029824
    75  H    0.041897
    76  H    0.031477
    77  H    0.027463
    78  H    0.035977
    79  H    0.039813
    80  Mg   0.824268
    81  C    0.010061
    82  C   -0.058327
    83  C   -0.077507
    84  C   -0.071149
    85  N   -0.187770
    86  C   -0.104823
    87  C   -0.021613
    88  C   -0.035988
    89  C   -0.028559
    90  C    0.088092
    91  C    0.048988
    92  C   -0.037963
    93  H    0.035304
    94  N   -0.382872
    95  C    0.143302
    96  C   -0.138012
    97  C   -0.053149
    98  C    0.096476
    99  C    0.105629
   100  C    0.029667
   101  O   -0.167277
   102  C    0.040807
   103  N   -0.248105
   104  C    0.043875
   105  C   -0.049670
   106  C   -0.064501
   107  C    0.033772
   108  C    0.074636
   109  C    0.034649
   110  C    0.005246
   111  N   -0.317555
   112  C    0.075673
   113  C   -0.206277
   114  C    0.001055
   115  C    0.122197
   116  C    0.136336
   117  C    0.060796
   118  O   -0.161505
   119  C   -0.025076
   120  C    0.186372
   121  O   -0.243531
   122  O   -0.299416
   123  C    0.194941
   124  H   -0.035377
   125  H   -0.014043
   126  H   -0.022054
   127  H    0.018021
   128  H   -0.009364
   129  H    0.017764
   130  H    0.020700
   131  H    0.014756
   132  H    0.007782
   133  H    0.024763
   134  H    0.015688
   135  H    0.014666
   136  H    0.021413
   137  H    0.041731
   138  H    0.018412
   139  H    0.065178
   140  H    0.023178
   141  H    0.023981
   142  H    0.019493
   143  H   -0.009330
   144  H    0.020080
   145  H    0.023933
   146  H    0.021313
   147  H    0.012438
   148  H    0.003380
   149  H    0.029264
   150  H    0.014346
   151  H    0.015696
   152  H    0.005778
   153  H    0.029872
   154  H    0.032471
   155  H    0.043047
   156  H    0.030158
   157  H    0.042745
   158  H    0.006623
 Sum of Mulliken charges =  -0.00000

 Dipole moment (field-independent basis, Debye):
    X=             -1.4726    Y=             -4.1998    Z=              2.9208  Tot=              5.3234
 Quadrupole moment (field-independent basis, Debye-Ang):
   XX=            -75.4401   YY=           -485.8647   ZZ=           -506.9429
   XY=             -1.0071   XZ=             53.3687   YZ=             19.6375

 Normal termination of Gaussian 16 at Wed Sep  1 02:38:31 2021.
