 Gaussian 16, Revision A.03,
 Gaussian 16:  ES64L-G16RevA.03 25-Dec-2016

 -----------------------------------
 #p cam-b3lyp/Def2SVP td=(nstates=5)
 -----------------------------------

 --------------------------------
 TDDFT excited states in gaussian
 --------------------------------
 Symbolic Z-matrix:
 Charge =  0 Multiplicity = 1

                         Standard orientation:
 ---------------------------------------------------------------------
 Center     Atomic      Atomic             Coordinates (Angstroms)
 Number     Number       Type             X           Y           Z
 ---------------------------------------------------------------------
      1         12           0      -10.657726    0.195500    0.051400
      2          6           0       -7.779254   -0.058356   -2.165559
      3          6           0      -10.679927   -3.235922    0.171497
      4          6           0      -12.154123    0.386397    3.035821
      5          6           0      -10.570995    3.574573   -0.295999
      6          7           0       -9.214939   -1.447859   -0.763920
      7          6           0       -8.143572   -1.303822   -1.717521
      8          6           0       -7.714849   -2.687957   -2.212641
      9          6           0       -8.866483   -3.634468   -1.762415
     10          6           0       -9.690768   -2.764219   -0.714983
     11          6           0       -9.814441   -4.108764   -2.963293
     12          6           0       -6.313020   -3.124953   -1.902357
     13          6           0       -5.557393   -2.362978   -0.788125
     14          1           0       -4.148128   -2.673264   -0.251329
     15          7           0      -11.460644   -1.251639    1.371437
     16          6           0      -11.340820   -2.617622    1.241388
     17          6           0      -12.135558   -3.259311    2.334705
     18          6           0      -12.440433   -2.204495    3.191200
     19          6           0      -11.988626   -0.942631    2.609694
     20          6           0      -12.317887   -4.734987    2.382694
     21          6           0      -13.145429   -2.365531    4.569503
     22          8           0      -13.370373   -3.495788    4.964477
     23          6           0      -13.432151   -1.243922    5.511953
     24          7           0      -11.111721    1.808261    1.237954
     25          6           0      -11.876488    1.588644    2.383073
     26          6           0      -12.355815    2.910192    2.983607
     27          6           0      -12.134020    3.923506    1.802815
     28          6           0      -11.280829    3.075248    0.857058
     29          6           0      -13.797996    2.986780    3.547467
     30          6           0      -11.485775    5.293029    2.183935
     31          6           0      -12.462579    6.556349    2.169918
     32          7           0       -9.500132    1.538221   -1.063885
     33          6           0       -9.653423    2.914019   -1.154721
     34          6           0       -8.799921    3.414390   -2.204162
     35          6           0       -8.029512    2.290123   -2.530757
     36          6           0       -8.530075    1.176612   -1.811863
     37          6           0       -8.727567    4.895835   -2.612947
     38          6           0       -6.990898    1.789712   -3.378153
     39          8           0       -6.376107    2.458991   -4.232850
     40          6           0       -6.848117    0.204837   -3.307868
     41          6           0       -5.408249   -0.022651   -3.073007
     42          8           0       -4.702094    0.529993   -2.223045
     43          8           0       -5.042703   -1.045000   -3.884582
     44          6           0       -3.576982   -1.336248   -3.965336
     45          1           0      -10.674452   -4.326299    0.222067
     46          1           0      -12.655802    0.432442    4.004931
     47          1           0      -10.654266    4.648220   -0.475061
     48          1           0       -7.816679   -2.488890   -3.279488
     49          1           0       -8.518690   -4.466719   -1.150196
     50          1           0       -9.609162   -5.176265   -3.032805
     51          1           0       -9.573759   -3.539627   -3.861531
     52          1           0      -10.833795   -3.947574   -2.610727
     53          1           0       -5.783478   -3.132954   -2.854875
     54          1           0       -6.483357   -4.164950   -1.621975
     55          1           0       -6.230582   -2.392653    0.069215
     56          1           0       -5.427621   -1.321475   -1.082969
     57          1           0      -11.741786   -5.077996    3.241589
     58          1           0      -11.952394   -5.152543    1.445010
     59          1           0      -13.382218   -4.965486    2.441005
     60          1           0      -12.589078   -0.711778    5.950932
     61          1           0      -13.923979   -1.577831    6.425108
     62          1           0      -14.116718   -0.649490    4.907036
     63          1           0      -11.612282    2.971107    3.779151
     64          1           0      -13.121861    4.039771    1.356446
     65          1           0      -13.846152    2.896936    4.633165
     66          1           0      -14.380617    2.146501    3.171341
     67          1           0      -14.243443    3.910955    3.177640
     68          1           0      -10.618438    5.561728    1.580272
     69          1           0      -11.073409    5.118039    3.177710
     70          1           0      -12.178704    7.067728    3.089362
     71          1           0      -13.525962    6.316510    2.174882
     72          1           0      -12.289803    7.074434    1.227279
     73          1           0       -8.458162    5.079408   -3.653288
     74          1           0       -7.916247    5.241639   -1.973333
     75          1           0       -9.715282    5.352073   -2.550607
     76          1           0       -7.206556   -0.229401   -4.242332
     77          1           0       -3.414923   -2.177939   -4.639571
     78          1           0       -3.175575   -1.613717   -2.990480
     79          1           0       -3.182833   -0.396904   -4.350570
     80         12           0       10.315524   -0.026556    0.428653
     81          6           0        7.904275   -1.572836   -1.489904
     82          6           0        9.619259    2.937298   -1.457793
     83          6           0       12.797018    1.472644    1.927903
     84          6           0       11.115149   -3.036108    1.934773
     85          7           0        9.017041    0.520308   -1.463266
     86          6           0        7.999528   -0.223667   -1.863352
     87          6           0        6.964743    0.626267   -2.653559
     88          6           0        7.869246    1.845024   -3.050364
     89          6           0        8.931252    1.818757   -1.939477
     90          6           0        8.496172    1.684650   -4.480915
     91          6           0        5.839953    0.970983   -1.652146
     92          6           0        4.610049    1.689310   -2.223783
     93          1           0        4.639716    2.248149   -3.632195
     94          7           0       11.079694    1.906653    0.402765
     95          6           0       10.615407    2.982904   -0.429138
     96          6           0       11.302842    4.177255    0.042469
     97          6           0       12.157109    3.768925    1.114031
     98          6           0       12.076496    2.310439    1.179978
     99          6           0       11.066472    5.629602   -0.516994
    100          6           0       12.995435    4.694186    2.056714
    101          8           0       13.752899    4.174212    2.829435
    102          6           0       12.878873    6.180925    1.963043
    103          7           0       11.710638   -0.678810    1.830457
    104          6           0       12.669104    0.133034    2.330963
    105          6           0       13.636206   -0.583987    3.272284
    106          6           0       13.000577   -1.990165    3.370675
    107          6           0       11.847277   -1.898065    2.290653
    108          6           0       15.138605   -0.618655    2.808011
    109          6           0       12.613720   -2.481912    4.742128
    110          6           0       11.825441   -1.583980    5.725950
    111          7           0        9.712152   -1.948271    0.306120
    112          6           0       10.101433   -3.074683    0.972714
    113          6           0        9.203020   -4.137672    0.574268
    114          6           0        8.267440   -3.622030   -0.387360
    115          6           0        8.656080   -2.260147   -0.512813
    116          6           0        9.279805   -5.538583    1.095981
    117          6           0        7.194591   -3.914352   -1.277442
    118          8           0        6.573624   -4.965813   -1.546065
    119          6           0        7.130538   -2.593870   -2.222064
    120          6           0        5.650997   -2.347368   -2.521712
    121          8           0        4.800269   -2.249397   -1.722382
    122          8           0        5.498183   -2.308418   -3.878455
    123          6           0        4.277796   -1.736644   -4.409270
    124          1           0        9.448014    3.816843   -2.081187
    125          1           0       13.669220    1.909557    2.418676
    126          1           0       11.328852   -4.018449    2.359380
    127          1           0        6.636096    0.131718   -3.567505
    128          1           0        7.197828    2.698556   -2.953596
    129          1           0        7.969175    2.332236   -5.180551
    130          1           0        8.414247    0.635060   -4.763971
    131          1           0        9.536202    2.005875   -4.538653
    132          1           0        6.256759    1.669052   -0.926611
    133          1           0        5.564245    0.116250   -1.035235
    134          1           0        4.130352    2.355397   -1.506272
    135          1           0        3.832881    0.924808   -2.222817
    136          1           0       11.998977    6.129804   -0.780079
    137          1           0       10.499603    6.150023    0.254798
    138          1           0       10.388831    5.584091   -1.370392
    139          1           0       13.119399    6.486492    2.981558
    140          1           0       11.853497    6.513415    1.805407
    141          1           0       13.326703    6.721152    1.129000
    142          1           0       13.563073   -0.041525    4.214615
    143          1           0       13.622418   -2.769847    2.930835
    144          1           0       15.523112   -1.582515    3.140456
    145          1           0       15.573310    0.204692    3.375166
    146          1           0       15.214903   -0.386619    1.745777
    147          1           0       13.592333   -2.485792    5.220957
    148          1           0       12.139863   -3.461538    4.812958
    149          1           0       12.296216   -1.317516    6.671315
    150          1           0       10.942334   -2.095046    6.109330
    151          1           0       11.579029   -0.643781    5.232371
    152          1           0        8.512382   -6.092714    0.556267
    153          1           0        9.001830   -5.559527    2.150588
    154          1           0       10.271943   -5.988737    1.079949
    155          1           0        7.735247   -2.847206   -3.093084
    156          1           0        4.090941   -2.628606   -5.007429
    157          1           0        4.418708   -0.769752   -4.892816
    158          1           0        3.472582   -1.636691   -3.680971
 ---------------------------------------------------------------------

 SCF Done:  E(RCAM-B3LYP) =  -4069.77056135     A.U. after   19 cycles

 Excitation energies and oscillator strengths:

 Excited State   1:      Singlet-A      1.6566 eV  748.41 nm  f=0.3459  <S**2>=0.000
     309 -> 316       -0.15642
     312 -> 313        0.69065
     309 <- 316       -0.10146
 This state for optimization and/or second-order correction.
 Total Energy, E(TD-HF/TD-DFT) =  -4069.70968139
 Copying the excited state density for this state as the 1-particle RhoCI density.

 Excited State   2:      Singlet-A      1.7332 eV  715.34 nm  f=0.3798  <S**2>=0.000
     310 -> 315        0.19603
     311 -> 314        0.68084
     310 <- 315        0.11066

 Excited State   3:      Singlet-A      2.2190 eV  558.74 nm  f=0.0936  <S**2>=0.000
     310 -> 314        0.63511
     311 -> 315       -0.29875

 Excited State   4:      Singlet-A      2.2756 eV  544.83 nm  f=0.0767  <S**2>=0.000
     309 -> 313        0.61919
     312 -> 316        0.32486

 Excited State   5:      Singlet-A      2.9185 eV  424.82 nm  f=0.0000  <S**2>=0.000
     312 -> 314        0.70705

 The electronic state is 1-A.
 Alpha  occ. eigenvalues --  -46.89266 -46.88146 -19.25312 -19.24271 -19.20135
 Alpha  occ. eigenvalues --  -19.19378 -19.19039 -19.18984 -19.18908 -19.17048
 Alpha  occ. eigenvalues --  -14.42432 -14.41614 -14.41602 -14.41503 -14.39688
 Alpha  occ. eigenvalues --  -14.39184 -14.39155 -14.38705 -10.39090 -10.38793
 Alpha  occ. eigenvalues --  -10.35466 -10.35163 -10.34948 -10.33507 -10.32075
 Alpha  occ. eigenvalues --  -10.31891 -10.31624 -10.31358 -10.30969 -10.30844
 Alpha  occ. eigenvalues --  -10.30776 -10.30578 -10.30505 -10.30478 -10.30451
 Alpha  occ. eigenvalues --  -10.30297 -10.30162 -10.29506 -10.29192 -10.28970
 Alpha  occ. eigenvalues --  -10.28890 -10.28801 -10.28650 -10.28508 -10.28493
 Alpha  occ. eigenvalues --  -10.28483 -10.28438 -10.28368 -10.28337 -10.27914
 Alpha  occ. eigenvalues --  -10.27838 -10.27815 -10.27680 -10.27645 -10.27637
 Alpha  occ. eigenvalues --  -10.27581 -10.27576 -10.27562 -10.27526 -10.27494
 Alpha  occ. eigenvalues --  -10.27480 -10.27459 -10.27429 -10.27262 -10.27200
 Alpha  occ. eigenvalues --  -10.27152 -10.27080 -10.26900 -10.26829 -10.26753
 Alpha  occ. eigenvalues --  -10.26537 -10.26442 -10.26385 -10.26366 -10.26348
 Alpha  occ. eigenvalues --  -10.26212 -10.26183 -10.26120 -10.26097 -10.26025
 Alpha  occ. eigenvalues --  -10.25836 -10.25691 -10.25628 -10.25172 -10.24830
 Alpha  occ. eigenvalues --  -10.23942  -3.17754  -3.16783  -1.92627  -1.92231
 Alpha  occ. eigenvalues --   -1.92036  -1.91683  -1.91255  -1.91073  -1.17491
 Alpha  occ. eigenvalues --   -1.16034  -1.11413  -1.10649  -1.09681  -1.07901
 Alpha  occ. eigenvalues --   -1.07443  -1.06644  -1.05121  -1.04803  -1.03987
 Alpha  occ. eigenvalues --   -1.03950  -1.02930  -1.02786  -1.01956  -1.00302
 Alpha  occ. eigenvalues --   -0.92901  -0.91895  -0.89318  -0.89278  -0.88930
 Alpha  occ. eigenvalues --   -0.88552  -0.88544  -0.88366  -0.87183  -0.86784
 Alpha  occ. eigenvalues --   -0.86608  -0.86318  -0.86053  -0.85562  -0.84330
 Alpha  occ. eigenvalues --   -0.83927  -0.83666  -0.83625  -0.82686  -0.82309
 Alpha  occ. eigenvalues --   -0.82296  -0.81641  -0.81308  -0.80924  -0.80158
 Alpha  occ. eigenvalues --   -0.80120  -0.77985  -0.77878  -0.77731  -0.77251
 Alpha  occ. eigenvalues --   -0.76658  -0.76442  -0.75955  -0.75751  -0.75396
 Alpha  occ. eigenvalues --   -0.75190  -0.72995  -0.72568  -0.71886  -0.71638
 Alpha  occ. eigenvalues --   -0.70165  -0.69615  -0.68947  -0.68743  -0.67947
 Alpha  occ. eigenvalues --   -0.67551  -0.66870  -0.66155  -0.66072  -0.65318
 Alpha  occ. eigenvalues --   -0.65051  -0.64812  -0.64623  -0.64177  -0.64026
 Alpha  occ. eigenvalues --   -0.63491  -0.62258  -0.62074  -0.60393  -0.59590
 Alpha  occ. eigenvalues --   -0.59534  -0.59080  -0.59024  -0.59008  -0.58702
 Alpha  occ. eigenvalues --   -0.58031  -0.57982  -0.57805  -0.57457  -0.57160
 Alpha  occ. eigenvalues --   -0.56730  -0.56228  -0.56108  -0.56025  -0.55535
 Alpha  occ. eigenvalues --   -0.55245  -0.55132  -0.54530  -0.54184  -0.54115
 Alpha  occ. eigenvalues --   -0.53613  -0.53521  -0.53419  -0.53367  -0.52845
 Alpha  occ. eigenvalues --   -0.52838  -0.52504  -0.52262  -0.52254  -0.52176
 Alpha  occ. eigenvalues --   -0.51980  -0.51783  -0.51672  -0.51339  -0.51168
 Alpha  occ. eigenvalues --   -0.50998  -0.50645  -0.50612  -0.50585  -0.50039
 Alpha  occ. eigenvalues --   -0.49947  -0.49869  -0.49628  -0.49578  -0.49494
 Alpha  occ. eigenvalues --   -0.49448  -0.49217  -0.49178  -0.48914  -0.48714
 Alpha  occ. eigenvalues --   -0.48661  -0.48286  -0.48117  -0.48078  -0.48021
 Alpha  occ. eigenvalues --   -0.47840  -0.47726  -0.47571  -0.47510  -0.47115
 Alpha  occ. eigenvalues --   -0.46863  -0.46753  -0.46736  -0.46509  -0.46504
 Alpha  occ. eigenvalues --   -0.46392  -0.46195  -0.45851  -0.45724  -0.45676
 Alpha  occ. eigenvalues --   -0.45480  -0.45415  -0.45138  -0.45083  -0.44896
 Alpha  occ. eigenvalues --   -0.44879  -0.44631  -0.44421  -0.43935  -0.43900
 Alpha  occ. eigenvalues --   -0.43715  -0.43442  -0.43372  -0.43227  -0.43147
 Alpha  occ. eigenvalues --   -0.42870  -0.42777  -0.42752  -0.42687  -0.42567
 Alpha  occ. eigenvalues --   -0.42520  -0.42240  -0.42193  -0.42090  -0.41967
 Alpha  occ. eigenvalues --   -0.41881  -0.41879  -0.41775  -0.41705  -0.41453
 Alpha  occ. eigenvalues --   -0.41273  -0.41044  -0.40882  -0.40723  -0.40068
 Alpha  occ. eigenvalues --   -0.39881  -0.39352  -0.39318  -0.39290  -0.39056
 Alpha  occ. eigenvalues --   -0.38431  -0.38289  -0.37772  -0.37388  -0.37366
 Alpha  occ. eigenvalues --   -0.37046  -0.37013  -0.36480  -0.36298  -0.36257
 Alpha  occ. eigenvalues --   -0.35765  -0.35730  -0.35014  -0.34333  -0.33842
 Alpha  occ. eigenvalues --   -0.33778  -0.33227  -0.32653  -0.31485  -0.31467
 Alpha  occ. eigenvalues --   -0.31133  -0.30902  -0.30307  -0.30065  -0.29710
 Alpha  occ. eigenvalues --   -0.29401  -0.29245  -0.29206  -0.24413  -0.23691
 Alpha  occ. eigenvalues --   -0.20977  -0.20717
 Alpha virt. eigenvalues --   -0.08546  -0.08320  -0.01768  -0.01754   0.00304
 Alpha virt. eigenvalues --    0.00963   0.01508   0.02530   0.02724   0.03161
 Alpha virt. eigenvalues --    0.04931   0.05452   0.05565   0.05980   0.06189

 Mulliken charges:
               1
     1  Mg   0.820291
     2  C   -0.030205
     3  C   -0.063566
     4  C   -0.071237
     5  C   -0.075836
     6  N   -0.309239
     7  C   -0.098141
     8  C    0.032452
     9  C   -0.088944
    10  C    0.018133
    11  C    0.083089
    12  C    0.077487
    13  C   -0.047716
    14  H    0.022063
    15  N   -0.391729
    16  C    0.125600
    17  C   -0.145244
    18  C   -0.034523
    19  C    0.143136
    20  C    0.154410
    21  C   -0.013467
    22  O   -0.198026
    23  C    0.066680
    24  N   -0.314493
    25  C    0.069941
    26  C   -0.079026
    27  C    0.038607
    28  C   -0.001256
    29  C    0.080958
    30  C    0.022999
    31  C   -0.006886
    32  N   -0.284757
    33  C    0.084267
    34  C   -0.172763
    35  C    0.043161
    36  C    0.082245
    37  C    0.114692
    38  C    0.002941
    39  O   -0.217106
    40  C    0.045364
    41  C    0.197703
    42  O   -0.231963
    43  O   -0.339205
    44  C    0.180444
    45  H   -0.019071
    46  H   -0.063851
    47  H   -0.033791
    48  H    0.001304
    49  H    0.015170
    50  H    0.026533
    51  H    0.028889
    52  H    0.019759
    53  H    0.006732
    54  H   -0.007458
    55  H    0.024047
    56  H    0.048181
    57  H    0.049801
    58  H   -0.000514
    59  H    0.036208
    60  H    0.054924
    61  H    0.021085
    62  H    0.037811
    63  H    0.025838
    64  H    0.005466
    65  H    0.018928
    66  H    0.015457
    67  H    0.020701
    68  H    0.021019
    69  H   -0.000108
    70  H    0.029241
    71  H    0.015083
    72  H    0.025821
    73  H    0.027399
    74  H    0.048794
    75  H    0.018858
    76  H    0.043673
    77  H    0.041639
    78  H    0.051826
    79  H    0.053270
    80  Mg   0.826213
    81  C   -0.012071
    82  C   -0.069138
    83  C   -0.074960
    84  C   -0.110900
    85  N   -0.226902
    86  C   -0.083188
    87  C   -0.038235
    88  C   -0.040718
    89  C    0.001566
    90  C    0.086631
    91  C    0.038087
    92  C   -0.034261
    93  H    0.030272
    94  N   -0.395517
    95  C    0.163771
    96  C   -0.170942
    97  C   -0.041678
    98  C    0.168886
    99  C    0.109684
   100  C    0.017382
   101  O   -0.181496
   102  C    0.052824
   103  N   -0.266011
   104  C   -0.012120
   105  C   -0.046899
   106  C   -0.006064
   107  C    0.066941
   108  C    0.084009
   109  C    0.038723
   110  C   -0.018411
   111  N   -0.393943
   112  C    0.127040
   113  C   -0.170590
   114  C    0.015020
   115  C    0.149484
   116  C    0.114134
   117  C    0.076229
   118  O   -0.200261
   119  C   -0.076708
   120  C    0.177461
   121  O   -0.154091
   122  O   -0.338319
   123  C    0.149848
   124  H   -0.021509
   125  H   -0.018380
   126  H   -0.033054
   127  H   -0.002513
   128  H   -0.001325
   129  H    0.017606
   130  H    0.023172
   131  H    0.017762
   132  H    0.001332
   133  H    0.042092
   134  H    0.020290
   135  H    0.016114
   136  H    0.037010
   137  H    0.036589
   138  H    0.006660
   139  H    0.032579
   140  H    0.000125
   141  H    0.047045
   142  H    0.021732
   143  H    0.003579
   144  H    0.024589
   145  H    0.025898
   146  H    0.031840
   147  H    0.004210
   148  H    0.015783
   149  H    0.010443
   150  H    0.010231
   151  H    0.020378
   152  H    0.037093
   153  H    0.019340
   154  H    0.024625
   155  H    0.054701
   156  H    0.049885
   157  H    0.046873
   158  H    0.046423
 Sum of Mulliken charges =  -0.00000

 Dipole moment (field-independent basis, Debye):
    X=             -3.0396    Y=              3.6872    Z=              0.3603  Tot=              4.7921
 Quadrupole moment (field-independent basis, Debye-Ang):
   XX=           -417.3440   YY=           -503.2920   ZZ=           -501.4917
   XY=            -15.9538   XZ=             -0.7323   YZ=             13.5297

 Normal termination of Gaussian 16 at Tue Aug 31 17:31:22 2021.
