 Gaussian 16, Revision A.03,
 Gaussian 16:  ES64L-G16RevA.03 25-Dec-2016

 -----------------------------------
 #p cam-b3lyp/Def2SVP td=(nstates=5)
 -----------------------------------

 --------------------------------
 TDDFT excited states in gaussian
 --------------------------------
 Symbolic Z-matrix:
 Charge =  0 Multiplicity = 1

                         Standard orientation:
 ---------------------------------------------------------------------
 Center     Atomic      Atomic             Coordinates (Angstroms)
 Number     Number       Type             X           Y           Z
 ---------------------------------------------------------------------
      1         12           0      -32.923312   -0.280894   -0.492407
      2          6           0      -30.331046    1.702334    0.650623
      3          6           0      -31.376453   -3.063867    1.074472
      4          6           0      -35.709685   -2.187669   -1.077643
      5          6           0      -34.647068    2.502193   -1.593362
      6          7           0      -31.001494   -0.613066    0.599656
      7          6           0      -30.155041    0.385599    1.033191
      8          6           0      -29.053395   -0.105740    2.045417
      9          6           0      -29.158611   -1.691849    1.852150
     10          6           0      -30.583909   -1.871353    1.084694
     11          6           0      -27.994744   -2.457626    1.114994
     12          6           0      -29.260845    0.307032    3.460158
     13          6           0      -28.240564    1.173107    4.173688
     14          1           0      -28.151145    0.993353    5.697646
     15          7           0      -33.431492   -2.385230   -0.139389
     16          6           0      -32.591824   -3.330961    0.478619
     17          6           0      -33.210915   -4.617676    0.442124
     18          6           0      -34.585571   -4.352399   -0.057547
     19          6           0      -34.656818   -2.911332   -0.451789
     20          6           0      -32.616630   -5.876176    1.083004
     21          6           0      -35.639392   -5.471143   -0.130708
     22          8           0      -35.506684   -6.641366    0.215835
     23          6           0      -37.052110   -5.054712   -0.340754
     24          7           0      -35.055417    0.141981   -1.096670
     25          6           0      -35.890927   -0.854576   -1.419837
     26          6           0      -37.256878   -0.214228   -1.662481
     27          6           0      -36.961763    1.334531   -1.933896
     28          6           0      -35.417086    1.364452   -1.542777
     29          6           0      -37.907861   -0.833062   -2.949972
     30          6           0      -37.791231    2.441786   -1.162852
     31          6           0      -38.728899    3.371672   -1.918303
     32          7           0      -32.544002    1.746232   -0.560132
     33          6           0      -33.328051    2.782703   -1.076341
     34          6           0      -32.680621    4.039754   -0.856391
     35          6           0      -31.476683    3.697613   -0.166435
     36          6           0      -31.458121    2.251404   -0.072661
     37          6           0      -33.153028    5.409899   -1.228231
     38          6           0      -30.274623    4.166105    0.389236
     39          8           0      -29.880120    5.312846    0.459605
     40          6           0      -29.521956    2.926489    1.010808
     41          6           0      -28.102566    3.001085    0.630769
     42          8           0      -27.215703    3.342803    1.404933
     43          8           0      -27.946603    2.660085   -0.704481
     44          6           0      -26.543775    2.757255   -1.166703
     45          1           0      -30.977927   -3.996342    1.478524
     46          1           0      -36.518309   -2.885288   -1.307242
     47          1           0      -35.225645    3.372826   -1.908722
     48          1           0      -28.075338    0.236797    1.709312
     49          1           0      -29.323491   -2.112037    2.844947
     50          1           0      -27.152392   -1.769163    1.048192
     51          1           0      -28.253138   -2.832138    0.124413
     52          1           0      -27.766102   -3.337654    1.714980
     53          1           0      -29.276358   -0.612260    4.047554
     54          1           0      -30.192206    0.864862    3.551493
     55          1           0      -28.542174    2.212177    4.044789
     56          1           0      -27.218908    1.006606    3.832986
     57          1           0      -31.691140   -5.837845    1.657113
     58          1           0      -32.563375   -6.556293    0.233241
     59          1           0      -33.462246   -6.298706    1.624744
     60          1           0      -37.444092   -4.968041   -1.353226
     61          1           0      -37.309533   -4.165010    0.234130
     62          1           0      -37.663198   -5.860590    0.067434
     63          1           0      -37.937205   -0.334837   -0.819138
     64          1           0      -36.964715    1.534869   -3.004752
     65          1           0      -38.921750   -1.126436   -2.677868
     66          1           0      -37.377995   -1.682439   -3.382978
     67          1           0      -37.960607   -0.132922   -3.784030
     68          1           0      -37.028313    3.027888   -0.650938
     69          1           0      -38.439039    1.885601   -0.483861
     70          1           0      -38.817932    4.255686   -1.286379
     71          1           0      -39.713753    2.907725   -1.976609
     72          1           0      -38.453106    3.740776   -2.905565
     73          1           0      -32.373781    6.094525   -0.892306
     74          1           0      -34.119642    5.558545   -0.747874
     75          1           0      -33.279859    5.583812   -2.296920
     76          1           0      -29.580175    3.106538    2.084788
     77          1           0      -26.344512    3.757648   -1.550756
     78          1           0      -26.408136    1.941686   -1.876986
     79          1           0      -25.837238    2.535948   -0.367253
     80         12           0       32.745247    0.494882   -0.564429
     81          6           0       31.120860   -2.412520    0.421181
     82          6           0       30.542296    2.340894    1.508686
     83          6           0       34.894294    3.053301   -0.548866
     84          6           0       35.238074   -1.538174   -2.007054
     85          7           0       31.198001   -0.058775    1.124236
     86          6           0       30.579663   -1.285542    1.092058
     87          6           0       29.382946   -1.320773    1.989946
     88          6           0       29.043845    0.234057    2.130997
     89          6           0       30.341072    0.931557    1.588338
     90          6           0       27.717560    0.738733    1.367488
     91          6           0       29.702624   -2.159706    3.332123
     92          6           0       28.547436   -2.751807    3.965502
     93          1           0       28.381126   -2.351533    5.446795
     94          7           0       32.668127    2.473629    0.180226
     95          6           0       31.665501    3.047067    1.011449
     96          6           0       32.021273    4.439214    1.228345
     97          6           0       33.276509    4.693457    0.624088
     98          6           0       33.635838    3.392686   -0.034389
     99          6           0       31.224090    5.326570    2.109940
    100          6           0       34.058421    6.069061    0.732080
    101          8           0       33.514892    6.968799    1.370858
    102          6           0       35.254242    6.391575   -0.157342
    103          7           0       34.784292    0.644211   -1.103522
    104          6           0       35.373110    1.866975   -1.102111
    105          6           0       36.959044    1.813211   -1.564013
    106          6           0       36.992915    0.360285   -2.241843
    107          6           0       35.619298   -0.247810   -1.815737
    108          6           0       37.412925    2.917338   -2.592372
    109          6           0       38.161253   -0.501302   -1.759057
    110          6           0       39.200908   -1.060852   -2.759484
    111          7           0       32.970744   -1.509181   -1.007963
    112          6           0       34.000311   -2.164312   -1.618854
    113          6           0       33.636541   -3.542014   -1.804472
    114          6           0       32.491878   -3.671799   -0.931096
    115          6           0       32.180142   -2.388029   -0.451839
    116          6           0       34.462892   -4.602075   -2.473549
    117          6           0       31.599639   -4.642141   -0.331788
    118          8           0       31.435457   -5.795708   -0.590086
    119          6           0       30.570134   -3.864395    0.577335
    120          6           0       29.106447   -3.917616    0.086800
    121          8           0       28.749533   -3.668947   -1.044721
    122          8           0       28.277694   -4.393870    1.123578
    123          6           0       26.914295   -4.669522    0.784278
    124          1           0       29.790030    2.859607    2.105279
    125          1           0       35.708868    3.757564   -0.368323
    126          1           0       36.027253   -2.125284   -2.480292
    127          1           0       28.485230   -1.660848    1.472620
    128          1           0       28.938191    0.459738    3.192744
    129          1           0       27.076333    1.143552    2.150359
    130          1           0       27.215994   -0.056866    0.817397
    131          1           0       28.037787    1.538709    0.699333
    132          1           0       30.124593   -1.409304    4.000450
    133          1           0       30.496142   -2.818802    2.978923
    134          1           0       28.680309   -3.829974    3.884482
    135          1           0       27.636612   -2.420085    3.467120
    136          1           0       30.251612    4.893441    2.343331
    137          1           0       30.983371    6.251976    1.586105
    138          1           0       31.733206    5.504869    3.057390
    139          1           0       36.129178    5.771572    0.040590
    140          1           0       35.490887    7.446524   -0.014995
    141          1           0       34.928293    6.273636   -1.190820
    142          1           0       37.492625    1.803306   -0.613990
    143          1           0       36.923901    0.359164   -3.329874
    144          1           0       38.121353    3.594183   -2.115649
    145          1           0       36.543292    3.489580   -2.917664
    146          1           0       37.879917    2.392049   -3.426186
    147          1           0       37.821365   -1.320594   -1.125951
    148          1           0       38.784371   -0.036653   -0.995077
    149          1           0       39.200539   -2.136571   -2.937446
    150          1           0       40.168279   -0.846863   -2.304419
    151          1           0       39.104947   -0.586034   -3.736667
    152          1           0       33.788778   -5.423964   -2.715997
    153          1           0       35.097141   -5.183994   -1.805561
    154          1           0       35.078092   -4.253071   -3.302482
    155          1           0       30.635597   -4.397784    1.526069
    156          1           0       26.441480   -4.517472    1.755093
    157          1           0       26.751030   -5.726270    0.573512
    158          1           0       26.586960   -4.048380   -0.048509
 ---------------------------------------------------------------------

 SCF Done:  E(RCAM-B3LYP) =  -4069.76700159     A.U. after   18 cycles

 Excitation energies and oscillator strengths:

 Excited State   1:      Singlet-A      1.6846 eV  736.00 nm  f=0.3857  <S**2>=0.000
     310 -> 316       -0.17409
     312 -> 314        0.68816
     310 <- 316       -0.10834
 This state for optimization and/or second-order correction.
 Total Energy, E(TD-HF/TD-DFT) =  -4069.70509509
 Copying the excited state density for this state as the 1-particle RhoCI density.

 Excited State   2:      Singlet-A      1.7132 eV  723.72 nm  f=0.3833  <S**2>=0.000
     309 -> 315        0.17423
     311 -> 313        0.68635
     309 <- 315        0.10491

 Excited State   3:      Singlet-A      2.1719 eV  570.86 nm  f=0.1597  <S**2>=0.000
     309 -> 313        0.65197
     311 -> 315       -0.25356

 Excited State   4:      Singlet-A      2.2457 eV  552.09 nm  f=0.1074  <S**2>=0.000
     310 -> 314        0.63696
     312 -> 316        0.29186

 Excited State   5:      Singlet-A      2.9662 eV  417.99 nm  f=0.0000  <S**2>=0.000
     312 -> 313        0.70711

 The electronic state is 1-A.
 Alpha  occ. eigenvalues --  -46.90508 -46.89803 -19.25149 -19.25135 -19.20747
 Alpha  occ. eigenvalues --  -19.19854 -19.19698 -19.19135 -19.18327 -19.18261
 Alpha  occ. eigenvalues --  -14.43513 -14.42314 -14.42018 -14.42015 -14.40200
 Alpha  occ. eigenvalues --  -14.40074 -14.39898 -14.39084 -10.40086 -10.39152
 Alpha  occ. eigenvalues --  -10.36382 -10.35299 -10.34215 -10.34022 -10.33133
 Alpha  occ. eigenvalues --  -10.32098 -10.31814 -10.31708 -10.31696 -10.31623
 Alpha  occ. eigenvalues --  -10.31539 -10.31461 -10.31191 -10.30972 -10.30850
 Alpha  occ. eigenvalues --  -10.30563 -10.30478 -10.30444 -10.30152 -10.29858
 Alpha  occ. eigenvalues --  -10.29656 -10.29449 -10.29283 -10.29118 -10.28734
 Alpha  occ. eigenvalues --  -10.28697 -10.28652 -10.28542 -10.28511 -10.28511
 Alpha  occ. eigenvalues --  -10.28482 -10.28462 -10.28316 -10.28291 -10.28288
 Alpha  occ. eigenvalues --  -10.28224 -10.28222 -10.28167 -10.28137 -10.28119
 Alpha  occ. eigenvalues --  -10.27921 -10.27813 -10.27653 -10.27622 -10.27487
 Alpha  occ. eigenvalues --  -10.27359 -10.27053 -10.27043 -10.27010 -10.26868
 Alpha  occ. eigenvalues --  -10.26856 -10.26698 -10.26441 -10.26433 -10.26400
 Alpha  occ. eigenvalues --  -10.26294 -10.26273 -10.26201 -10.26076 -10.25922
 Alpha  occ. eigenvalues --  -10.25862 -10.25700 -10.25462 -10.25438 -10.24935
 Alpha  occ. eigenvalues --  -10.24634  -3.18719  -3.18221  -1.93647  -1.93150
 Alpha  occ. eigenvalues --   -1.93071  -1.93021  -1.92731  -1.92488  -1.16084
 Alpha  occ. eigenvalues --   -1.15563  -1.10799  -1.10294  -1.10083  -1.09794
 Alpha  occ. eigenvalues --   -1.08739  -1.07506  -1.04915  -1.04844  -1.04081
 Alpha  occ. eigenvalues --   -1.02918  -1.02596  -1.02387  -1.01762  -1.01599
 Alpha  occ. eigenvalues --   -0.92612  -0.92247  -0.89528  -0.89406  -0.89219
 Alpha  occ. eigenvalues --   -0.88375  -0.88218  -0.88188  -0.87720  -0.87199
 Alpha  occ. eigenvalues --   -0.86877  -0.86432  -0.85842  -0.85817  -0.84541
 Alpha  occ. eigenvalues --   -0.84095  -0.83868  -0.83373  -0.82922  -0.82703
 Alpha  occ. eigenvalues --   -0.82254  -0.82236  -0.81152  -0.80914  -0.80778
 Alpha  occ. eigenvalues --   -0.80258  -0.77861  -0.77839  -0.77335  -0.77212
 Alpha  occ. eigenvalues --   -0.77013  -0.76768  -0.76246  -0.76129  -0.75552
 Alpha  occ. eigenvalues --   -0.74939  -0.73529  -0.72666  -0.72309  -0.71349
 Alpha  occ. eigenvalues --   -0.69419  -0.69245  -0.69020  -0.68441  -0.68018
 Alpha  occ. eigenvalues --   -0.67458  -0.67158  -0.66511  -0.65923  -0.65659
 Alpha  occ. eigenvalues --   -0.65499  -0.65275  -0.64835  -0.64818  -0.64508
 Alpha  occ. eigenvalues --   -0.64099  -0.63033  -0.62826  -0.60277  -0.59775
 Alpha  occ. eigenvalues --   -0.59655  -0.59484  -0.59483  -0.59093  -0.58997
 Alpha  occ. eigenvalues --   -0.58570  -0.58012  -0.57818  -0.57469  -0.57012
 Alpha  occ. eigenvalues --   -0.56578  -0.56335  -0.56000  -0.55473  -0.55337
 Alpha  occ. eigenvalues --   -0.54971  -0.54838  -0.54835  -0.54011  -0.53871
 Alpha  occ. eigenvalues --   -0.53547  -0.53260  -0.53249  -0.52852  -0.52808
 Alpha  occ. eigenvalues --   -0.52726  -0.52603  -0.52508  -0.52452  -0.52119
 Alpha  occ. eigenvalues --   -0.52096  -0.51870  -0.51740  -0.51646  -0.51352
 Alpha  occ. eigenvalues --   -0.51045  -0.50959  -0.50803  -0.50402  -0.50235
 Alpha  occ. eigenvalues --   -0.50206  -0.50089  -0.49737  -0.49708  -0.49618
 Alpha  occ. eigenvalues --   -0.49520  -0.49221  -0.49168  -0.49153  -0.48896
 Alpha  occ. eigenvalues --   -0.48766  -0.48670  -0.48454  -0.48334  -0.48018
 Alpha  occ. eigenvalues --   -0.47973  -0.47896  -0.47820  -0.47310  -0.47196
 Alpha  occ. eigenvalues --   -0.47036  -0.47030  -0.46955  -0.46730  -0.46608
 Alpha  occ. eigenvalues --   -0.46426  -0.46174  -0.46152  -0.46015  -0.45926
 Alpha  occ. eigenvalues --   -0.45860  -0.45711  -0.45681  -0.45333  -0.45242
 Alpha  occ. eigenvalues --   -0.45211  -0.44962  -0.44769  -0.44696  -0.44547
 Alpha  occ. eigenvalues --   -0.44515  -0.44143  -0.44079  -0.43970  -0.43749
 Alpha  occ. eigenvalues --   -0.43657  -0.43536  -0.43386  -0.43114  -0.43003
 Alpha  occ. eigenvalues --   -0.42780  -0.42715  -0.42685  -0.42499  -0.42449
 Alpha  occ. eigenvalues --   -0.42252  -0.42198  -0.41617  -0.41524  -0.41431
 Alpha  occ. eigenvalues --   -0.41298  -0.41079  -0.40979  -0.40508  -0.40466
 Alpha  occ. eigenvalues --   -0.39990  -0.39807  -0.39734  -0.39488  -0.38657
 Alpha  occ. eigenvalues --   -0.38372  -0.38188  -0.37838  -0.37731  -0.37433
 Alpha  occ. eigenvalues --   -0.37237  -0.37071  -0.36807  -0.36698  -0.36233
 Alpha  occ. eigenvalues --   -0.35918  -0.35610  -0.34791  -0.34513  -0.34340
 Alpha  occ. eigenvalues --   -0.34266  -0.33356  -0.33284  -0.31784  -0.31587
 Alpha  occ. eigenvalues --   -0.31256  -0.31245  -0.30550  -0.30222  -0.30213
 Alpha  occ. eigenvalues --   -0.29972  -0.29603  -0.29177  -0.24637  -0.24320
 Alpha  occ. eigenvalues --   -0.22176  -0.21173
 Alpha virt. eigenvalues --   -0.09748  -0.08787  -0.02360  -0.01652  -0.00001
 Alpha virt. eigenvalues --    0.00388   0.01329   0.02159   0.02193   0.02315
 Alpha virt. eigenvalues --    0.04487   0.04567   0.04665   0.05246   0.05820

 Mulliken charges:
               1
     1  Mg   0.796943
     2  C    0.074173
     3  C   -0.043125
     4  C   -0.054829
     5  C   -0.052384
     6  N   -0.300179
     7  C   -0.060077
     8  C   -0.022678
     9  C   -0.080334
    10  C    0.066994
    11  C    0.078396
    12  C    0.079035
    13  C   -0.093759
    14  H    0.008080
    15  N   -0.374610
    16  C    0.119176
    17  C   -0.139293
    18  C   -0.092376
    19  C    0.150518
    20  C    0.136723
    21  C    0.043171
    22  O   -0.209323
    23  C    0.005513
    24  N   -0.267859
    25  C    0.091587
    26  C   -0.078118
    27  C   -0.006922
    28  C   -0.004268
    29  C    0.049036
    30  C    0.036106
    31  C    0.003128
    32  N   -0.332674
    33  C    0.107736
    34  C   -0.158931
    35  C    0.031405
    36  C    0.039547
    37  C    0.122497
    38  C   -0.007870
    39  O   -0.164710
    40  C    0.009197
    41  C    0.181786
    42  O   -0.214868
    43  O   -0.355673
    44  C    0.174532
    45  H   -0.038478
    46  H   -0.042455
    47  H   -0.028614
    48  H    0.009895
    49  H    0.015625
    50  H    0.021439
    51  H    0.026850
    52  H    0.021369
    53  H    0.016745
    54  H    0.018218
    55  H    0.047016
    56  H    0.036472
    57  H    0.034174
    58  H    0.033176
    59  H    0.040589
    60  H    0.045901
    61  H    0.034659
    62  H    0.021638
    63  H    0.028686
    64  H    0.005436
    65  H    0.013841
    66  H    0.019604
    67  H    0.009810
    68  H    0.018862
    69  H    0.003657
    70  H    0.014577
    71  H    0.015972
    72  H    0.017381
    73  H    0.038997
    74  H    0.023827
    75  H    0.024089
    76  H    0.036629
    77  H    0.051290
    78  H    0.034191
    79  H    0.038514
    80  Mg   0.828020
    81  C   -0.072406
    82  C   -0.057806
    83  C   -0.081641
    84  C   -0.081436
    85  N   -0.265420
    86  C   -0.081263
    87  C   -0.050673
    88  C   -0.081874
    89  C    0.007721
    90  C    0.060799
    91  C    0.092484
    92  C   -0.035268
    93  H    0.002944
    94  N   -0.385518
    95  C    0.158081
    96  C   -0.142462
    97  C   -0.067431
    98  C    0.178891
    99  C    0.144046
   100  C    0.031875
   101  O   -0.206484
   102  C    0.035037
   103  N   -0.335715
   104  C    0.049462
   105  C   -0.075299
   106  C    0.031385
   107  C    0.005889
   108  C    0.071054
   109  C    0.013956
   110  C   -0.000425
   111  N   -0.323367
   112  C    0.132910
   113  C   -0.155249
   114  C   -0.032982
   115  C    0.194940
   116  C    0.109650
   117  C    0.027407
   118  O   -0.144002
   119  C   -0.010156
   120  C    0.212554
   121  O   -0.191213
   122  O   -0.358177
   123  C    0.169355
   124  H   -0.013824
   125  H   -0.041829
   126  H   -0.032965
   127  H    0.008073
   128  H    0.010258
   129  H    0.021960
   130  H    0.030843
   131  H    0.021833
   132  H    0.012239
   133  H    0.014209
   134  H    0.040371
   135  H    0.028154
   136  H   -0.012255
   137  H    0.032709
   138  H    0.042225
   139  H    0.049851
   140  H    0.031285
   141  H    0.045628
   142  H    0.029955
   143  H    0.018153
   144  H    0.017706
   145  H    0.025638
   146  H    0.023971
   147  H    0.007632
   148  H   -0.005477
   149  H    0.018753
   150  H    0.012241
   151  H    0.011897
   152  H    0.026178
   153  H    0.020808
   154  H    0.022577
   155  H    0.044402
   156  H    0.028348
   157  H    0.035824
   158  H    0.050436
 Sum of Mulliken charges =  -0.00000

 Dipole moment (field-independent basis, Debye):
    X=             -0.6398    Y=              0.0627    Z=             -2.9695  Tot=              3.0383
 Quadrupole moment (field-independent basis, Debye-Ang):
   XX=           -174.8131   YY=           -600.4481   ZZ=           -510.9984
   XY=            103.3054   XZ=             50.0571   YZ=            -28.3987

 Normal termination of Gaussian 16 at Thu Sep 16 03:05:02 2021.
