 Gaussian 16, Revision A.03,
 Gaussian 16:  ES64L-G16RevA.03 25-Dec-2016

 ----------------------------------------------------------
 #p cam-b3lyp/Def2SVP td=(nstates=5) density=(transition=1)
 ----------------------------------------------------------

 --------------------------------
 TDDFT excited states in gaussian
 --------------------------------
 Symbolic Z-matrix:
 Charge =  0 Multiplicity = 1

                         Standard orientation:
 ---------------------------------------------------------------------
 Center     Atomic      Atomic             Coordinates (Angstroms)
 Number     Number       Type             X           Y           Z
 ---------------------------------------------------------------------
      1         12           0       -9.364904   -0.842398    0.494985
      2          6           0      -10.179413    2.287866   -0.502382
      3          6           0       -7.364778    0.478859    3.008652
      4          6           0       -8.545534   -3.973415    1.488379
      5          6           0      -10.951495   -2.144962   -2.292326
      6          7           0       -8.975416    1.113387    1.170824
      7          6           0       -9.370957    2.287456    0.617203
      8          6           0       -9.025993    3.474696    1.477936
      9          6           0       -7.904532    2.912504    2.431757
     10          6           0       -8.116455    1.379266    2.208089
     11          6           0       -6.406433    3.412744    2.289556
     12          6           0      -10.277032    3.966759    2.336150
     13          6           0      -10.165894    5.464451    2.747735
     14          1           0       -8.805549    6.161677    2.916504
     15          7           0       -8.054545   -1.688918    1.996565
     16          6           0       -7.329981   -0.918222    2.943258
     17          6           0       -6.615183   -1.793356    3.822747
     18          6           0       -6.930784   -3.129764    3.387589
     19          6           0       -7.898638   -2.940608    2.248561
     20          6           0       -5.808645   -1.347729    4.991782
     21          6           0       -6.451575   -4.465680    3.944426
     22          8           0       -6.681276   -5.602392    3.436581
     23          6           0       -5.604310   -4.485956    5.205352
     24          7           0       -9.633222   -2.770186   -0.311697
     25          6           0       -9.366634   -3.951137    0.382896
     26          6           0      -10.055291   -5.217579   -0.202889
     27          6           0      -10.873742   -4.514068   -1.424768
     28          6           0      -10.513777   -3.075439   -1.350802
     29          6           0       -8.976650   -6.212498   -0.650229
     30          6           0      -12.349026   -4.786884   -1.419078
     31          6           0      -12.851344   -5.392775   -2.698347
     32          7           0      -10.254521   -0.201524   -1.126202
     33          6           0      -10.900019   -0.804182   -2.198772
     34          6           0      -11.429387    0.181495   -3.066618
     35          6           0      -11.149934    1.450891   -2.492868
     36          6           0      -10.526229    1.178914   -1.256924
     37          6           0      -12.187952    0.006712   -4.325962
     38          6           0      -11.195682    2.880485   -2.708747
     39          8           0      -11.570052    3.602839   -3.611803
     40          6           0      -10.607634    3.454999   -1.333733
     41          6           0       -9.721987    4.629999   -1.543968
     42          8           0       -8.874703    4.749734   -2.391663
     43          8           0       -9.965755    5.638066   -0.692154
     44          6           0       -9.080795    6.824092   -0.871600
     45          1           0       -6.638185    0.991934    3.642310
     46          1           0       -8.167397   -4.967049    1.737359
     47          1           0      -11.565887   -2.475353   -3.132367
     48          1           0       -8.526966    4.264723    0.917002
     49          1           0       -8.215344    3.085510    3.461580
     50          1           0       -6.402484    4.212071    1.548410
     51          1           0       -5.650750    2.676406    2.020594
     52          1           0       -6.102819    3.761261    3.276884
     53          1           0      -10.301774    3.284631    3.186149
     54          1           0      -11.165165    3.823235    1.720624
     55          1           0      -10.709700    5.483039    3.692387
     56          1           0      -10.807577    6.014706    2.060085
     57          1           0       -6.369550   -1.133547    5.901569
     58          1           0       -5.257117   -0.475524    4.643065
     59          1           0       -4.964680   -2.002916    5.205491
     60          1           0       -4.581357   -4.299142    4.878950
     61          1           0       -5.684046   -5.506969    5.577738
     62          1           0       -5.884807   -3.732687    5.941776
     63          1           0      -10.610671   -5.664702    0.621659
     64          1           0      -10.495940   -4.914049   -2.366321
     65          1           0       -7.950904   -5.843687   -0.631272
     66          1           0       -9.273361   -6.648096   -1.604040
     67          1           0       -8.974671   -7.002411    0.101417
     68          1           0      -12.952839   -3.885820   -1.310598
     69          1           0      -12.690271   -5.428591   -0.606658
     70          1           0      -13.479995   -6.268466   -2.539457
     71          1           0      -12.027926   -5.709407   -3.337974
     72          1           0      -13.322711   -4.558612   -3.218876
     73          1           0      -11.943397   -0.878558   -4.913733
     74          1           0      -11.761312    0.769192   -4.978292
     75          1           0      -13.258097    0.069298   -4.128256
     76          1           0      -11.553698    3.827469   -0.939810
     77          1           0       -9.380251    7.434015   -1.725088
     78          1           0       -8.025328    6.552067   -0.852269
     79          1           0       -9.197332    7.467733    0.000665
     80         12           0        9.397389   -0.539128   -0.016898
     81          6           0        7.935213    2.581447   -0.007628
     82          6           0       12.300524    0.967445    0.987636
     83          6           0       10.914562   -3.542662   -0.302171
     84          6           0        6.586424   -1.855141   -1.583971
     85          7           0       10.010597    1.625952    0.295069
     86          6           0        9.247498    2.640324    0.437303
     87          6           0        9.946311    4.003801    0.948159
     88          6           0       11.440072    3.490014    0.965790
     89          6           0       11.297563    1.925297    0.653348
     90          6           0       12.400410    4.134026   -0.165620
     91          6           0        9.435534    4.549285    2.351677
     92          6           0        9.447906    6.102368    2.580580
     93          1           0       10.176484    6.925812    1.561885
     94          7           0       11.261458   -1.206184    0.358568
     95          6           0       12.375251   -0.432548    0.872501
     96          6           0       13.488917   -1.353212    1.075992
     97          6           0       13.139704   -2.642060    0.601259
     98          6           0       11.711100   -2.519779    0.232805
     99          6           0       14.707708   -0.804759    1.726373
    100          6           0       13.939280   -3.965573    0.565809
    101          8           0       13.583004   -4.982518    0.048983
    102          6           0       15.381370   -3.867308    1.103202
    103          7           0        8.920243   -2.452324   -0.918786
    104          6           0        9.665551   -3.511937   -0.922215
    105          6           0        9.067888   -4.633664   -1.818185
    106          6           0        7.637041   -4.134076   -2.131095
    107          6           0        7.674580   -2.722635   -1.499282
    108          6           0        9.939322   -4.866655   -3.070707
    109          6           0        6.535715   -5.086121   -1.571754
    110          6           0        6.399512   -6.426773   -2.311537
    111          7           0        7.583702    0.181923   -0.685710
    112          6           0        6.505929   -0.508427   -1.211129
    113          6           0        5.441951    0.448536   -1.364736
    114          6           0        5.922685    1.726753   -0.950527
    115          6           0        7.245134    1.437998   -0.516311
    116          6           0        4.163719    0.163129   -1.905215
    117          6           0        5.634768    3.104197   -0.706441
    118          8           0        4.586080    3.753206   -0.997335
    119          6           0        6.991827    3.722768   -0.191083
    120          6           0        7.377449    4.756955   -1.127320
    121          8           0        7.957225    4.549511   -2.192954
    122          8           0        6.841858    5.934521   -0.671245
    123          6           0        6.932132    7.032516   -1.656829
    124          1           0       13.247396    1.423117    1.283157
    125          1           0       11.462964   -4.486826   -0.342437
    126          1           0        5.702589   -2.333223   -2.012516
    127          1           0        9.796772    4.690966    0.114977
    128          1           0       11.900738    3.711863    1.928224
    129          1           0       11.765007    4.543754   -0.951299
    130          1           0       13.048627    3.361703   -0.579375
    131          1           0       13.072718    4.926652    0.164398
    132          1           0       10.129512    4.104249    3.064230
    133          1           0        8.526816    4.093647    2.746531
    134          1           0        9.849548    6.400705    3.548894
    135          1           0        8.427333    6.478373    2.508224
    136          1           0       15.357472   -0.332655    0.988914
    137          1           0       15.193273   -1.518191    2.392362
    138          1           0       14.372931   -0.030253    2.416013
    139          1           0       15.458394   -3.796885    2.188643
    140          1           0       15.735861   -2.970135    0.596746
    141          1           0       16.060901   -4.658452    0.787698
    142          1           0        9.046008   -5.486158   -1.139726
    143          1           0        7.525683   -3.997426   -3.206721
    144          1           0       10.554013   -4.022379   -3.383653
    145          1           0        9.434524   -5.072043   -4.015270
    146          1           0       10.583128   -5.709151   -2.818254
    147          1           0        5.567789   -4.596613   -1.670170
    148          1           0        6.713032   -5.271618   -0.511851
    149          1           0        7.200805   -6.477919   -3.048717
    150          1           0        5.528985   -6.379122   -2.965936
    151          1           0        6.299768   -7.343158   -1.730321
    152          1           0        3.873286   -0.775817   -1.433752
    153          1           0        4.120058   -0.004048   -2.981309
    154          1           0        3.516667    1.024213   -1.734857
    155          1           0        6.702680    4.187019    0.752133
    156          1           0        6.283709    6.746877   -2.485595
    157          1           0        7.965136    7.269342   -1.909455
    158          1           0        6.509329    7.921298   -1.188163
 ---------------------------------------------------------------------

 SCF Done:  E(RCAM-B3LYP) =  -4069.82739396     A.U. after   18 cycles

 Excitation energies and oscillator strengths:

 Excited State   1:      Singlet-A      1.6457 eV  753.37 nm  f=0.4048  <S**2>=0.000
     309 -> 316       -0.16996
     312 -> 313        0.68898
     309 <- 316       -0.10750
 This state for optimization and/or second-order correction.
 Total Energy, E(TD-HF/TD-DFT) =  -4069.76691419
 Copying the excited state density for this state as the 1-particle RhoCI density.

 Excited State   2:      Singlet-A      1.7720 eV  699.67 nm  f=0.3751  <S**2>=0.000
     310 -> 315        0.19893
     311 -> 314        0.67921
     310 <- 315        0.10973

 Excited State   3:      Singlet-A      2.2143 eV  559.94 nm  f=0.0876  <S**2>=0.000
     310 -> 314        0.64013
     311 -> 315       -0.27991

 Excited State   4:      Singlet-A      2.2271 eV  556.71 nm  f=0.1306  <S**2>=0.000
     309 -> 313        0.63532
     312 -> 316        0.29019

 Excited State   5:      Singlet-A      2.8543 eV  434.38 nm  f=0.0000  <S**2>=0.000
     311 -> 313        0.70696

 The electronic state is 1-A.
 Alpha  occ. eigenvalues --  -46.88378 -46.87025 -19.25010 -19.24786 -19.20144
 Alpha  occ. eigenvalues --  -19.19292 -19.19095 -19.18601 -19.18397 -19.18225
 Alpha  occ. eigenvalues --  -14.42725 -14.42202 -14.41566 -14.41516 -14.39659
 Alpha  occ. eigenvalues --  -14.39405 -14.38925 -14.38634 -10.38540 -10.38436
 Alpha  occ. eigenvalues --  -10.36253 -10.35127 -10.35017 -10.34747 -10.31876
 Alpha  occ. eigenvalues --  -10.31823 -10.31259 -10.31221 -10.30821 -10.30664
 Alpha  occ. eigenvalues --  -10.30648 -10.30613 -10.30448 -10.30398 -10.30369
 Alpha  occ. eigenvalues --  -10.30325 -10.29997 -10.29730 -10.29414 -10.29230
 Alpha  occ. eigenvalues --  -10.29208 -10.28979 -10.28924 -10.28901 -10.28821
 Alpha  occ. eigenvalues --  -10.28733 -10.28628 -10.28170 -10.28091 -10.28074
 Alpha  occ. eigenvalues --  -10.28047 -10.27885 -10.27797 -10.27749 -10.27731
 Alpha  occ. eigenvalues --  -10.27722 -10.27673 -10.27579 -10.27524 -10.27518
 Alpha  occ. eigenvalues --  -10.27415 -10.27405 -10.27359 -10.27161 -10.27129
 Alpha  occ. eigenvalues --  -10.27083 -10.27080 -10.26902 -10.26654 -10.26616
 Alpha  occ. eigenvalues --  -10.26512 -10.26257 -10.26146 -10.25880 -10.25725
 Alpha  occ. eigenvalues --  -10.25673 -10.25627 -10.25517 -10.25390 -10.25332
 Alpha  occ. eigenvalues --  -10.25308 -10.25259 -10.25123 -10.25039 -10.24611
 Alpha  occ. eigenvalues --  -10.24433  -3.16992  -3.15883  -1.91885  -1.91453
 Alpha  occ. eigenvalues --   -1.91295  -1.90774  -1.90318  -1.90229  -1.17150
 Alpha  occ. eigenvalues --   -1.15510  -1.12497  -1.10011  -1.07312  -1.07212
 Alpha  occ. eigenvalues --   -1.07098  -1.06734  -1.05369  -1.04395  -1.04292
 Alpha  occ. eigenvalues --   -1.03449  -1.03438  -1.02597  -1.01294  -1.00853
 Alpha  occ. eigenvalues --   -0.93245  -0.92509  -0.89615  -0.89287  -0.88692
 Alpha  occ. eigenvalues --   -0.88446  -0.88334  -0.87835  -0.87563  -0.87465
 Alpha  occ. eigenvalues --   -0.87106  -0.86941  -0.86833  -0.86294  -0.84222
 Alpha  occ. eigenvalues --   -0.83899  -0.83689  -0.83447  -0.82349  -0.82301
 Alpha  occ. eigenvalues --   -0.81730  -0.81545  -0.81035  -0.80928  -0.80395
 Alpha  occ. eigenvalues --   -0.80261  -0.78529  -0.78247  -0.77668  -0.77358
 Alpha  occ. eigenvalues --   -0.77217  -0.76390  -0.76374  -0.75738  -0.75096
 Alpha  occ. eigenvalues --   -0.74815  -0.72765  -0.72185  -0.71725  -0.71444
 Alpha  occ. eigenvalues --   -0.69373  -0.68968  -0.68784  -0.68596  -0.68171
 Alpha  occ. eigenvalues --   -0.68063  -0.66976  -0.66587  -0.65813  -0.65747
 Alpha  occ. eigenvalues --   -0.65372  -0.65233  -0.64735  -0.64655  -0.64063
 Alpha  occ. eigenvalues --   -0.63952  -0.62199  -0.61538  -0.60213  -0.60002
 Alpha  occ. eigenvalues --   -0.59801  -0.59351  -0.59114  -0.58844  -0.58266
 Alpha  occ. eigenvalues --   -0.58257  -0.57872  -0.57863  -0.57645  -0.57591
 Alpha  occ. eigenvalues --   -0.55969  -0.55969  -0.55704  -0.55352  -0.55140
 Alpha  occ. eigenvalues --   -0.55062  -0.54865  -0.54527  -0.53940  -0.53833
 Alpha  occ. eigenvalues --   -0.53341  -0.53205  -0.53136  -0.52935  -0.52882
 Alpha  occ. eigenvalues --   -0.52783  -0.52710  -0.52425  -0.52325  -0.52053
 Alpha  occ. eigenvalues --   -0.52026  -0.51874  -0.51857  -0.51362  -0.51195
 Alpha  occ. eigenvalues --   -0.51100  -0.51032  -0.50926  -0.50697  -0.50366
 Alpha  occ. eigenvalues --   -0.50211  -0.49962  -0.49883  -0.49486  -0.49400
 Alpha  occ. eigenvalues --   -0.49133  -0.48926  -0.48895  -0.48726  -0.48511
 Alpha  occ. eigenvalues --   -0.48431  -0.48265  -0.48175  -0.48089  -0.47890
 Alpha  occ. eigenvalues --   -0.47818  -0.47775  -0.47654  -0.47201  -0.47098
 Alpha  occ. eigenvalues --   -0.47019  -0.46613  -0.46583  -0.46480  -0.46429
 Alpha  occ. eigenvalues --   -0.46230  -0.46208  -0.46008  -0.45790  -0.45577
 Alpha  occ. eigenvalues --   -0.45107  -0.45071  -0.44832  -0.44795  -0.44662
 Alpha  occ. eigenvalues --   -0.44435  -0.44372  -0.44260  -0.44149  -0.43934
 Alpha  occ. eigenvalues --   -0.43771  -0.43718  -0.43505  -0.43379  -0.43188
 Alpha  occ. eigenvalues --   -0.43180  -0.43052  -0.42901  -0.42744  -0.42637
 Alpha  occ. eigenvalues --   -0.42286  -0.42258  -0.42232  -0.41894  -0.41854
 Alpha  occ. eigenvalues --   -0.41698  -0.41657  -0.41451  -0.41280  -0.41158
 Alpha  occ. eigenvalues --   -0.40881  -0.40770  -0.40624  -0.40389  -0.40312
 Alpha  occ. eigenvalues --   -0.40251  -0.40193  -0.39951  -0.39803  -0.39363
 Alpha  occ. eigenvalues --   -0.38196  -0.38122  -0.37967  -0.37850  -0.37604
 Alpha  occ. eigenvalues --   -0.37499  -0.37075  -0.36907  -0.36862  -0.36546
 Alpha  occ. eigenvalues --   -0.36471  -0.36300  -0.34477  -0.34290  -0.33998
 Alpha  occ. eigenvalues --   -0.33880  -0.33418  -0.33208  -0.31735  -0.31413
 Alpha  occ. eigenvalues --   -0.31179  -0.30619  -0.30610  -0.30372  -0.30127
 Alpha  occ. eigenvalues --   -0.29830  -0.29459  -0.29149  -0.24195  -0.23650
 Alpha  occ. eigenvalues --   -0.21220  -0.20916
 Alpha virt. eigenvalues --   -0.08846  -0.08403  -0.01674  -0.01496  -0.00016
 Alpha virt. eigenvalues --    0.00223   0.02108   0.02281   0.02608   0.03276
 Alpha virt. eigenvalues --    0.04913   0.05482   0.05592   0.05948   0.06015

 Mulliken charges:
               1
     1  Mg  12.004677
     2  C    5.973863
     3  C    6.009119
     4  C    6.036007
     5  C    6.009458
     6  N    6.986767
     7  C    6.036100
     8  C    5.987000
     9  C    6.010829
    10  C    5.963809
    11  C    6.005236
    12  C    5.997012
    13  C    5.999797
    14  H    1.006807
    15  N    7.007043
    16  C    5.951022
    17  C    5.987502
    18  C    5.975087
    19  C    5.963614
    20  C    6.004855
    21  C    5.986848
    22  O    7.961326
    23  C    6.005848
    24  N    7.021015
    25  C    5.961854
    26  C    6.010874
    27  C    5.987040
    28  C    6.018960
    29  C    6.000282
    30  C    5.993133
    31  C    5.999657
    32  N    6.994706
    33  C    6.025696
    34  C    6.035855
    35  C    6.002041
    36  C    6.035588
    37  C    5.995011
    38  C    6.012811
    39  O    8.025351
    40  C    6.004330
    41  C    6.002911
    42  O    8.002442
    43  O    8.002102
    44  C    5.997833
    45  H    0.984310
    46  H    1.002325
    47  H    1.015968
    48  H    0.999754
    49  H    0.995949
    50  H    0.983468
    51  H    1.000648
    52  H    0.996412
    53  H    1.012925
    54  H    0.992180
    55  H    1.002765
    56  H    0.995455
    57  H    0.979561
    58  H    0.985436
    59  H    0.984084
    60  H    0.989095
    61  H    0.984196
    62  H    0.992687
    63  H    1.003347
    64  H    1.004559
    65  H    1.004907
    66  H    0.991028
    67  H    1.004939
    68  H    0.997715
    69  H    1.013773
    70  H    1.007739
    71  H    1.004240
    72  H    0.995339
    73  H    1.019244
    74  H    1.017690
    75  H    1.023853
    76  H    1.003976
    77  H    1.000627
    78  H    1.005416
    79  H    1.005270
    80  Mg  12.000415
    81  C    5.999745
    82  C    6.000417
    83  C    6.000420
    84  C    5.999973
    85  N    6.999867
    86  C    6.000734
    87  C    5.999686
    88  C    6.000320
    89  C    5.999064
    90  C    6.000186
    91  C    5.999776
    92  C    6.000184
    93  H    0.999462
    94  N    7.000265
    95  C    5.999006
    96  C    5.999599
    97  C    5.999381
    98  C    5.999437
    99  C    6.000140
   100  C    5.999778
   101  O    7.999330
   102  C    6.000156
   103  N    7.000019
   104  C    5.999464
   105  C    6.000102
   106  C    5.999584
   107  C    6.000874
   108  C    6.000215
   109  C    5.999784
   110  C    6.000181
   111  N    6.999750
   112  C    6.001026
   113  C    6.001046
   114  C    6.000021
   115  C    6.000677
   116  C    5.999782
   117  C    6.000838
   118  O    8.000688
   119  C    5.999821
   120  C    5.999988
   121  O    7.999789
   122  O    8.000193
   123  C    6.000126
   124  H    0.999547
   125  H    0.999789
   126  H    1.000345
   127  H    0.999705
   128  H    0.999843
   129  H    0.999471
   130  H    0.999905
   131  H    0.999565
   132  H    1.000315
   133  H    1.000474
   134  H    1.000062
   135  H    1.000022
   136  H    0.999254
   137  H    0.999568
   138  H    0.999732
   139  H    0.999837
   140  H    0.999744
   141  H    0.999411
   142  H    1.000253
   143  H    0.999638
   144  H    0.999753
   145  H    0.999435
   146  H    0.999936
   147  H    1.000516
   148  H    1.000769
   149  H    0.999550
   150  H    0.999831
   151  H    1.000408
   152  H    1.001565
   153  H    0.999749
   154  H    1.000632
   155  H    1.000537
   156  H    0.999642
   157  H    0.999911
   158  H    0.999977
 Sum of Mulliken charges = 624.00000

 Dipole moment (field-independent basis, Debye):
    X=             -6.6666    Y=              2.9357    Z=             -8.7557  Tot=             11.3896
 Quadrupole moment (field-independent basis, Debye-Ang):
   XX=            109.0544   YY=             -3.9094   ZZ=             -7.5339
   XY=            -17.7045   XZ=             75.4766   YZ=             10.8350

 Normal termination of Gaussian 16 at Wed Sep 22 22:49:01 2021.
