 Gaussian 16, Revision A.03,
 Gaussian 16:  ES64L-G16RevA.03 25-Dec-2016

 -----------------------------------
 #p cam-b3lyp/Def2SVP td=(nstates=5)
 -----------------------------------

 --------------------------------
 TDDFT excited states in gaussian
 --------------------------------
 Symbolic Z-matrix:
 Charge =  0 Multiplicity = 1

                         Standard orientation:
 ---------------------------------------------------------------------
 Center     Atomic      Atomic             Coordinates (Angstroms)
 Number     Number       Type             X           Y           Z
 ---------------------------------------------------------------------
      1         12           0       28.660293    0.503284   -0.230999
      2          6           0       26.829131   -2.241666    1.064694
      3          6           0       26.035154    2.490382    0.598279
      4          6           0       30.717933    3.169375   -0.697320
      5          6           0       31.405139   -1.594109   -0.512971
      6          7           0       26.742575    0.061346    0.879682
      7          6           0       26.126056   -1.109908    1.232033
      8          6           0       24.745554   -0.885759    1.726927
      9          6           0       24.422888    0.604672    1.239914
     10          6           0       25.788676    1.096261    0.901133
     11          6           0       23.448457    0.621436    0.073213
     12          6           0       24.755297   -1.148061    3.241102
     13          6           0       23.709562   -2.196289    3.811690
     14          1           0       22.720753   -1.814299    4.954076
     15          7           0       28.460993    2.552944   -0.132387
     16          6           0       27.236462    3.173970    0.150221
     17          6           0       27.392272    4.575480   -0.099663
     18          6           0       28.759211    4.837190   -0.452662
     19          6           0       29.358113    3.476910   -0.511801
     20          6           0       26.206394    5.524847    0.013426
     21          6           0       29.429585    6.161337   -0.743333
     22          8           0       28.624902    7.137052   -0.774037
     23          6           0       30.945640    6.471999   -0.894597
     24          7           0       30.796366    0.780984   -0.574658
     25          6           0       31.388208    1.980501   -0.766470
     26          6           0       32.922002    1.878381   -0.978043
     27          6           0       33.117094    0.323692   -1.028586
     28          6           0       31.661792   -0.204922   -0.621700
     29          6           0       33.310077    2.597915   -2.257344
     30          6           0       34.159503   -0.223637   -0.101987
     31          6           0       35.364716   -0.785757   -0.805839
     32          7           0       29.060205   -1.472234   -0.008983
     33          6           0       30.204100   -2.257993   -0.198329
     34          6           0       29.923494   -3.600863   -0.134812
     35          6           0       28.591639   -3.651475    0.324776
     36          6           0       28.145033   -2.338784    0.458235
     37          6           0       30.868907   -4.680338   -0.617800
     38          6           0       27.473039   -4.582962    0.629088
     39          8           0       27.443235   -5.772760    0.566034
     40          6           0       26.357204   -3.623913    1.192482
     41          6           0       25.035726   -4.113709    0.641630
     42          8           0       24.200017   -4.746701    1.286887
     43          8           0       24.877084   -3.694922   -0.701761
     44          6           0       23.560673   -4.035780   -1.240381
     45          1           0       25.131523    3.101668    0.650647
     46          1           0       31.393360    3.989543   -0.951822
     47          1           0       32.255309   -2.262406   -0.365436
     48          1           0       24.070515   -1.598442    1.252938
     49          1           0       23.964121    1.140352    2.070558
     50          1           0       23.604960   -0.195877   -0.629442
     51          1           0       23.632578    1.522849   -0.512251
     52          1           0       22.402075    0.668623    0.374722
     53          1           0       24.587215   -0.189223    3.731273
     54          1           0       25.736583   -1.410205    3.636657
     55          1           0       24.395491   -2.953919    4.191520
     56          1           0       23.215965   -2.729044    2.999749
     57          1           0       25.688152    5.393585    0.963332
     58          1           0       25.519666    5.244957   -0.785337
     59          1           0       26.416834    6.595164    0.024556
     60          1           0       31.203052    5.991384   -1.837906
     61          1           0       31.478090    6.013326   -0.061319
     62          1           0       31.157025    7.541604   -0.886223
     63          1           0       33.511974    2.329183   -0.180438
     64          1           0       33.235683   -0.001692   -2.061786
     65          1           0       32.873815    3.596239   -2.219774
     66          1           0       32.893212    2.042405   -3.098035
     67          1           0       34.359433    2.649361   -2.545225
     68          1           0       33.806959   -1.052078    0.512427
     69          1           0       34.555195    0.459231    0.649566
     70          1           0       36.248263   -0.297995   -0.395946
     71          1           0       35.385127   -0.542903   -1.868245
     72          1           0       35.442988   -1.872521   -0.760501
     73          1           0       30.258840   -5.574049   -0.752843
     74          1           0       31.662909   -4.886499    0.099551
     75          1           0       31.280380   -4.289891   -1.548308
     76          1           0       26.316001   -3.922915    2.240498
     77          1           0       23.279318   -3.339424   -2.030450
     78          1           0       22.774956   -3.869293   -0.504840
     79          1           0       23.492124   -5.069575   -1.580125
     80         12           0      -28.742708    0.376303    0.196275
     81          6           0      -27.213935   -2.195149   -1.422855
     82          6           0      -28.371085    2.412497   -2.551943
     83          6           0      -30.116407    2.895210    1.993168
     84          6           0      -28.672331   -1.582842    3.137117
     85          7           0      -27.681561    0.193287   -1.699682
     86          6           0      -27.440943   -1.033817   -2.233882
     87          6           0      -27.239678   -1.009063   -3.711176
     88          6           0      -27.377551    0.579482   -3.972977
     89          6           0      -27.843500    1.124848   -2.663012
     90          6           0      -26.006050    1.249045   -4.438488
     91          6           0      -28.417094   -1.839085   -4.406587
     92          6           0      -28.152150   -2.392396   -5.808466
     93          1           0      -26.973772   -1.954427   -6.713513
     94          7           0      -29.292548    2.354144   -0.204001
     95          6           0      -29.022957    3.014357   -1.413929
     96          6           0      -29.510998    4.366788   -1.274476
     97          6           0      -30.044817    4.510801    0.022312
     98          6           0      -29.864503    3.198061    0.626813
     99          6           0      -29.454158    5.363145   -2.455939
    100          6           0      -30.624642    5.856380    0.707761
    101          8           0      -31.201842    5.853185    1.802427
    102          6           0      -30.556676    7.236147    0.074233
    103          7           0      -29.380506    0.572732    2.306871
    104          6           0      -29.876056    1.747530    2.763889
    105          6           0      -29.974185    1.756595    4.288495
    106          6           0      -29.817550    0.165565    4.635729
    107          6           0      -29.357342   -0.388102    3.278055
    108          6           0      -29.003954    2.771012    5.050220
    109          6           0      -31.174537   -0.629101    4.991620
    110          6           0      -31.232367   -1.508199    6.227336
    111          7           0      -28.145293   -1.527600    0.813598
    112          6           0      -28.155736   -2.178209    1.990210
    113          6           0      -27.663171   -3.578412    1.799353
    114          6           0      -27.339971   -3.601165    0.421859
    115          6           0      -27.543028   -2.287361   -0.066653
    116          6           0      -27.561613   -4.716803    2.751879
    117          6           0      -26.835926   -4.486813   -0.559676
    118          8           0      -26.494380   -5.683811   -0.467395
    119          6           0      -26.724635   -3.614916   -1.807845
    120          6           0      -25.342660   -3.577114   -2.228434
    121          8           0      -24.356802   -3.265520   -1.636729
    122          8           0      -25.343099   -3.882522   -3.586217
    123          6           0      -24.076412   -3.884158   -4.413790
    124          1           0      -28.493374    3.036117   -3.439530
    125          1           0      -30.468498    3.739417    2.590238
    126          1           0      -28.440452   -2.167221    4.029295
    127          1           0      -26.320768   -1.374868   -4.168888
    128          1           0      -28.122217    0.791411   -4.740195
    129          1           0      -26.093085    2.054572   -5.167265
    130          1           0      -25.311049    0.465008   -4.738697
    131          1           0      -25.575363    1.710154   -3.549079
    132          1           0      -29.335681   -1.255173   -4.467634
    133          1           0      -28.610700   -2.673318   -3.731815
    134          1           0      -29.078823   -2.236848   -6.362349
    135          1           0      -28.076004   -3.477071   -5.742631
    136          1           0      -29.073547    4.937199   -3.384180
    137          1           0      -28.840456    6.200524   -2.125529
    138          1           0      -30.465511    5.744089   -2.599750
    139          1           0      -31.241794    7.179829   -0.770856
    140          1           0      -29.624694    7.402387   -0.466391
    141          1           0      -30.645483    8.010092    0.836340
    142          1           0      -30.995397    2.035712    4.550686
    143          1           0      -29.116482    0.012834    5.456499
    144          1           0      -28.352652    2.246473    5.749737
    145          1           0      -29.588943    3.527903    5.571474
    146          1           0      -28.323218    3.252136    4.347520
    147          1           0      -31.538525   -1.209448    4.143920
    148          1           0      -31.947228    0.131682    5.098156
    149          1           0      -31.513307   -2.503297    5.884198
    150          1           0      -31.919624   -1.133205    6.985218
    151          1           0      -30.231616   -1.615060    6.648216
    152          1           0      -27.969280   -4.523163    3.743918
    153          1           0      -26.521106   -5.005115    2.903522
    154          1           0      -28.095460   -5.566569    2.326902
    155          1           0      -27.332436   -3.993190   -2.630303
    156          1           0      -23.227087   -3.566920   -3.808335
    157          1           0      -24.166365   -3.155517   -5.220562
    158          1           0      -23.962680   -4.909713   -4.764976
 ---------------------------------------------------------------------

 SCF Done:  E(RCAM-B3LYP) =  -4069.80876793     A.U. after   19 cycles

 Excitation energies and oscillator strengths:

 Excited State   1:      Singlet-A      1.6837 eV  736.38 nm  f=0.3592  <S**2>=0.000
     309 -> 315       -0.17392
     311 -> 313        0.68685
     309 <- 315       -0.10795
 This state for optimization and/or second-order correction.
 Total Energy, E(TD-HF/TD-DFT) =  -4069.74689340
 Copying the excited state density for this state as the 1-particle RhoCI density.

 Excited State   2:      Singlet-A      1.7389 eV  713.01 nm  f=0.3986  <S**2>=0.000
     310 -> 316       -0.19175
     312 -> 314        0.68294
     310 <- 316       -0.10976

 Excited State   3:      Singlet-A      2.2196 eV  558.59 nm  f=0.1600  <S**2>=0.000
     309 -> 313        0.64872
     311 -> 315        0.26683

 Excited State   4:      Singlet-A      2.2287 eV  556.30 nm  f=0.1023  <S**2>=0.000
     310 -> 314        0.63902
     312 -> 316        0.29488

 Excited State   5:      Singlet-A      3.0441 eV  407.29 nm  f=0.0000  <S**2>=0.000
     312 -> 313        0.70711

 The electronic state is 1-A.
 Alpha  occ. eigenvalues --  -46.89400 -46.89024 -19.25644 -19.23683 -19.21024
 Alpha  occ. eigenvalues --  -19.19870 -19.19591 -19.19193 -19.18780 -19.18320
 Alpha  occ. eigenvalues --  -14.42478 -14.42386 -14.42246 -14.41670 -14.40105
 Alpha  occ. eigenvalues --  -14.39551 -14.39390 -14.39015 -10.40369 -10.38652
 Alpha  occ. eigenvalues --  -10.36229 -10.35679 -10.35495 -10.34474 -10.32002
 Alpha  occ. eigenvalues --  -10.31903 -10.31746 -10.31678 -10.31139 -10.30872
 Alpha  occ. eigenvalues --  -10.30683 -10.30675 -10.30651 -10.30644 -10.30567
 Alpha  occ. eigenvalues --  -10.30214 -10.29993 -10.29868 -10.29745 -10.29076
 Alpha  occ. eigenvalues --  -10.29013 -10.28879 -10.28854 -10.28773 -10.28583
 Alpha  occ. eigenvalues --  -10.28557 -10.28554 -10.28421 -10.28343 -10.28336
 Alpha  occ. eigenvalues --  -10.28298 -10.28249 -10.28219 -10.28188 -10.28187
 Alpha  occ. eigenvalues --  -10.28003 -10.27962 -10.27959 -10.27823 -10.27743
 Alpha  occ. eigenvalues --  -10.27515 -10.27495 -10.27461 -10.27398 -10.27389
 Alpha  occ. eigenvalues --  -10.27363 -10.27316 -10.27050 -10.26985 -10.26775
 Alpha  occ. eigenvalues --  -10.26661 -10.26601 -10.26508 -10.26436 -10.26310
 Alpha  occ. eigenvalues --  -10.26210 -10.26168 -10.26114 -10.26065 -10.25969
 Alpha  occ. eigenvalues --  -10.25892 -10.25384 -10.25361 -10.25219 -10.25100
 Alpha  occ. eigenvalues --  -10.24748  -3.17807  -3.17588  -1.92726  -1.92468
 Alpha  occ. eigenvalues --   -1.92244  -1.92118  -1.92049  -1.91893  -1.15632
 Alpha  occ. eigenvalues --   -1.15605  -1.12058  -1.09514  -1.08326  -1.07967
 Alpha  occ. eigenvalues --   -1.07646  -1.07202  -1.05562  -1.05270  -1.04460
 Alpha  occ. eigenvalues --   -1.04290  -1.03576  -1.03374  -1.02769  -1.02629
 Alpha  occ. eigenvalues --   -0.93493  -0.93335  -0.89952  -0.89339  -0.89079
 Alpha  occ. eigenvalues --   -0.88608  -0.88262  -0.87882  -0.87517  -0.87064
 Alpha  occ. eigenvalues --   -0.87030  -0.86905  -0.86221  -0.85971  -0.84857
 Alpha  occ. eigenvalues --   -0.84325  -0.84297  -0.83473  -0.82651  -0.82364
 Alpha  occ. eigenvalues --   -0.81969  -0.81608  -0.81188  -0.80722  -0.80514
 Alpha  occ. eigenvalues --   -0.80299  -0.78412  -0.77833  -0.77481  -0.77471
 Alpha  occ. eigenvalues --   -0.77123  -0.76917  -0.76517  -0.76202  -0.75528
 Alpha  occ. eigenvalues --   -0.75187  -0.73546  -0.72590  -0.72246  -0.71985
 Alpha  occ. eigenvalues --   -0.69432  -0.69257  -0.69009  -0.68638  -0.68225
 Alpha  occ. eigenvalues --   -0.67734  -0.67257  -0.66372  -0.65983  -0.65716
 Alpha  occ. eigenvalues --   -0.65373  -0.65337  -0.65204  -0.64954  -0.64515
 Alpha  occ. eigenvalues --   -0.64251  -0.63142  -0.61816  -0.60552  -0.60449
 Alpha  occ. eigenvalues --   -0.60115  -0.59926  -0.59617  -0.59182  -0.58982
 Alpha  occ. eigenvalues --   -0.58795  -0.58473  -0.58079  -0.57755  -0.56910
 Alpha  occ. eigenvalues --   -0.56250  -0.56026  -0.55850  -0.55651  -0.55502
 Alpha  occ. eigenvalues --   -0.55293  -0.54970  -0.54371  -0.54235  -0.53921
 Alpha  occ. eigenvalues --   -0.53770  -0.53612  -0.53228  -0.53043  -0.52975
 Alpha  occ. eigenvalues --   -0.52760  -0.52721  -0.52307  -0.52201  -0.52137
 Alpha  occ. eigenvalues --   -0.52067  -0.51736  -0.51694  -0.51630  -0.51406
 Alpha  occ. eigenvalues --   -0.51142  -0.50898  -0.50806  -0.50567  -0.50541
 Alpha  occ. eigenvalues --   -0.50313  -0.50064  -0.49889  -0.49804  -0.49702
 Alpha  occ. eigenvalues --   -0.49678  -0.49395  -0.49126  -0.48934  -0.48916
 Alpha  occ. eigenvalues --   -0.48669  -0.48363  -0.48306  -0.48145  -0.48016
 Alpha  occ. eigenvalues --   -0.47951  -0.47751  -0.47613  -0.47267  -0.47235
 Alpha  occ. eigenvalues --   -0.46927  -0.46908  -0.46627  -0.46592  -0.46482
 Alpha  occ. eigenvalues --   -0.46457  -0.46246  -0.46168  -0.46040  -0.45930
 Alpha  occ. eigenvalues --   -0.45767  -0.45583  -0.45515  -0.45328  -0.45188
 Alpha  occ. eigenvalues --   -0.45173  -0.44906  -0.44688  -0.44349  -0.44262
 Alpha  occ. eigenvalues --   -0.44074  -0.43990  -0.43979  -0.43897  -0.43691
 Alpha  occ. eigenvalues --   -0.43685  -0.43289  -0.43140  -0.42673  -0.42671
 Alpha  occ. eigenvalues --   -0.42520  -0.42456  -0.42432  -0.42323  -0.42094
 Alpha  occ. eigenvalues --   -0.41755  -0.41746  -0.41630  -0.41600  -0.41415
 Alpha  occ. eigenvalues --   -0.41295  -0.41134  -0.41130  -0.41052  -0.40811
 Alpha  occ. eigenvalues --   -0.40207  -0.40151  -0.39721  -0.39407  -0.39057
 Alpha  occ. eigenvalues --   -0.38794  -0.38419  -0.38243  -0.37829  -0.37785
 Alpha  occ. eigenvalues --   -0.37535  -0.37349  -0.37272  -0.36758  -0.36579
 Alpha  occ. eigenvalues --   -0.36442  -0.36074  -0.35432  -0.34717  -0.34491
 Alpha  occ. eigenvalues --   -0.34231  -0.33207  -0.33154  -0.31766  -0.31249
 Alpha  occ. eigenvalues --   -0.31142  -0.31099  -0.31020  -0.30600  -0.30173
 Alpha  occ. eigenvalues --   -0.30048  -0.30036  -0.29807  -0.24430  -0.23832
 Alpha  occ. eigenvalues --   -0.21661  -0.21131
 Alpha virt. eigenvalues --   -0.09345  -0.08514  -0.01851  -0.01700  -0.00002
 Alpha virt. eigenvalues --    0.00211   0.01783   0.02309   0.02388   0.02795
 Alpha virt. eigenvalues --    0.04131   0.04669   0.05004   0.05334   0.05692

 Mulliken charges:
               1
     1  Mg   0.834334
     2  C    0.054427
     3  C   -0.069509
     4  C   -0.042646
     5  C   -0.089391
     6  N   -0.294808
     7  C   -0.091735
     8  C   -0.014641
     9  C   -0.026195
    10  C    0.046667
    11  C    0.078044
    12  C    0.043274
    13  C   -0.061169
    14  H    0.031842
    15  N   -0.389564
    16  C    0.137840
    17  C   -0.128912
    18  C   -0.023668
    19  C    0.152810
    20  C    0.116427
    21  C   -0.020007
    22  O   -0.248444
    23  C    0.085880
    24  N   -0.230547
    25  C   -0.019151
    26  C    0.006704
    27  C   -0.010737
    28  C    0.025310
    29  C    0.055029
    30  C    0.043149
    31  C   -0.008606
    32  N   -0.375668
    33  C    0.100462
    34  C   -0.182937
    35  C   -0.033740
    36  C    0.116680
    37  C    0.133511
    38  C    0.043078
    39  O   -0.120463
    40  C    0.002797
    41  C    0.187329
    42  O   -0.212255
    43  O   -0.363351
    44  C    0.179995
    45  H   -0.018610
    46  H   -0.075977
    47  H   -0.016211
    48  H    0.012637
    49  H    0.010833
    50  H    0.016016
    51  H    0.003191
    52  H    0.023991
    53  H    0.006983
    54  H    0.023791
    55  H    0.028350
    56  H    0.033080
    57  H    0.012512
    58  H    0.023907
    59  H    0.040144
    60  H    0.042586
    61  H    0.043392
    62  H    0.036483
    63  H    0.016286
    64  H    0.018827
    65  H    0.011198
    66  H    0.003368
    67  H    0.016382
    68  H    0.007506
    69  H    0.001221
    70  H    0.009129
    71  H    0.000917
    72  H    0.018436
    73  H    0.037283
    74  H    0.028801
    75  H    0.024974
    76  H    0.038887
    77  H    0.028870
    78  H    0.028192
    79  H    0.045177
    80  Mg   0.812088
    81  C   -0.074111
    82  C   -0.059185
    83  C   -0.048952
    84  C   -0.095280
    85  N   -0.287491
    86  C   -0.007224
    87  C   -0.035691
    88  C   -0.060075
    89  C    0.073575
    90  C    0.067927
    91  C    0.021887
    92  C   -0.043636
    93  H    0.021777
    94  N   -0.352761
    95  C    0.090817
    96  C   -0.157991
    97  C   -0.044726
    98  C    0.100250
    99  C    0.108433
   100  C    0.033422
   101  O   -0.220432
   102  C    0.070307
   103  N   -0.263507
   104  C    0.011769
   105  C   -0.016193
   106  C   -0.070740
   107  C    0.089943
   108  C    0.065460
   109  C    0.016595
   110  C    0.018717
   111  N   -0.299328
   112  C    0.080618
   113  C   -0.145588
   114  C   -0.016598
   115  C    0.164953
   116  C    0.124106
   117  C    0.057595
   118  O   -0.193369
   119  C    0.017373
   120  C    0.186302
   121  O   -0.169740
   122  O   -0.386224
   123  C    0.166630
   124  H   -0.032736
   125  H   -0.011500
   126  H   -0.026901
   127  H    0.021745
   128  H    0.005730
   129  H    0.022409
   130  H    0.011909
   131  H    0.016947
   132  H    0.008719
   133  H    0.010166
   134  H    0.020054
   135  H    0.030520
   136  H    0.019242
   137  H    0.030220
   138  H    0.026457
   139  H    0.033420
   140  H    0.005441
   141  H    0.050261
   142  H    0.010953
   143  H    0.010652
   144  H    0.012008
   145  H    0.028785
   146  H    0.024163
   147  H    0.014763
   148  H   -0.003660
   149  H    0.015270
   150  H    0.026200
   151  H    0.004553
   152  H    0.001620
   153  H    0.042104
   154  H    0.040916
   155  H    0.039676
   156  H    0.049382
   157  H    0.037320
   158  H    0.051488
 Sum of Mulliken charges =  -0.00000

 Dipole moment (field-independent basis, Debye):
    X=              1.0300    Y=              4.8371    Z=             -4.5978  Tot=              6.7527
 Quadrupole moment (field-independent basis, Debye-Ang):
   XX=           -259.2400   YY=           -590.0421   ZZ=           -475.7527
   XY=             -3.7521   XZ=             10.3830   YZ=             -0.8740

 Normal termination of Gaussian 16 at Wed Sep 15 18:02:28 2021.
