 Gaussian 16, Revision A.03,
 Gaussian 16:  ES64L-G16RevA.03 25-Dec-2016

 ----------------------------------------------------------
 #p cam-b3lyp/Def2SVP td=(nstates=5) density=(transition=1)
 ----------------------------------------------------------

 --------------------------------
 TDDFT excited states in gaussian
 --------------------------------
 Symbolic Z-matrix:
 Charge =  0 Multiplicity = 1

                         Standard orientation:
 ---------------------------------------------------------------------
 Center     Atomic      Atomic             Coordinates (Angstroms)
 Number     Number       Type             X           Y           Z
 ---------------------------------------------------------------------
      1         12           0      -27.343013   -0.737340   -0.018326
      2          6           0      -28.053991    2.573391    0.590921
      3          6           0      -24.680983    0.311170   -2.036446
      4          6           0      -26.632918   -3.956603   -0.743926
      5          6           0      -30.153173   -1.668804    1.640779
      6          7           0      -26.644299    1.267694   -0.852348
      7          6           0      -26.969783    2.484684   -0.240581
      8          6           0      -25.977006    3.603673   -0.612697
      9          6           0      -24.987912    2.814868   -1.547645
     10          6           0      -25.392529    1.358366   -1.471002
     11          6           0      -24.974131    3.336602   -2.978921
     12          6           0      -25.224775    4.381769    0.524307
     13          6           0      -25.594829    5.951381    0.716820
     14          1           0      -24.360180    6.839152    0.532423
     15          7           0      -25.965052   -1.683257   -1.273475
     16          6           0      -24.871959   -1.076051   -1.912531
     17          6           0      -23.927260   -2.076364   -2.420371
     18          6           0      -24.515238   -3.422315   -2.125170
     19          6           0      -25.736185   -3.091336   -1.287206
     20          6           0      -22.646946   -1.714676   -3.140467
     21          6           0      -24.068401   -4.765693   -2.463943
     22          8           0      -24.784989   -5.739684   -2.189869
     23          6           0      -22.776417   -5.045527   -3.211463
     24          7           0      -28.303056   -2.464452    0.324435
     25          6           0      -27.768536   -3.737324    0.051896
     26          6           0      -28.578437   -4.948748    0.667983
     27          6           0      -29.745171   -4.118925    1.415412
     28          6           0      -29.360180   -2.651899    1.118653
     29          6           0      -29.132389   -6.001344   -0.413878
     30          6           0      -29.800658   -4.447599    2.947000
     31          6           0      -31.145254   -4.527145    3.599454
     32          7           0      -28.885676    0.288437    0.851339
     33          6           0      -29.968448   -0.243404    1.557512
     34          6           0      -30.699377    0.783870    2.217410
     35          6           0      -29.895177    1.948259    1.930263
     36          6           0      -28.878250    1.566861    1.045866
     37          6           0      -31.880272    0.727379    3.092801
     38          6           0      -29.855630    3.369937    2.073659
     39          8           0      -30.521142    4.205179    2.695805
     40          6           0      -28.714225    3.846395    1.065115
     41          6           0      -29.332993    4.685682    0.005095
     42          8           0      -29.637164    4.381319   -1.080699
     43          8           0      -29.415104    6.010405    0.427713
     44          6           0      -29.433784    6.993152   -0.635771
     45          1           0      -23.800867    0.643481   -2.590957
     46          1           0      -26.473997   -5.032060   -0.846200
     47          1           0      -30.970140   -1.971563    2.299019
     48          1           0      -26.498287    4.339695   -1.223827
     49          1           0      -23.949916    2.948997   -1.241956
     50          1           0      -25.375181    2.565191   -3.635786
     51          1           0      -23.910829    3.476361   -3.169966
     52          1           0      -25.454132    4.302057   -3.137501
     53          1           0      -24.154932    4.303254    0.329379
     54          1           0      -25.430606    3.948239    1.503072
     55          1           0      -25.875498    5.990014    1.769506
     56          1           0      -26.385874    6.243254    0.026414
     57          1           0      -22.937204   -1.359952   -4.130192
     58          1           0      -22.046821   -2.618690   -3.231827
     59          1           0      -22.121555   -0.869623   -2.695028
     60          1           0      -22.877769   -6.060941   -3.595107
     61          1           0      -21.880434   -4.934096   -2.599916
     62          1           0      -22.617869   -4.517330   -4.151453
     63          1           0      -27.991196   -5.423265    1.453497
     64          1           0      -30.757272   -4.343322    1.077893
     65          1           0      -30.128742   -6.318097   -0.104874
     66          1           0      -28.617474   -6.959412   -0.473798
     67          1           0      -29.169067   -5.594624   -1.424684
     68          1           0      -29.178984   -3.796841    3.561711
     69          1           0      -29.427268   -5.446317    3.172555
     70          1           0      -31.169514   -3.674710    4.278138
     71          1           0      -31.367509   -5.319498    4.314218
     72          1           0      -31.927035   -4.438445    2.844390
     73          1           0      -31.899628   -0.248163    3.579422
     74          1           0      -32.721741    0.796626    2.403533
     75          1           0      -31.901293    1.627623    3.707276
     76          1           0      -27.973405    4.444200    1.595482
     77          1           0      -30.451489    6.939479   -1.020916
     78          1           0      -28.726801    6.629888   -1.381464
     79          1           0      -29.235008    7.996745   -0.258661
     80         12           0       28.194043    0.287698    0.243311
     81          6           0       24.840649   -0.333822   -0.476419
     82          6           0       27.654054   -0.774572    3.478210
     83          6           0       31.399562    0.844133    0.671482
     84          6           0       28.835187    0.337113   -3.344032
     85          7           0       26.328053   -0.431665    1.382268
     86          6           0       25.072172   -0.637810    0.884381
     87          6           0       24.141805   -1.084121    1.955812
     88          6           0       25.069470   -1.266143    3.222718
     89          6           0       26.482713   -0.792936    2.702488
     90          6           0       24.532815   -0.608274    4.518887
     91          6           0       23.390839   -2.390551    1.601236
     92          6           0       21.884675   -2.217548    1.789375
     93          1           0       21.146333   -3.262496    2.679284
     94          7           0       29.363183    0.092538    1.875322
     95          6           0       28.974663   -0.317359    3.149906
     96          6           0       30.164209   -0.180871    3.980439
     97          6           0       31.287991    0.333598    3.181339
     98          6           0       30.696288    0.524472    1.819455
     99          6           0       30.228491   -0.669840    5.340078
    100          6           0       32.659657    0.414050    3.710777
    101          8           0       32.969066    0.136097    4.850487
    102          6           0       33.850443    0.751648    2.883176
    103          7           0       29.803606    0.496341   -1.109366
    104          6           0       30.991828    1.005137   -0.649678
    105          6           0       31.954064    1.203994   -1.801710
    106          6           0       31.272161    0.574943   -2.958656
    107          6           0       29.923033    0.386337   -2.468902
    108          6           0       32.458619    2.690951   -2.007139
    109          6           0       31.827431   -0.849708   -3.302823
    110          6           0       31.749195   -1.263363   -4.699450
    111          7           0       27.093675    0.084265   -1.590364
    112          6           0       27.456537    0.191371   -2.939349
    113          6           0       26.272303    0.284254   -3.734230
    114          6           0       25.229728    0.045571   -2.846651
    115          6           0       25.786047   -0.114321   -1.527524
    116          6           0       26.273997    0.520930   -5.199419
    117          6           0       23.836297   -0.136949   -2.748502
    118          8           0       22.983140   -0.103045   -3.606992
    119          6           0       23.522435   -0.328079   -1.247847
    120          6           0       22.555661    0.697618   -0.825055
    121          8           0       22.838595    1.845766   -0.443341
    122          8           0       21.276548    0.251294   -1.066172
    123          6           0       20.131891    1.041425   -0.642826
    124          1           0       27.396226   -1.063495    4.498701
    125          1           0       32.481098    1.000524    0.657908
    126          1           0       29.070988    0.385128   -4.409204
    127          1           0       23.584764   -0.183678    2.216196
    128          1           0       25.183079   -2.304200    3.533661
    129          1           0       23.475016   -0.474654    4.289165
    130          1           0       25.046946    0.290259    4.860235
    131          1           0       24.609523   -1.310245    5.348863
    132          1           0       23.615614   -3.226052    2.263940
    133          1           0       23.658646   -2.623825    0.570880
    134          1           0       21.557466   -2.431066    0.771914
    135          1           0       21.711001   -1.177735    2.062420
    136          1           0       29.245198   -1.059805    5.603934
    137          1           0       30.417917    0.079464    6.109273
    138          1           0       30.941728   -1.493101    5.393669
    139          1           0       33.458298    1.629136    2.369006
    140          1           0       34.033154   -0.066602    2.186125
    141          1           0       34.708966    1.000342    3.507402
    142          1           0       32.832084    0.642518   -1.484581
    143          1           0       31.135807    1.174926   -3.858452
    144          1           0       32.169260    3.312870   -1.159827
    145          1           0       32.223612    3.126445   -2.978961
    146          1           0       33.539118    2.793779   -1.910810
    147          1           0       31.329504   -1.588445   -2.674661
    148          1           0       32.882401   -0.924365   -3.039540
    149          1           0       32.639439   -0.906155   -5.218246
    150          1           0       30.832744   -0.921904   -5.181856
    151          1           0       31.915129   -2.338657   -4.772607
    152          1           0       27.047972    1.234229   -5.482410
    153          1           0       25.308679    0.832408   -5.598794
    154          1           0       26.613058   -0.430235   -5.609922
    155          1           0       22.953089   -1.235487   -1.046016
    156          1           0       19.891158    1.957528   -1.182279
    157          1           0       20.212819    1.256035    0.422577
    158          1           0       19.278531    0.397286   -0.851599
 ---------------------------------------------------------------------

 SCF Done:  E(RCAM-B3LYP) =  -4069.76965305     A.U. after   19 cycles

 Excitation energies and oscillator strengths:

 Excited State   1:      Singlet-A      1.6720 eV  741.51 nm  f=0.4089  <S**2>=0.000
     309 -> 316        0.15658
     312 -> 313        0.68561
 This state for optimization and/or second-order correction.
 Total Energy, E(TD-HF/TD-DFT) =  -4069.70820656
 Copying the excited state density for this state as the 1-particle RhoCI density.

 Excited State   2:      Singlet-A      1.6751 eV  740.14 nm  f=0.3684  <S**2>=0.000
     310 -> 315       -0.18748
     311 -> 314        0.68053
     310 <- 315       -0.11044

 Excited State   3:      Singlet-A      2.1859 eV  567.19 nm  f=0.1029  <S**2>=0.000
     310 -> 314        0.63556
     311 -> 315        0.29767

 Excited State   4:      Singlet-A      2.1913 eV  565.81 nm  f=0.1262  <S**2>=0.000
     309 -> 313        0.64536
     312 -> 316       -0.25771

 Excited State   5:      Singlet-A      3.1736 eV  390.67 nm  f=0.0000  <S**2>=0.000
     312 -> 314        0.70711

 The electronic state is 1-A.
 Alpha  occ. eigenvalues --  -46.88975 -46.87939 -19.24907 -19.22180 -19.19596
 Alpha  occ. eigenvalues --  -19.19401 -19.18868 -19.18391 -19.17962 -19.17412
 Alpha  occ. eigenvalues --  -14.42571 -14.42359 -14.42007 -14.41963 -14.40300
 Alpha  occ. eigenvalues --  -14.40282 -14.39202 -14.38594 -10.39127 -10.38118
 Alpha  occ. eigenvalues --  -10.35344 -10.34244 -10.34215 -10.33735 -10.31840
 Alpha  occ. eigenvalues --  -10.31717 -10.31654 -10.31605 -10.31602 -10.31297
 Alpha  occ. eigenvalues --  -10.31096 -10.31083 -10.31060 -10.31043 -10.30770
 Alpha  occ. eigenvalues --  -10.30628 -10.30505 -10.30479 -10.30290 -10.29898
 Alpha  occ. eigenvalues --  -10.29540 -10.29298 -10.29249 -10.29125 -10.29022
 Alpha  occ. eigenvalues --  -10.28588 -10.28579 -10.28568 -10.28406 -10.28351
 Alpha  occ. eigenvalues --  -10.28265 -10.28261 -10.28249 -10.28157 -10.28001
 Alpha  occ. eigenvalues --  -10.27870 -10.27846 -10.27762 -10.27723 -10.27621
 Alpha  occ. eigenvalues --  -10.27480 -10.27393 -10.27326 -10.27321 -10.27241
 Alpha  occ. eigenvalues --  -10.27211 -10.27173 -10.27172 -10.26825 -10.26549
 Alpha  occ. eigenvalues --  -10.26501 -10.26501 -10.26493 -10.26471 -10.26469
 Alpha  occ. eigenvalues --  -10.26256 -10.26198 -10.25992 -10.25889 -10.25834
 Alpha  occ. eigenvalues --  -10.25581 -10.25335 -10.25216 -10.24896 -10.24755
 Alpha  occ. eigenvalues --  -10.24498  -3.17465  -3.16700  -1.92368  -1.91929
 Alpha  occ. eigenvalues --   -1.91755  -1.91569  -1.91165  -1.91018  -1.16787
 Alpha  occ. eigenvalues --   -1.15486  -1.10091  -1.09874  -1.09573  -1.08127
 Alpha  occ. eigenvalues --   -1.07728  -1.06746  -1.05017  -1.04645  -1.03834
 Alpha  occ. eigenvalues --   -1.03445  -1.03021  -1.02077  -1.01604  -1.00638
 Alpha  occ. eigenvalues --   -0.92686  -0.92601  -0.90796  -0.89627  -0.89199
 Alpha  occ. eigenvalues --   -0.89082  -0.88631  -0.88513  -0.87741  -0.87361
 Alpha  occ. eigenvalues --   -0.87274  -0.87214  -0.86688  -0.86328  -0.85295
 Alpha  occ. eigenvalues --   -0.84575  -0.84237  -0.83490  -0.83476  -0.82604
 Alpha  occ. eigenvalues --   -0.82419  -0.81905  -0.81443  -0.80879  -0.80857
 Alpha  occ. eigenvalues --   -0.80238  -0.78790  -0.78701  -0.78009  -0.77416
 Alpha  occ. eigenvalues --   -0.77153  -0.76706  -0.76341  -0.75415  -0.75274
 Alpha  occ. eigenvalues --   -0.75245  -0.73442  -0.73080  -0.72066  -0.71702
 Alpha  occ. eigenvalues --   -0.69370  -0.69341  -0.69139  -0.68704  -0.68027
 Alpha  occ. eigenvalues --   -0.67958  -0.67564  -0.67549  -0.66498  -0.65964
 Alpha  occ. eigenvalues --   -0.65684  -0.65316  -0.65307  -0.65009  -0.64716
 Alpha  occ. eigenvalues --   -0.63899  -0.62068  -0.60870  -0.60771  -0.60201
 Alpha  occ. eigenvalues --   -0.59530  -0.59496  -0.59414  -0.59013  -0.58993
 Alpha  occ. eigenvalues --   -0.58473  -0.58307  -0.57949  -0.57708  -0.57446
 Alpha  occ. eigenvalues --   -0.56518  -0.56437  -0.55932  -0.55587  -0.55512
 Alpha  occ. eigenvalues --   -0.55299  -0.55176  -0.54468  -0.54277  -0.53940
 Alpha  occ. eigenvalues --   -0.53640  -0.53278  -0.53226  -0.53008  -0.52862
 Alpha  occ. eigenvalues --   -0.52684  -0.52582  -0.52322  -0.52293  -0.52166
 Alpha  occ. eigenvalues --   -0.52127  -0.51774  -0.51713  -0.51616  -0.51377
 Alpha  occ. eigenvalues --   -0.51317  -0.51263  -0.51201  -0.50767  -0.50570
 Alpha  occ. eigenvalues --   -0.50446  -0.50139  -0.50040  -0.50018  -0.49801
 Alpha  occ. eigenvalues --   -0.49688  -0.49636  -0.49418  -0.49152  -0.48980
 Alpha  occ. eigenvalues --   -0.48882  -0.48600  -0.48592  -0.48548  -0.48542
 Alpha  occ. eigenvalues --   -0.48090  -0.48032  -0.47651  -0.47292  -0.47165
 Alpha  occ. eigenvalues --   -0.47031  -0.46963  -0.46844  -0.46822  -0.46632
 Alpha  occ. eigenvalues --   -0.46502  -0.46346  -0.46240  -0.46155  -0.46006
 Alpha  occ. eigenvalues --   -0.45771  -0.45415  -0.45338  -0.45287  -0.44987
 Alpha  occ. eigenvalues --   -0.44965  -0.44648  -0.44620  -0.44512  -0.44171
 Alpha  occ. eigenvalues --   -0.44078  -0.43716  -0.43676  -0.43527  -0.43461
 Alpha  occ. eigenvalues --   -0.43345  -0.43263  -0.43094  -0.43072  -0.42997
 Alpha  occ. eigenvalues --   -0.42921  -0.42598  -0.42522  -0.42116  -0.41995
 Alpha  occ. eigenvalues --   -0.41694  -0.41664  -0.41619  -0.41430  -0.41364
 Alpha  occ. eigenvalues --   -0.41201  -0.41189  -0.41035  -0.40705  -0.40646
 Alpha  occ. eigenvalues --   -0.40294  -0.40145  -0.39902  -0.39242  -0.39075
 Alpha  occ. eigenvalues --   -0.38721  -0.38519  -0.37831  -0.37769  -0.37697
 Alpha  occ. eigenvalues --   -0.37365  -0.37084  -0.37005  -0.36418  -0.36355
 Alpha  occ. eigenvalues --   -0.36132  -0.34930  -0.34468  -0.34379  -0.34095
 Alpha  occ. eigenvalues --   -0.33748  -0.33196  -0.33060  -0.31558  -0.31445
 Alpha  occ. eigenvalues --   -0.31415  -0.30711  -0.30041  -0.29913  -0.29789
 Alpha  occ. eigenvalues --   -0.29687  -0.29471  -0.29285  -0.24390  -0.24341
 Alpha  occ. eigenvalues --   -0.21606  -0.21475
 Alpha virt. eigenvalues --   -0.09296  -0.09195  -0.02543  -0.02185  -0.00248
 Alpha virt. eigenvalues --    0.00217   0.01928   0.02317   0.02404   0.02644
 Alpha virt. eigenvalues --    0.04050   0.04961   0.05109   0.05341   0.05425

 Mulliken charges:
               1
     1  Mg  12.003343
     2  C    5.985824
     3  C    6.017458
     4  C    6.021799
     5  C    5.988330
     6  N    6.994961
     7  C    6.027198
     8  C    5.986823
     9  C    6.009536
    10  C    5.972080
    11  C    6.001549
    12  C    5.998718
    13  C    5.996323
    14  H    1.009000
    15  N    7.005346
    16  C    5.958355
    17  C    5.971488
    18  C    5.986018
    19  C    5.963939
    20  C    6.003887
    21  C    5.989101
    22  O    7.970165
    23  C    6.007308
    24  N    7.002021
    25  C    5.960882
    26  C    6.015950
    27  C    5.986416
    28  C    6.032322
    29  C    6.002995
    30  C    5.993655
    31  C    6.000652
    32  N    6.998043
    33  C    6.042110
    34  C    6.028219
    35  C    6.006472
    36  C    6.028974
    37  C    5.997868
    38  C    6.015658
    39  O    8.034308
    40  C    5.999949
    41  C    6.000724
    42  O    8.008104
    43  O    7.999493
    44  C    5.997434
    45  H    0.991754
    46  H    0.993343
    47  H    1.010203
    48  H    1.003060
    49  H    0.999719
    50  H    1.002902
    51  H    0.999663
    52  H    0.986254
    53  H    1.010071
    54  H    0.997028
    55  H    0.996876
    56  H    0.997841
    57  H    0.978761
    58  H    0.984350
    59  H    0.978975
    60  H    0.985605
    61  H    0.989606
    62  H    0.991955
    63  H    0.995948
    64  H    1.003300
    65  H    0.987910
    66  H    1.001073
    67  H    1.001149
    68  H    1.000463
    69  H    1.012236
    70  H    0.994398
    71  H    1.005318
    72  H    1.000038
    73  H    1.019643
    74  H    1.019997
    75  H    1.014565
    76  H    1.011577
    77  H    1.002239
    78  H    1.006442
    79  H    1.004941
    80  Mg  11.999887
    81  C    5.998392
    82  C    6.001913
    83  C    6.002193
    84  C    5.997754
    85  N    6.999611
    86  C    6.003085
    87  C    5.998701
    88  C    6.000826
    89  C    5.997236
    90  C    6.000285
    91  C    5.999904
    92  C    5.999867
    93  H    1.000793
    94  N    7.001326
    95  C    5.995304
    96  C    5.998163
    97  C    5.998875
    98  C    5.995881
    99  C    6.001070
   100  C    5.999332
   101  O    7.998313
   102  C    6.000101
   103  N    6.999272
   104  C    5.996858
   105  C    6.000714
   106  C    5.999293
   107  C    6.003614
   108  C    6.000121
   109  C    5.999259
   110  C    5.999933
   111  N    6.999417
   112  C    6.004512
   113  C    6.002126
   114  C    6.000431
   115  C    6.003354
   116  C    5.999890
   117  C    6.001641
   118  O    8.003056
   119  C    5.999768
   120  C    6.000452
   121  O    8.000731
   122  O    7.999968
   123  C    5.999637
   124  H    0.999101
   125  H    0.998957
   126  H    1.000823
   127  H    1.000377
   128  H    0.999920
   129  H    0.998891
   130  H    1.000230
   131  H    1.000005
   132  H    1.000751
   133  H    0.999320
   134  H    0.999641
   135  H    1.000058
   136  H    0.998102
   137  H    0.997861
   138  H    0.998049
   139  H    0.999455
   140  H    0.999016
   141  H    0.998823
   142  H    1.000015
   143  H    0.999795
   144  H    1.000219
   145  H    0.998797
   146  H    0.999778
   147  H    1.000521
   148  H    1.001334
   149  H    1.000479
   150  H    0.999443
   151  H    1.000348
   152  H    1.001777
   153  H    1.001332
   154  H    1.001740
   155  H    1.000897
   156  H    1.000285
   157  H    1.000574
   158  H    1.000428
 Sum of Mulliken charges = 624.00000

 Dipole moment (field-independent basis, Debye):
    X=             -8.5091    Y=              5.6690    Z=              4.9430  Tot=             11.3567
 Quadrupole moment (field-independent basis, Debye-Ang):
   XX=            397.8368   YY=             -5.2825   ZZ=             -1.7676
   XY=           -150.5427   XZ=           -177.5190   YZ=             -5.0351

 Normal termination of Gaussian 16 at Thu Sep 23 09:27:07 2021.
