 Gaussian 16, Revision A.03,
 Gaussian 16:  ES64L-G16RevA.03 25-Dec-2016

 ----------------------------------------------------------
 #p cam-b3lyp/Def2SVP td=(nstates=5) density=(transition=1)
 ----------------------------------------------------------

 --------------------------------
 TDDFT excited states in gaussian
 --------------------------------
 Symbolic Z-matrix:
 Charge =  0 Multiplicity = 1

                         Standard orientation:
 ---------------------------------------------------------------------
 Center     Atomic      Atomic             Coordinates (Angstroms)
 Number     Number       Type             X           Y           Z
 ---------------------------------------------------------------------
      1         12           0      -23.916516   -0.655354    0.096984
      2          6           0      -22.774272    2.425779   -1.196123
      3          6           0      -24.385000    0.809214    3.148824
      4          6           0      -24.309924   -3.675382    1.359818
      5          6           0      -22.931047   -2.157657   -2.962066
      6          7           0      -23.709955    1.433032    0.826982
      7          6           0      -23.257772    2.459061    0.133464
      8          6           0      -23.598502    3.730979    0.888795
      9          6           0      -23.683581    3.247414    2.387695
     10          6           0      -23.938438    1.713946    2.139298
     11          6           0      -22.391792    3.649657    3.195922
     12          6           0      -24.967190    4.324237    0.466654
     13          6           0      -25.182941    5.866196    0.797891
     14          1           0      -24.118372    6.696273    1.520265
     15          7           0      -24.486487   -1.309392    1.908075
     16          6           0      -24.720484   -0.555320    3.086529
     17          6           0      -25.204149   -1.479271    4.138905
     18          6           0      -25.098659   -2.821162    3.624097
     19          6           0      -24.617076   -2.694007    2.231437
     20          6           0      -25.695041   -1.033642    5.471028
     21          6           0      -25.421640   -4.236456    4.243409
     22          8           0      -25.357206   -5.301072    3.613752
     23          6           0      -25.690662   -4.322358    5.717853
     24          7           0      -23.545147   -2.673573   -0.662978
     25          6           0      -23.836850   -3.740804    0.032063
     26          6           0      -23.645497   -5.046907   -0.686679
     27          6           0      -23.183349   -4.572650   -2.109285
     28          6           0      -23.306186   -3.023236   -1.956380
     29          6           0      -22.745507   -6.003718    0.100745
     30          6           0      -24.040778   -5.082098   -3.260989
     31          6           0      -23.282742   -5.514446   -4.567000
     32          7           0      -23.081577   -0.048143   -1.811636
     33          6           0      -22.780659   -0.785879   -2.973336
     34          6           0      -22.437857    0.121756   -4.013643
     35          6           0      -22.240836    1.376703   -3.354031
     36          6           0      -22.683505    1.234661   -2.063317
     37          6           0      -22.360112   -0.210335   -5.476214
     38          6           0      -21.938168    2.824878   -3.452136
     39          8           0      -21.558497    3.480002   -4.400356
     40          6           0      -22.040038    3.446469   -1.978694
     41          6           0      -22.465163    4.877181   -2.037226
     42          8           0      -23.493238    5.299786   -2.477834
     43          8           0      -21.443140    5.733448   -1.586530
     44          6           0      -21.390003    7.078526   -2.197587
     45          1           0      -24.372910    1.154603    4.185101
     46          1           0      -24.549373   -4.704420    1.633656
     47          1           0      -22.709301   -2.643174   -3.914801
     48          1           0      -22.825147    4.423420    0.556472
     49          1           0      -24.544932    3.677715    2.899700
     50          1           0      -21.687679    4.169799    2.547341
     51          1           0      -21.913209    2.691450    3.398274
     52          1           0      -22.571996    4.303379    4.049404
     53          1           0      -25.695456    3.741811    1.032499
     54          1           0      -25.086338    4.125378   -0.598349
     55          1           0      -26.110247    5.892037    1.372221
     56          1           0      -25.411683    6.324481   -0.164577
     57          1           0      -25.870731    0.027331    5.645021
     58          1           0      -25.000948   -1.284076    6.272798
     59          1           0      -26.657235   -1.536535    5.571038
     60          1           0      -26.734106   -4.163040    5.989361
     61          1           0      -25.013469   -3.540264    6.063331
     62          1           0      -25.323209   -5.299025    6.031619
     63          1           0      -24.665016   -5.430651   -0.722119
     64          1           0      -22.154373   -4.836120   -2.350909
     65          1           0      -22.053552   -5.502597    0.778333
     66          1           0      -22.139050   -6.506155   -0.651790
     67          1           0      -23.311647   -6.729302    0.685211
     68          1           0      -24.767494   -4.331557   -3.571449
     69          1           0      -24.680686   -5.832537   -2.797053
     70          1           0      -22.225122   -5.255721   -4.518937
     71          1           0      -23.749640   -4.925570   -5.356239
     72          1           0      -23.333709   -6.556416   -4.884620
     73          1           0      -21.752868   -1.114388   -5.523941
     74          1           0      -21.886508    0.555030   -6.091316
     75          1           0      -23.350707   -0.470091   -5.850866
     76          1           0      -21.031871    3.553132   -1.579570
     77          1           0      -21.590131    7.808162   -1.412793
     78          1           0      -22.093544    7.186696   -3.023808
     79          1           0      -20.368930    7.183805   -2.564142
     80         12           0       24.024943   -0.621623    0.313869
     81          6           0       21.821618    1.991216    1.049105
     82          6           0       26.384170    1.751966   -0.526877
     83          6           0       25.949103   -3.076493   -1.072596
     84          6           0       21.368898   -2.830300    0.559128
     85          7           0       24.068683    1.565054    0.371812
     86          6           0       23.149233    2.381666    0.901973
     87          6           0       23.629261    3.821245    1.137719
     88          6           0       25.048719    3.791316    0.451679
     89          6           0       25.270186    2.209539    0.129096
     90          6           0       25.246925    4.671475   -0.801209
     91          6           0       23.649779    4.254578    2.603709
     92          6           0       23.496713    5.774987    2.790804
     93          1           0       23.370478    6.675057    1.553533
     94          7           0       25.939734   -0.699719   -0.561107
     95          6           0       26.804803    0.399824   -0.766125
     96          6           0       28.045404   -0.096005   -1.327452
     97          6           0       27.914853   -1.515980   -1.559717
     98          6           0       26.588781   -1.835690   -1.033445
     99          6           0       29.234014    0.809110   -1.500208
    100          6           0       28.980498   -2.582265   -2.079127
    101          8           0       28.785720   -3.773444   -2.094812
    102          6           0       30.292203   -2.025374   -2.588400
    103          7           0       23.679192   -2.616653   -0.268005
    104          6           0       24.625654   -3.453587   -0.782632
    105          6           0       24.084024   -4.917332   -0.979567
    106          6           0       22.679061   -4.795654   -0.391823
    107          6           0       22.575377   -3.328336   -0.020552
    108          6           0       24.165258   -5.647629   -2.380379
    109          6           0       22.501102   -5.725001    0.831679
    110          6           0       23.011466   -5.250218    2.210270
    111          7           0       22.004620   -0.556419    0.863302
    112          6           0       21.040788   -1.529546    0.920062
    113          6           0       19.792086   -0.995457    1.349969
    114          6           0       20.039102    0.449077    1.417123
    115          6           0       21.329857    0.623960    1.100498
    116          6           0       18.506269   -1.635117    1.636945
    117          6           0       19.427079    1.759712    1.586364
    118          8           0       18.285113    2.062168    1.948647
    119          6           0       20.534299    2.832652    1.368489
    120          6           0       20.175659    3.763894    0.303692
    121          8           0       20.250768    3.546918   -0.901099
    122          8           0       19.524948    4.841837    0.849521
    123          6           0       18.700548    5.711639   -0.011806
    124          1           0       27.056254    2.571226   -0.791428
    125          1           0       26.616151   -3.898228   -1.341284
    126          1           0       20.554165   -3.536689    0.731184
    127          1           0       23.066540    4.535162    0.536674
    128          1           0       25.869126    3.964455    1.147222
    129          1           0       26.137481    5.227059   -0.507915
    130          1           0       24.397720    5.339964   -0.940874
    131          1           0       25.372517    4.050749   -1.688437
    132          1           0       24.550151    3.919526    3.117239
    133          1           0       22.831789    3.780383    3.146711
    134          1           0       24.406473    5.998158    3.348532
    135          1           0       22.701780    6.020178    3.496572
    136          1           0       28.859648    1.816799   -1.319526
    137          1           0       29.623619    0.694503   -2.511953
    138          1           0       30.051609    0.575540   -0.816589
    139          1           0       30.282523   -1.548708   -3.569143
    140          1           0       31.028596   -2.828118   -2.550762
    141          1           0       30.536664   -1.294955   -1.817229
    142          1           0       24.760819   -5.470843   -0.329063
    143          1           0       21.989314   -5.068655   -1.189643
    144          1           0       23.237713   -6.119660   -2.702181
    145          1           0       24.884834   -6.461199   -2.294317
    146          1           0       24.554277   -4.930448   -3.103776
    147          1           0       22.983675   -6.660784    0.552271
    148          1           0       21.428986   -5.919095    0.874828
    149          1           0       23.472316   -6.135401    2.647901
    150          1           0       22.212171   -4.944220    2.884855
    151          1           0       23.672446   -4.385079    2.171553
    152          1           0       18.101661   -1.171748    2.536091
    153          1           0       18.537316   -2.716246    1.772550
    154          1           0       17.770724   -1.341605    0.887777
    155          1           0       20.622689    3.318856    2.339916
    156          1           0       18.748097    5.416969   -1.060719
    157          1           0       19.100047    6.723412    0.061817
    158          1           0       17.716311    5.562880    0.430924
 ---------------------------------------------------------------------

 SCF Done:  E(RCAM-B3LYP) =  -4069.81384441     A.U. after   19 cycles

 Excitation energies and oscillator strengths:

 Excited State   1:      Singlet-A      1.7177 eV  721.80 nm  f=0.4126  <S**2>=0.000
     310 -> 316       -0.18152
     311 -> 313        0.68398
     310 <- 316       -0.10677
 This state for optimization and/or second-order correction.
 Total Energy, E(TD-HF/TD-DFT) =  -4069.75071950
 Copying the excited state density for this state as the 1-particle RhoCI density.

 Excited State   2:      Singlet-A      1.7949 eV  690.77 nm  f=0.3725  <S**2>=0.000
     309 -> 315       -0.18886
     312 -> 314        0.68030
     309 <- 315       -0.10305

 Excited State   3:      Singlet-A      2.1354 eV  580.60 nm  f=0.1566  <S**2>=0.000
     310 -> 313        0.65932
     311 -> 316        0.23564

 Excited State   4:      Singlet-A      2.1692 eV  571.55 nm  f=0.0995  <S**2>=0.000
     309 -> 314        0.64307
     312 -> 315        0.27288

 Excited State   5:      Singlet-A      3.1765 eV  390.31 nm  f=0.0000  <S**2>=0.000
     312 -> 313        0.70710

 The electronic state is 1-A.
 Alpha  occ. eigenvalues --  -46.88516 -46.88233 -19.23863 -19.23241 -19.20283
 Alpha  occ. eigenvalues --  -19.19934 -19.19551 -19.18975 -19.18695 -19.18341
 Alpha  occ. eigenvalues --  -14.42270 -14.41943 -14.41882 -14.41716 -14.39720
 Alpha  occ. eigenvalues --  -14.39420 -14.38153 -14.37980 -10.38672 -10.38523
 Alpha  occ. eigenvalues --  -10.36774 -10.36177 -10.35075 -10.34788 -10.32190
 Alpha  occ. eigenvalues --  -10.31524 -10.31156 -10.30875 -10.30869 -10.30858
 Alpha  occ. eigenvalues --  -10.30792 -10.30700 -10.30662 -10.30612 -10.30586
 Alpha  occ. eigenvalues --  -10.30308 -10.30071 -10.29861 -10.29709 -10.29184
 Alpha  occ. eigenvalues --  -10.28864 -10.28843 -10.28566 -10.28262 -10.28186
 Alpha  occ. eigenvalues --  -10.28164 -10.28143 -10.28100 -10.28067 -10.27957
 Alpha  occ. eigenvalues --  -10.27868 -10.27832 -10.27765 -10.27671 -10.27651
 Alpha  occ. eigenvalues --  -10.27607 -10.27602 -10.27569 -10.27565 -10.27560
 Alpha  occ. eigenvalues --  -10.27412 -10.27364 -10.27114 -10.26992 -10.26937
 Alpha  occ. eigenvalues --  -10.26904 -10.26876 -10.26673 -10.26581 -10.26337
 Alpha  occ. eigenvalues --  -10.26313 -10.26198 -10.26132 -10.26055 -10.25973
 Alpha  occ. eigenvalues --  -10.25955 -10.25908 -10.25850 -10.25839 -10.25838
 Alpha  occ. eigenvalues --  -10.25788 -10.25593 -10.25463 -10.25424 -10.24748
 Alpha  occ. eigenvalues --  -10.24400  -3.16976  -3.16758  -1.91889  -1.91659
 Alpha  occ. eigenvalues --   -1.91433  -1.91272  -1.91211  -1.91065  -1.15176
 Alpha  occ. eigenvalues --   -1.15078  -1.11572  -1.10461  -1.09517  -1.08856
 Alpha  occ. eigenvalues --   -1.06973  -1.06633  -1.05083  -1.04496  -1.04440
 Alpha  occ. eigenvalues --   -1.03318  -1.02437  -1.01670  -1.01011  -1.00946
 Alpha  occ. eigenvalues --   -0.92065  -0.91792  -0.89259  -0.89173  -0.88878
 Alpha  occ. eigenvalues --   -0.88798  -0.88130  -0.87722  -0.87571  -0.87212
 Alpha  occ. eigenvalues --   -0.87086  -0.86449  -0.86078  -0.85417  -0.84191
 Alpha  occ. eigenvalues --   -0.83959  -0.83664  -0.83429  -0.82845  -0.82330
 Alpha  occ. eigenvalues --   -0.81956  -0.81673  -0.80991  -0.80649  -0.80162
 Alpha  occ. eigenvalues --   -0.79841  -0.78576  -0.78118  -0.77166  -0.77131
 Alpha  occ. eigenvalues --   -0.76829  -0.76354  -0.75891  -0.75375  -0.75125
 Alpha  occ. eigenvalues --   -0.75004  -0.72483  -0.72423  -0.71673  -0.71084
 Alpha  occ. eigenvalues --   -0.69811  -0.69804  -0.68598  -0.68439  -0.67678
 Alpha  occ. eigenvalues --   -0.67229  -0.66607  -0.66069  -0.66020  -0.65170
 Alpha  occ. eigenvalues --   -0.64757  -0.64692  -0.64500  -0.64433  -0.63717
 Alpha  occ. eigenvalues --   -0.63441  -0.61391  -0.61024  -0.60180  -0.59763
 Alpha  occ. eigenvalues --   -0.59082  -0.59079  -0.59073  -0.58578  -0.58307
 Alpha  occ. eigenvalues --   -0.58032  -0.57659  -0.57517  -0.57401  -0.56806
 Alpha  occ. eigenvalues --   -0.56433  -0.55847  -0.55428  -0.55412  -0.55162
 Alpha  occ. eigenvalues --   -0.55056  -0.54653  -0.54242  -0.53696  -0.53658
 Alpha  occ. eigenvalues --   -0.53340  -0.53176  -0.53094  -0.52859  -0.52800
 Alpha  occ. eigenvalues --   -0.52670  -0.52318  -0.52155  -0.52125  -0.51995
 Alpha  occ. eigenvalues --   -0.51968  -0.51709  -0.51602  -0.51340  -0.51176
 Alpha  occ. eigenvalues --   -0.50885  -0.50794  -0.50628  -0.50486  -0.50215
 Alpha  occ. eigenvalues --   -0.50151  -0.50008  -0.49661  -0.49573  -0.49357
 Alpha  occ. eigenvalues --   -0.49257  -0.49051  -0.48993  -0.48915  -0.48629
 Alpha  occ. eigenvalues --   -0.48532  -0.48308  -0.48221  -0.48120  -0.48001
 Alpha  occ. eigenvalues --   -0.47813  -0.47614  -0.47496  -0.47292  -0.47104
 Alpha  occ. eigenvalues --   -0.46996  -0.46738  -0.46536  -0.46469  -0.46247
 Alpha  occ. eigenvalues --   -0.46128  -0.46116  -0.45817  -0.45637  -0.45537
 Alpha  occ. eigenvalues --   -0.45423  -0.45238  -0.45019  -0.45018  -0.44852
 Alpha  occ. eigenvalues --   -0.44633  -0.44258  -0.44229  -0.43957  -0.43920
 Alpha  occ. eigenvalues --   -0.43696  -0.43632  -0.43397  -0.43304  -0.43177
 Alpha  occ. eigenvalues --   -0.43051  -0.43047  -0.42779  -0.42714  -0.42664
 Alpha  occ. eigenvalues --   -0.42577  -0.42354  -0.42232  -0.41989  -0.41919
 Alpha  occ. eigenvalues --   -0.41665  -0.41530  -0.41490  -0.41332  -0.41125
 Alpha  occ. eigenvalues --   -0.41088  -0.40953  -0.40875  -0.40605  -0.40221
 Alpha  occ. eigenvalues --   -0.40113  -0.39977  -0.39906  -0.39035  -0.38763
 Alpha  occ. eigenvalues --   -0.38505  -0.38382  -0.37831  -0.37700  -0.37679
 Alpha  occ. eigenvalues --   -0.37536  -0.36618  -0.36354  -0.36112  -0.35731
 Alpha  occ. eigenvalues --   -0.35661  -0.35379  -0.34310  -0.34148  -0.33789
 Alpha  occ. eigenvalues --   -0.33772  -0.33265  -0.33076  -0.31879  -0.31594
 Alpha  occ. eigenvalues --   -0.31166  -0.30873  -0.30807  -0.30452  -0.29898
 Alpha  occ. eigenvalues --   -0.29595  -0.28644  -0.28276  -0.23703  -0.23503
 Alpha  occ. eigenvalues --   -0.21307  -0.21305
 Alpha virt. eigenvalues --   -0.08903  -0.08465  -0.02002  -0.01302  -0.00101
 Alpha virt. eigenvalues --    0.00613   0.02502   0.02619   0.02742   0.03030
 Alpha virt. eigenvalues --    0.04846   0.05152   0.05343   0.05791   0.06018

 Mulliken charges:
               1
     1  Mg  12.000005
     2  C    5.999988
     3  C    6.000027
     4  C    6.000003
     5  C    5.999996
     6  N    7.000001
     7  C    6.000034
     8  C    6.000002
     9  C    6.000002
    10  C    5.999955
    11  C    5.999994
    12  C    6.000000
    13  C    6.000011
    14  H    1.000037
    15  N    7.000006
    16  C    5.999935
    17  C    5.999972
    18  C    5.999977
    19  C    5.999976
    20  C    6.000019
    21  C    5.999986
    22  O    7.999963
    23  C    5.999996
    24  N    7.000012
    25  C    5.999966
    26  C    6.000011
    27  C    5.999985
    28  C    6.000029
    29  C    6.000008
    30  C    6.000004
    31  C    6.000002
    32  N    6.999994
    33  C    6.000062
    34  C    6.000044
    35  C    6.000032
    36  C    6.000038
    37  C    5.999976
    38  C    6.000006
    39  O    8.000044
    40  C    6.000006
    41  C    6.000003
    42  O    7.999967
    43  O    8.000024
    44  C    5.999997
    45  H    1.000008
    46  H    0.999981
    47  H    0.999997
    48  H    1.000016
    49  H    0.999967
    50  H    1.000023
    51  H    1.000042
    52  H    0.999995
    53  H    0.999991
    54  H    0.999972
    55  H    0.999965
    56  H    0.999971
    57  H    0.999962
    58  H    0.999997
    59  H    0.999940
    60  H    0.999944
    61  H    1.000027
    62  H    0.999986
    63  H    0.999963
    64  H    1.000044
    65  H    1.000048
    66  H    1.000003
    67  H    0.999979
    68  H    0.999965
    69  H    0.999980
    70  H    1.000048
    71  H    0.999964
    72  H    0.999987
    73  H    1.000052
    74  H    1.000027
    75  H    0.999977
    76  H    1.000063
    77  H    1.000003
    78  H    0.999962
    79  H    1.000057
    80  Mg  11.996965
    81  C    6.021250
    82  C    5.979081
    83  C    5.976575
    84  C    6.006329
    85  N    7.006232
    86  C    5.964579
    87  C    6.014731
    88  C    5.997285
    89  C    6.028874
    90  C    5.997031
    91  C    6.002326
    92  C    6.001280
    93  H    0.995277
    94  N    6.994519
    95  C    6.046229
    96  C    6.018432
    97  C    6.021018
    98  C    6.035421
    99  C    5.993769
   100  C    6.014120
   101  O    8.026272
   102  C    5.995408
   103  N    6.992161
   104  C    6.039766
   105  C    5.990083
   106  C    6.011677
   107  C    5.968060
   108  C    6.001510
   109  C    6.005001
   110  C    6.006766
   111  N    7.000772
   112  C    5.969907
   113  C    5.960933
   114  C    5.997797
   115  C    5.974613
   116  C    6.007583
   117  C    5.986590
   118  O    7.973421
   119  C    5.997589
   120  C    5.994761
   121  O    7.993277
   122  O    7.999544
   123  C    6.001812
   124  H    1.010345
   125  H    1.005964
   126  H    0.988968
   127  H    0.998203
   128  H    0.999056
   129  H    1.001323
   130  H    1.012901
   131  H    0.996886
   132  H    0.991090
   133  H    1.007994
   134  H    0.995308
   135  H    1.002326
   136  H    1.018856
   137  H    1.019996
   138  H    1.022188
   139  H    1.010514
   140  H    1.015345
   141  H    1.002047
   142  H    0.998679
   143  H    0.995925
   144  H    1.010484
   145  H    1.000016
   146  H    0.995955
   147  H    0.987537
   148  H    1.003162
   149  H    0.991162
   150  H    1.005606
   151  H    0.992428
   152  H    0.978280
   153  H    0.978407
   154  H    0.973815
   155  H    0.992637
   156  H    0.996487
   157  H    0.993637
   158  H    0.999845
 Sum of Mulliken charges = 624.00000

 Dipole moment (field-independent basis, Debye):
    X=             10.6330    Y=             -0.3387    Z=             -3.6741  Tot=             11.2550
 Quadrupole moment (field-independent basis, Debye-Ang):
   XX=            507.8090   YY=             -1.8406   ZZ=              0.3734
   XY=            -14.1893   XZ=            -88.5480   YZ=              3.3106

 Normal termination of Gaussian 16 at Wed Sep 22 03:37:08 2021.
