 Gaussian 16, Revision A.03,
 Gaussian 16:  ES64L-G16RevA.03 25-Dec-2016

 ----------------------------------------------------------
 #p cam-b3lyp/Def2SVP td=(nstates=5) density=(transition=1)
 ----------------------------------------------------------

 --------------------------------
 TDDFT excited states in gaussian
 --------------------------------
 Symbolic Z-matrix:
 Charge =  0 Multiplicity = 1

                         Standard orientation:
 ---------------------------------------------------------------------
 Center     Atomic      Atomic             Coordinates (Angstroms)
 Number     Number       Type             X           Y           Z
 ---------------------------------------------------------------------
      1         12           0      -25.987116   -0.347248    0.528792
      2          6           0      -24.887743    2.046400   -1.738184
      3          6           0      -26.867372   -2.347152   -2.035393
      4          6           0      -27.738587   -2.284433    2.677931
      5          6           0      -25.816001    2.105017    3.080431
      6          7           0      -25.771700   -0.124917   -1.576814
      7          6           0      -25.164024    0.836659   -2.354392
      8          6           0      -25.254745    0.457566   -3.858236
      9          6           0      -26.364288   -0.638426   -3.828396
     10          6           0      -26.261424   -1.155836   -2.401143
     11          6           0      -27.813942   -0.113767   -4.121369
     12          6           0      -23.829567    0.150492   -4.353384
     13          6           0      -23.516158    0.706683   -5.690088
     14          1           0      -22.090648    0.836181   -5.985498
     15          7           0      -26.932889   -2.170356    0.349923
     16          6           0      -27.131016   -2.857904   -0.804423
     17          6           0      -27.520822   -4.204840   -0.470819
     18          6           0      -27.778418   -4.186488    0.947434
     19          6           0      -27.560659   -2.801074    1.373911
     20          6           0      -27.726683   -5.277691   -1.479297
     21          6           0      -28.351608   -5.281285    1.905244
     22          8           0      -28.503224   -5.098704    3.114857
     23          6           0      -28.617486   -6.679181    1.420717
     24          7           0      -26.967924    0.055577    2.500901
     25          6           0      -27.533679   -1.026981    3.228210
     26          6           0      -27.816532   -0.699377    4.657011
     27          6           0      -26.980111    0.617457    4.758433
     28          6           0      -26.488167    0.924971    3.346570
     29          6           0      -29.338916   -0.549037    4.993152
     30          6           0      -25.755425    0.506413    5.738412
     31          6           0      -24.813668   -0.701862    5.502741
     32          7           0      -25.370179    1.626932    0.711236
     33          6           0      -25.308853    2.482341    1.822195
     34          6           0      -24.771483    3.706645    1.359014
     35          6           0      -24.574560    3.553362   -0.007719
     36          6           0      -24.960795    2.296474   -0.338750
     37          6           0      -24.441676    4.888529    2.214018
     38          6           0      -24.199978    4.239425   -1.154063
     39          8           0      -23.823720    5.418724   -1.282629
     40          6           0      -24.350472    3.323646   -2.406070
     41          6           0      -22.899748    3.250607   -2.976712
     42          8           0      -21.939847    2.672722   -2.436403
     43          8           0      -22.876398    3.945225   -4.181263
     44          6           0      -21.547741    4.240287   -4.805892
     45          1           0      -27.193293   -2.857751   -2.944058
     46          1           0      -28.150059   -2.819102    3.537408
     47          1           0      -25.545918    2.823180    3.857519
     48          1           0      -25.542053    1.325783   -4.450370
     49          1           0      -26.081010   -1.450336   -4.497559
     50          1           0      -27.898634    0.938780   -4.393199
     51          1           0      -28.426102   -0.159608   -3.221576
     52          1           0      -28.218155   -0.663068   -4.971405
     53          1           0      -23.796213   -0.929325   -4.491328
     54          1           0      -23.132855    0.502342   -3.592050
     55          1           0      -23.920942    1.718868   -5.687924
     56          1           0      -24.065191    0.136039   -6.438849
     57          1           0      -27.228914   -5.041894   -2.419704
     58          1           0      -28.788336   -5.526206   -1.498391
     59          1           0      -27.227519   -6.186209   -1.142173
     60          1           0      -29.377994   -7.060464    2.102530
     61          1           0      -27.729525   -7.302607    1.527934
     62          1           0      -29.023385   -6.691930    0.408715
     63          1           0      -27.403513   -1.418562    5.365711
     64          1           0      -27.636249    1.422727    5.090343
     65          1           0      -29.886205   -0.352206    4.070893
     66          1           0      -29.612539    0.247379    5.685396
     67          1           0      -29.816983   -1.420368    5.441665
     68          1           0      -26.177038    0.540509    6.743137
     69          1           0      -25.249170    1.463645    5.614317
     70          1           0      -23.788307   -0.399606    5.288785
     71          1           0      -25.236056   -1.268569    4.672496
     72          1           0      -24.759091   -1.366502    6.364414
     73          1           0      -24.994410    5.724784    1.786020
     74          1           0      -23.359787    5.019696    2.194267
     75          1           0      -24.778221    4.826892    3.249003
     76          1           0      -24.987456    3.836305   -3.126367
     77          1           0      -21.001621    4.843138   -4.080695
     78          1           0      -21.541273    4.777998   -5.753959
     79          1           0      -21.207530    3.207371   -4.880186
     80         12           0       26.543547    0.181468   -0.054605
     81          6           0       23.831069   -1.823860   -0.885425
     82          6           0       24.238546    2.919390   -0.102540
     83          6           0       28.882892    2.118790    1.202189
     84          6           0       28.395318   -2.730362    0.616154
     85          7           0       24.283259    0.464115   -0.331218
     86          6           0       23.431548   -0.530307   -0.757236
     87          6           0       22.013272    0.023821   -0.917559
     88          6           0       22.272441    1.555791   -0.928981
     89          6           0       23.670255    1.685341   -0.383420
     90          6           0       22.152154    2.330841   -2.299602
     91          6           0       21.059198   -0.427605    0.200461
     92          6           0       19.635260   -0.066502    0.012968
     93          1           0       18.568349   -0.919059    0.800333
     94          7           0       26.577691    2.260530    0.501645
     95          6           0       25.549398    3.208013    0.379213
     96          6           0       26.054088    4.473303    0.834658
     97          6           0       27.379363    4.231892    1.353773
     98          6           0       27.679041    2.801655    0.998820
     99          6           0       25.185731    5.760663    0.885227
    100          6           0       28.219870    5.326594    2.018731
    101          8           0       27.874938    6.496643    2.014358
    102          6           0       29.492387    4.953518    2.678279
    103          7           0       28.461133   -0.251079    0.580711
    104          6           0       29.240975    0.745090    1.014264
    105          6           0       30.584065    0.153022    1.605295
    106          6           0       30.452607   -1.414372    1.490426
    107          6           0       28.945805   -1.498880    0.886814
    108          6           0       31.920091    0.723699    1.061221
    109          6           0       30.546894   -2.062424    2.888332
    110          6           0       31.122681   -3.483552    2.911938
    111          7           0       26.255590   -1.898083   -0.100303
    112          6           0       27.112849   -2.948954    0.069717
    113          6           0       26.423403   -4.180113   -0.334492
    114          6           0       25.200141   -3.767220   -0.790044
    115          6           0       25.095799   -2.411031   -0.579073
    116          6           0       27.033225   -5.585136   -0.371674
    117          6           0       23.951984   -4.229611   -1.318186
    118          8           0       23.566823   -5.325900   -1.642503
    119          6           0       23.013564   -2.980686   -1.416142
    120          6           0       22.709227   -2.760422   -2.856736
    121          8           0       23.491707   -2.713589   -3.765021
    122          8           0       21.340233   -2.467786   -2.983801
    123          6           0       20.894355   -2.148887   -4.310240
    124          1           0       23.485344    3.697923   -0.237087
    125          1           0       29.756311    2.635787    1.606202
    126          1           0       28.966226   -3.652274    0.745954
    127          1           0       21.692699   -0.268362   -1.916623
    128          1           0       21.676545    2.144747   -0.232621
    129          1           0       21.484528    3.161657   -2.072294
    130          1           0       22.058253    1.741312   -3.211994
    131          1           0       23.117256    2.809669   -2.464485
    132          1           0       21.240403    0.013313    1.181070
    133          1           0       21.140362   -1.505341    0.342302
    134          1           0       19.436190   -0.131748   -1.056711
    135          1           0       19.503648    0.985856    0.264002
    136          1           0       25.026953    5.770447    1.964028
    137          1           0       24.178705    5.674395    0.476609
    138          1           0       25.532322    6.734672    0.539365
    139          1           0       29.231620    4.109202    3.316415
    140          1           0       29.797094    5.775622    3.326091
    141          1           0       30.145284    4.702457    1.841979
    142          1           0       30.585293    0.437543    2.657885
    143          1           0       31.146607   -1.888796    0.797334
    144          1           0       32.350947    1.363303    1.832182
    145          1           0       31.725093    1.211036    0.106506
    146          1           0       32.646237   -0.081784    0.951826
    147          1           0       29.525671   -2.051124    3.268371
    148          1           0       31.079686   -1.458935    3.623475
    149          1           0       31.973601   -3.388528    3.587351
    150          1           0       31.374483   -3.887873    1.931439
    151          1           0       30.420732   -4.167645    3.388942
    152          1           0       26.415598   -6.391760    0.021899
    153          1           0       27.950303   -5.443668    0.200704
    154          1           0       27.414140   -5.718167   -1.384371
    155          1           0       22.114292   -3.230555   -0.853006
    156          1           0       20.288007   -2.992349   -4.640544
    157          1           0       21.629564   -1.922896   -5.082945
    158          1           0       20.284815   -1.248567   -4.237774
 ---------------------------------------------------------------------

 SCF Done:  E(RCAM-B3LYP) =  -4069.81966678     A.U. after   19 cycles

 Excitation energies and oscillator strengths:

 Excited State   1:      Singlet-A      1.6607 eV  746.56 nm  f=0.3764  <S**2>=0.000
     310 -> 316       -0.16223
     312 -> 314        0.68893
     310 <- 316       -0.10409
 This state for optimization and/or second-order correction.
 Total Energy, E(TD-HF/TD-DFT) =  -4069.75863586
 Copying the excited state density for this state as the 1-particle RhoCI density.

 Excited State   2:      Singlet-A      1.7655 eV  702.25 nm  f=0.3967  <S**2>=0.000
     309 -> 315       -0.17238
     311 -> 313        0.68748
     309 <- 315       -0.10344

 Excited State   3:      Singlet-A      2.2190 eV  558.74 nm  f=0.1282  <S**2>=0.000
     310 -> 314        0.64341
     312 -> 316        0.27225

 Excited State   4:      Singlet-A      2.2943 eV  540.41 nm  f=0.1179  <S**2>=0.000
     309 -> 313        0.63740
     311 -> 315        0.29060

 Excited State   5:      Singlet-A      3.1316 eV  395.91 nm  f=0.0000  <S**2>=0.000
     312 -> 313        0.70711

 The electronic state is 1-A.
 Alpha  occ. eigenvalues --  -46.89662 -46.88324 -19.24946 -19.24746 -19.20497
 Alpha  occ. eigenvalues --  -19.20013 -19.18738 -19.18691 -19.18528 -19.17657
 Alpha  occ. eigenvalues --  -14.42658 -14.42345 -14.41945 -14.41485 -14.40227
 Alpha  occ. eigenvalues --  -14.39349 -14.39096 -14.38507 -10.40031 -10.39507
 Alpha  occ. eigenvalues --  -10.35288 -10.34860 -10.34155 -10.33639 -10.32361
 Alpha  occ. eigenvalues --  -10.31979 -10.31594 -10.31225 -10.31178 -10.31119
 Alpha  occ. eigenvalues --  -10.31077 -10.30959 -10.30563 -10.30559 -10.30325
 Alpha  occ. eigenvalues --  -10.30243 -10.30228 -10.29543 -10.29312 -10.29234
 Alpha  occ. eigenvalues --  -10.29208 -10.28587 -10.28349 -10.28327 -10.28309
 Alpha  occ. eigenvalues --  -10.28249 -10.28248 -10.28231 -10.28218 -10.28187
 Alpha  occ. eigenvalues --  -10.28169 -10.27912 -10.27904 -10.27884 -10.27788
 Alpha  occ. eigenvalues --  -10.27746 -10.27744 -10.27674 -10.27556 -10.27525
 Alpha  occ. eigenvalues --  -10.27458 -10.27413 -10.27176 -10.27017 -10.27015
 Alpha  occ. eigenvalues --  -10.26922 -10.26799 -10.26734 -10.26537 -10.26532
 Alpha  occ. eigenvalues --  -10.26498 -10.26405 -10.26403 -10.26379 -10.26242
 Alpha  occ. eigenvalues --  -10.26076 -10.26060 -10.25947 -10.25941 -10.25834
 Alpha  occ. eigenvalues --  -10.25750 -10.25743 -10.25627 -10.25572 -10.23984
 Alpha  occ. eigenvalues --  -10.23785  -3.18083  -3.16920  -1.92989  -1.92541
 Alpha  occ. eigenvalues --   -1.92370  -1.91800  -1.91379  -1.91222  -1.16620
 Alpha  occ. eigenvalues --   -1.14419  -1.10338  -1.10118  -1.09478  -1.08830
 Alpha  occ. eigenvalues --   -1.07949  -1.06651  -1.04813  -1.04595  -1.03905
 Alpha  occ. eigenvalues --   -1.03791  -1.03722  -1.03521  -1.02824  -1.02230
 Alpha  occ. eigenvalues --   -0.93267  -0.92535  -0.89416  -0.89234  -0.89095
 Alpha  occ. eigenvalues --   -0.89054  -0.88839  -0.88590  -0.88094  -0.87801
 Alpha  occ. eigenvalues --   -0.87132  -0.86538  -0.86460  -0.85949  -0.85214
 Alpha  occ. eigenvalues --   -0.84602  -0.84049  -0.83509  -0.83164  -0.82588
 Alpha  occ. eigenvalues --   -0.82170  -0.81628  -0.81302  -0.80992  -0.80853
 Alpha  occ. eigenvalues --   -0.80395  -0.78210  -0.77762  -0.77353  -0.77113
 Alpha  occ. eigenvalues --   -0.77076  -0.76937  -0.76207  -0.76037  -0.75528
 Alpha  occ. eigenvalues --   -0.75473  -0.73253  -0.73248  -0.72052  -0.72047
 Alpha  occ. eigenvalues --   -0.69795  -0.69337  -0.69073  -0.68770  -0.67790
 Alpha  occ. eigenvalues --   -0.67538  -0.66767  -0.66535  -0.66100  -0.65581
 Alpha  occ. eigenvalues --   -0.65341  -0.64981  -0.64663  -0.64617  -0.64457
 Alpha  occ. eigenvalues --   -0.64070  -0.62699  -0.61566  -0.60241  -0.59899
 Alpha  occ. eigenvalues --   -0.59890  -0.59787  -0.59314  -0.59143  -0.58857
 Alpha  occ. eigenvalues --   -0.58460  -0.58438  -0.57574  -0.57569  -0.57003
 Alpha  occ. eigenvalues --   -0.56506  -0.55984  -0.55904  -0.55621  -0.55479
 Alpha  occ. eigenvalues --   -0.55332  -0.55082  -0.54931  -0.54767  -0.54390
 Alpha  occ. eigenvalues --   -0.54028  -0.53574  -0.53550  -0.53320  -0.53151
 Alpha  occ. eigenvalues --   -0.53049  -0.52936  -0.52811  -0.52648  -0.52467
 Alpha  occ. eigenvalues --   -0.51936  -0.51908  -0.51725  -0.51673  -0.51658
 Alpha  occ. eigenvalues --   -0.51461  -0.50843  -0.50738  -0.50495  -0.50368
 Alpha  occ. eigenvalues --   -0.50351  -0.50288  -0.49879  -0.49636  -0.49390
 Alpha  occ. eigenvalues --   -0.49319  -0.49199  -0.49049  -0.48917  -0.48861
 Alpha  occ. eigenvalues --   -0.48764  -0.48522  -0.48299  -0.48104  -0.48087
 Alpha  occ. eigenvalues --   -0.47979  -0.47688  -0.47542  -0.47381  -0.47367
 Alpha  occ. eigenvalues --   -0.47157  -0.47097  -0.47035  -0.46616  -0.46468
 Alpha  occ. eigenvalues --   -0.46404  -0.46300  -0.46150  -0.45993  -0.45810
 Alpha  occ. eigenvalues --   -0.45704  -0.45471  -0.45328  -0.45134  -0.44676
 Alpha  occ. eigenvalues --   -0.44611  -0.44491  -0.44184  -0.44169  -0.43915
 Alpha  occ. eigenvalues --   -0.43754  -0.43695  -0.43468  -0.43445  -0.43320
 Alpha  occ. eigenvalues --   -0.43238  -0.43192  -0.43058  -0.42958  -0.42717
 Alpha  occ. eigenvalues --   -0.42698  -0.42384  -0.42369  -0.42296  -0.42035
 Alpha  occ. eigenvalues --   -0.41966  -0.41864  -0.41746  -0.41592  -0.41542
 Alpha  occ. eigenvalues --   -0.41068  -0.40848  -0.40651  -0.40611  -0.40299
 Alpha  occ. eigenvalues --   -0.40265  -0.39958  -0.39920  -0.39717  -0.39163
 Alpha  occ. eigenvalues --   -0.38820  -0.38207  -0.38048  -0.38037  -0.37676
 Alpha  occ. eigenvalues --   -0.37369  -0.36908  -0.36833  -0.36601  -0.36521
 Alpha  occ. eigenvalues --   -0.36092  -0.36078  -0.35250  -0.34248  -0.34188
 Alpha  occ. eigenvalues --   -0.34092  -0.33725  -0.33229  -0.31766  -0.31319
 Alpha  occ. eigenvalues --   -0.31037  -0.30828  -0.30657  -0.30125  -0.30059
 Alpha  occ. eigenvalues --   -0.29949  -0.29725  -0.29404  -0.24669  -0.24244
 Alpha  occ. eigenvalues --   -0.21664  -0.21195
 Alpha virt. eigenvalues --   -0.09033  -0.09007  -0.01941  -0.01515   0.00529
 Alpha virt. eigenvalues --    0.00917   0.02031   0.02191   0.02421   0.02728
 Alpha virt. eigenvalues --    0.04415   0.04957   0.05068   0.05398   0.05823

 Mulliken charges:
               1
     1  Mg  11.997493
     2  C    6.031945
     3  C    5.989976
     4  C    5.961690
     5  C    5.988603
     6  N    7.022513
     7  C    5.963207
     8  C    6.002585
     9  C    5.993242
    10  C    6.024627
    11  C    5.995877
    12  C    6.007091
    13  C    5.999639
    14  H    1.001059
    15  N    6.989186
    16  C    6.042894
    17  C    6.020200
    18  C    6.013608
    19  C    6.045648
    20  C    5.994561
    21  C    6.012900
    22  O    8.029694
    23  C    5.994150
    24  N    6.981958
    25  C    6.046913
    26  C    5.982955
    27  C    6.007528
    28  C    5.982214
    29  C    6.000067
    30  C    6.008676
    31  C    6.006775
    32  N    7.004884
    33  C    5.965049
    34  C    5.968796
    35  C    5.998469
    36  C    5.966598
    37  C    6.005161
    38  C    5.986609
    39  O    7.968694
    40  C    5.994603
    41  C    5.997238
    42  O    7.996738
    43  O    7.998422
    44  C    6.000913
    45  H    1.015083
    46  H    1.003770
    47  H    0.982139
    48  H    1.001073
    49  H    1.001620
    50  H    1.017379
    51  H    0.999443
    52  H    1.003625
    53  H    0.986489
    54  H    1.006092
    55  H    1.003852
    56  H    0.993855
    57  H    1.016740
    58  H    1.021016
    59  H    1.019932
    60  H    1.014211
    61  H    1.011350
    62  H    1.003894
    63  H    1.001783
    64  H    0.996853
    65  H    0.999810
    66  H    1.010777
    67  H    0.996819
    68  H    0.989304
    69  H    1.007144
    70  H    1.003154
    71  H    0.984743
    72  H    0.992628
    73  H    0.980052
    74  H    0.978678
    75  H    0.981374
    76  H    0.991794
    77  H    1.001118
    78  H    0.995332
    79  H    0.995424
    80  Mg  11.999991
    81  C    6.000010
    82  C    6.000006
    83  C    5.999992
    84  C    5.999991
    85  N    7.000011
    86  C    5.999953
    87  C    6.000017
    88  C    5.999974
    89  C    6.000042
    90  C    5.999991
    91  C    6.000001
    92  C    5.999990
    93  H    1.000021
    94  N    6.999971
    95  C    6.000091
    96  C    6.000008
    97  C    6.000033
    98  C    6.000076
    99  C    5.999979
   100  C    6.000042
   101  O    8.000052
   102  C    5.999990
   103  N    6.999999
   104  C    6.000030
   105  C    5.999984
   106  C    6.000012
   107  C    5.999967
   108  C    6.000002
   109  C    6.000012
   110  C    6.000004
   111  N    7.000010
   112  C    5.999935
   113  C    5.999905
   114  C    6.000054
   115  C    5.999956
   116  C    6.000015
   117  C    5.999916
   118  O    7.999937
   119  C    6.000014
   120  C    5.999981
   121  O    7.999985
   122  O    8.000003
   123  C    6.000003
   124  H    1.000063
   125  H    0.999992
   126  H    0.999956
   127  H    1.000003
   128  H    1.000033
   129  H    1.000048
   130  H    1.000030
   131  H    0.999986
   132  H    0.999992
   133  H    1.000000
   134  H    1.000001
   135  H    1.000016
   136  H    1.000054
   137  H    1.000064
   138  H    1.000058
   139  H    1.000017
   140  H    1.000034
   141  H    1.000009
   142  H    1.000000
   143  H    0.999978
   144  H    0.999994
   145  H    0.999996
   146  H    1.000002
   147  H    1.000007
   148  H    0.999968
   149  H    0.999975
   150  H    0.999991
   151  H    0.999999
   152  H    0.999937
   153  H    0.999945
   154  H    0.999930
   155  H    0.999987
   156  H    0.999979
   157  H    0.999984
   158  H    1.000014
 Sum of Mulliken charges = 624.00000

 Dipole moment (field-independent basis, Debye):
    X=             -4.1803    Y=             -9.9535    Z=             -1.7247  Tot=             10.9326
 Quadrupole moment (field-independent basis, Debye-Ang):
   XX=            218.2960   YY=              5.5879   ZZ=             -3.2349
   XY=            263.0020   XZ=             44.3648   YZ=             -4.9670

 Normal termination of Gaussian 16 at Wed Sep 22 12:38:05 2021.
