 Gaussian 16, Revision A.03,
 Gaussian 16:  ES64L-G16RevA.03 25-Dec-2016

 -----------------------------------
 #p cam-b3lyp/Def2SVP td=(nstates=5)
 -----------------------------------

 --------------------------------
 TDDFT excited states in gaussian
 --------------------------------
 Symbolic Z-matrix:
 Charge =  0 Multiplicity = 1

                         Standard orientation:
 ---------------------------------------------------------------------
 Center     Atomic      Atomic             Coordinates (Angstroms)
 Number     Number       Type             X           Y           Z
 ---------------------------------------------------------------------
      1         12           0       -5.054866    0.587059   -0.114123
      2          6           0       -3.104231   -2.084253   -1.485437
      3          6           0       -7.804191   -1.470720   -0.139967
      4          6           0       -7.066172    3.164453    0.734114
      5          6           0       -2.445735    2.763159   -1.061951
      6          7           0       -5.377879   -1.524582   -0.733324
      7          6           0       -4.450555   -2.470000   -1.198973
      8          6           0       -5.137181   -3.803801   -1.344609
      9          6           0       -6.668461   -3.391944   -1.404837
     10          6           0       -6.626097   -1.977090   -0.756271
     11          6           0       -7.099541   -3.356094   -2.914388
     12          6           0       -4.722681   -4.861982   -0.262121
     13          6           0       -4.497875   -6.151339   -0.875563
     14          1           0       -3.732185   -7.222097    0.052833
     15          7           0       -7.124433    0.686518    0.398347
     16          6           0       -8.059873   -0.269826    0.357687
     17          6           0       -9.282758    0.241664    0.895962
     18          6           0       -9.116582    1.587957    1.144463
     19          6           0       -7.652639    1.901218    0.802886
     20          6           0      -10.594540   -0.605185    0.930291
     21          6           0      -10.113536    2.593456    1.756396
     22          8           0       -9.787985    3.748662    1.863528
     23          6           0      -11.444069    2.129268    2.300368
     24          7           0       -4.855071    2.695699   -0.428423
     25          6           0       -5.802669    3.530978    0.152929
     26          6           0       -5.296355    4.934582    0.230177
     27          6           0       -3.795215    4.811395   -0.327839
     28          6           0       -3.646693    3.327631   -0.569042
     29          6           0       -6.174295    5.914347   -0.472356
     30          6           0       -2.599775    5.413641    0.595882
     31          6           0       -1.774568    6.506668    0.041203
     32          7           0       -3.128728    0.437024   -1.028949
     33          6           0       -2.223082    1.428049   -1.333762
     34          6           0       -0.973819    0.758087   -1.902383
     35          6           0       -1.229149   -0.627643   -1.874213
     36          6           0       -2.574557   -0.767220   -1.383334
     37          6           0        0.262878    1.511970   -2.410097
     38          6           0       -0.683238   -1.880030   -2.301973
     39          8           0        0.428596   -2.148642   -2.810381
     40          6           0       -1.924520   -2.861153   -2.232006
     41          6           0       -1.382617   -4.164534   -1.571821
     42          8           0       -1.594922   -4.404309   -0.369041
     43          8           0       -0.783449   -4.940011   -2.508518
     44          6           0       -0.094466   -6.083780   -1.817725
     45          1           0       -8.620717   -2.166485    0.065906
     46          1           0       -7.691525    4.012464    1.023260
     47          1           0       -1.549266    3.341061   -1.295546
     48          1           0       -4.886054   -4.156318   -2.344736
     49          1           0       -7.299725   -4.105161   -0.876001
     50          1           0       -6.712566   -2.494721   -3.458238
     51          1           0       -8.186064   -3.408491   -2.969337
     52          1           0       -6.731704   -4.257874   -3.404419
     53          1           0       -5.608284   -5.031937    0.350652
     54          1           0       -3.900553   -4.509125    0.360986
     55          1           0       -3.788184   -6.076317   -1.699638
     56          1           0       -5.470355   -6.545324   -1.171819
     57          1           0      -10.883112   -0.560545    1.980412
     58          1           0      -10.471086   -1.654584    0.663093
     59          1           0      -11.324713   -0.184432    0.239106
     60          1           0      -12.047588    2.981192    2.613763
     61          1           0      -11.039563    1.541613    3.124408
     62          1           0      -11.938668    1.541025    1.527478
     63          1           0       -5.284314    5.121322    1.304157
     64          1           0       -3.770612    5.356858   -1.270890
     65          1           0       -6.622937    6.497875    0.330584
     66          1           0       -7.021969    5.445479   -0.971838
     67          1           0       -5.677127    6.551429   -1.204187
     68          1           0       -1.933209    4.555936    0.685651
     69          1           0       -3.019052    5.629184    1.577752
     70          1           0       -0.735525    6.198105   -0.071071
     71          1           0       -1.833397    7.157645    0.912811
     72          1           0       -2.236111    7.005069   -0.812341
     73          1           0        0.109975    1.636749   -3.481498
     74          1           0        1.188033    0.962700   -2.235737
     75          1           0        0.353192    2.451168   -1.864286
     76          1           0       -2.182832   -3.003241   -3.280491
     77          1           0        0.821038   -5.816820   -1.290073
     78          1           0        0.142589   -6.929786   -2.462026
     79          1           0       -0.832990   -6.492634   -1.127852
     80         12           0        4.872511    0.582080    0.187362
     81          6           0        3.298100   -2.426383    0.922786
     82          6           0        7.836091   -1.139745    0.027199
     83          6           0        6.491057    3.594219   -0.284045
     84          6           0        1.953095    2.341914    0.915768
     85          7           0        5.452999   -1.553469    0.353736
     86          6           0        4.655231   -2.618240    0.543623
     87          6           0        5.356399   -3.989139    0.400001
     88          6           0        6.880488   -3.543850    0.347687
     89          6           0        6.757957   -1.946593    0.276722
     90          6           0        7.621336   -4.103565    1.614112
     91          6           0        4.805275   -4.661912   -0.960105
     92          6           0        4.216976   -6.098347   -0.836990
     93          1           0        4.694794   -6.878532    0.440799
     94          7           0        6.869292    1.203427   -0.021061
     95          6           0        7.944550    0.299751   -0.147112
     96          6           0        9.121189    1.033651   -0.561646
     97          6           0        8.777034    2.390539   -0.607809
     98          6           0        7.287187    2.457215   -0.372264
     99          6           0       10.508572    0.376136   -0.566039
    100          6           0        9.703320    3.602802   -0.891192
    101          8           0        9.336811    4.792393   -0.925119
    102          6           0       11.177383    3.325310   -1.232907
    103          7           0        4.271903    2.658922    0.389795
    104          6           0        5.173651    3.717309    0.063766
    105          6           0        4.535048    5.084429    0.386235
    106          6           0        2.994464    4.667553    0.494839
    107          6           0        3.064718    3.119315    0.561414
    108          6           0        5.199924    5.676831    1.617792
    109          6           0        2.174370    5.133761   -0.781149
    110          6           0        2.560342    4.823826   -2.267606
    111          7           0        3.038974    0.121815    0.862186
    112          6           0        1.930450    0.927802    1.139114
    113          6           0        0.842800    0.099179    1.547204
    114          6           0        1.299649   -1.202028    1.440353
    115          6           0        2.679044   -1.158211    1.119902
    116          6           0       -0.514569    0.543921    2.052299
    117          6           0        0.919853   -2.550893    1.588499
    118          8           0       -0.114838   -2.965589    2.004344
    119          6           0        2.245068   -3.392116    1.370328
    120          6           0        2.567353   -4.010776    2.702461
    121          8           0        3.463243   -3.631885    3.427663
    122          8           0        1.677011   -4.986664    2.916821
    123          6           0        1.575333   -5.359054    4.306646
    124          1           0        8.770921   -1.687700   -0.106270
    125          1           0        7.050580    4.527129   -0.196072
    126          1           0        1.033424    2.879287    1.158540
    127          1           0        5.159087   -4.696993    1.204827
    128          1           0        7.418955   -3.856926   -0.547112
    129          1           0        8.297846   -3.401566    2.102165
    130          1           0        8.154101   -4.927489    1.140182
    131          1           0        6.856603   -4.539239    2.256690
    132          1           0        5.595537   -4.570577   -1.704958
    133          1           0        4.014006   -4.009308   -1.329839
    134          1           0        4.591299   -6.551971   -1.754068
    135          1           0        3.128812   -6.153034   -0.848522
    136          1           0       11.146668    0.975261    0.084055
    137          1           0       10.940029    0.451852   -1.565048
    138          1           0       10.428482   -0.660795   -0.241229
    139          1           0       11.662860    3.020842   -0.304776
    140          1           0       11.606451    4.295800   -1.481645
    141          1           0       11.234233    2.724026   -2.139949
    142          1           0        4.650403    5.663596   -0.530395
    143          1           0        2.526277    5.197016    1.323854
    144          1           0        6.234706    5.357014    1.741535
    145          1           0        4.652499    5.401294    2.518894
    146          1           0        5.264375    6.761789    1.537845
    147          1           0        2.014517    6.208524   -0.694356
    148          1           0        1.237833    4.587425   -0.668991
    149          1           0        3.226573    5.612335   -2.617878
    150          1           0        1.619463    4.844265   -2.818789
    151          1           0        2.942882    3.822163   -2.466245
    152          1           0       -1.055806    1.136444    1.314461
    153          1           0       -0.277431    1.168493    2.913322
    154          1           0       -1.241127   -0.252436    2.219625
    155          1           0        2.211299   -4.218995    0.660711
    156          1           0        0.585089   -5.706849    4.599915
    157          1           0        1.977942   -4.728699    5.099399
    158          1           0        2.186825   -6.222463    4.569653
 ---------------------------------------------------------------------

 SCF Done:  E(RCAM-B3LYP) =  -4069.78409561     A.U. after   18 cycles

 Excitation energies and oscillator strengths:

 Excited State   1:      Singlet-A      1.6696 eV  742.61 nm  f=0.8493  <S**2>=0.000
     309 -> 315        0.11859
     310 -> 316       -0.11741
     311 -> 313        0.44145
     311 -> 314       -0.20492
     312 -> 313       -0.25221
     312 -> 314       -0.41513
 This state for optimization and/or second-order correction.
 Total Energy, E(TD-HF/TD-DFT) =  -4069.72273973
 Copying the excited state density for this state as the 1-particle RhoCI density.

 Excited State   2:      Singlet-A      1.7445 eV  710.72 nm  f=0.0183  <S**2>=0.000
     309 -> 315       -0.14057
     310 -> 316       -0.12654
     311 -> 313        0.47731
     312 -> 314        0.48647

 Excited State   3:      Singlet-A      2.2183 eV  558.91 nm  f=0.0010  <S**2>=0.000
     309 -> 314        0.14576
     311 -> 313        0.15533
     312 -> 313        0.62694
     312 -> 314       -0.17953
     312 -> 315        0.11720

 Excited State   4:      Singlet-A      2.2268 eV  556.78 nm  f=0.0897  <S**2>=0.000
     310 -> 313        0.61796
     310 -> 314       -0.14209
     311 -> 316        0.26289

 Excited State   5:      Singlet-A      2.2734 eV  545.36 nm  f=0.0130  <S**2>=0.000
     309 -> 313        0.14570
     309 -> 314        0.50172
     312 -> 313       -0.15820
     312 -> 315        0.40570

 The electronic state is 1-A.
 Alpha  occ. eigenvalues --  -46.89492 -46.87545 -19.26166 -19.25591 -19.19552
 Alpha  occ. eigenvalues --  -19.19538 -19.19512 -19.18881 -19.18475 -19.18175
 Alpha  occ. eigenvalues --  -14.42305 -14.41998 -14.41727 -14.40969 -14.39426
 Alpha  occ. eigenvalues --  -14.39254 -14.39044 -14.38494 -10.39512 -10.38750
 Alpha  occ. eigenvalues --  -10.35726 -10.35005 -10.34690 -10.33918 -10.31774
 Alpha  occ. eigenvalues --  -10.31427 -10.31404 -10.31290 -10.31085 -10.30940
 Alpha  occ. eigenvalues --  -10.30891 -10.30587 -10.30314 -10.29790 -10.29691
 Alpha  occ. eigenvalues --  -10.29674 -10.29360 -10.29267 -10.29126 -10.29075
 Alpha  occ. eigenvalues --  -10.29056 -10.28965 -10.28839 -10.28717 -10.28641
 Alpha  occ. eigenvalues --  -10.28290 -10.28224 -10.28100 -10.28082 -10.28027
 Alpha  occ. eigenvalues --  -10.27966 -10.27913 -10.27872 -10.27700 -10.27524
 Alpha  occ. eigenvalues --  -10.27475 -10.27466 -10.27311 -10.27129 -10.27119
 Alpha  occ. eigenvalues --  -10.27115 -10.27057 -10.26968 -10.26808 -10.26633
 Alpha  occ. eigenvalues --  -10.26524 -10.26504 -10.26488 -10.26347 -10.26281
 Alpha  occ. eigenvalues --  -10.26255 -10.26249 -10.26204 -10.26061 -10.25945
 Alpha  occ. eigenvalues --  -10.25577 -10.25505 -10.25439 -10.25415 -10.25397
 Alpha  occ. eigenvalues --  -10.25148 -10.25011 -10.24986 -10.24915 -10.24724
 Alpha  occ. eigenvalues --  -10.24041  -3.17832  -3.16147  -1.92728  -1.92273
 Alpha  occ. eigenvalues --   -1.92133  -1.91047  -1.90583  -1.90469  -1.17599
 Alpha  occ. eigenvalues --   -1.15997  -1.11787  -1.11055  -1.08531  -1.07969
 Alpha  occ. eigenvalues --   -1.07905  -1.06937  -1.04136  -1.03611  -1.03072
 Alpha  occ. eigenvalues --   -1.02841  -1.02795  -1.02200  -1.01517  -1.00637
 Alpha  occ. eigenvalues --   -0.92166  -0.91255  -0.88927  -0.88691  -0.88302
 Alpha  occ. eigenvalues --   -0.88097  -0.87644  -0.87554  -0.87482  -0.87334
 Alpha  occ. eigenvalues --   -0.86569  -0.86035  -0.85530  -0.85473  -0.84446
 Alpha  occ. eigenvalues --   -0.83832  -0.83417  -0.83038  -0.82630  -0.82564
 Alpha  occ. eigenvalues --   -0.81966  -0.80718  -0.80701  -0.80556  -0.80474
 Alpha  occ. eigenvalues --   -0.79436  -0.78264  -0.77643  -0.77215  -0.76799
 Alpha  occ. eigenvalues --   -0.76534  -0.76255  -0.75527  -0.75418  -0.74977
 Alpha  occ. eigenvalues --   -0.74510  -0.72409  -0.72226  -0.71486  -0.70734
 Alpha  occ. eigenvalues --   -0.68848  -0.68711  -0.68134  -0.67980  -0.67505
 Alpha  occ. eigenvalues --   -0.67452  -0.66320  -0.65915  -0.65340  -0.65149
 Alpha  occ. eigenvalues --   -0.64963  -0.64485  -0.64362  -0.64043  -0.63976
 Alpha  occ. eigenvalues --   -0.63647  -0.62083  -0.61910  -0.59983  -0.59459
 Alpha  occ. eigenvalues --   -0.59128  -0.58834  -0.58499  -0.58477  -0.58274
 Alpha  occ. eigenvalues --   -0.57823  -0.57535  -0.57441  -0.57087  -0.56765
 Alpha  occ. eigenvalues --   -0.56049  -0.55740  -0.55593  -0.55194  -0.55096
 Alpha  occ. eigenvalues --   -0.54381  -0.54342  -0.54045  -0.54001  -0.53932
 Alpha  occ. eigenvalues --   -0.53665  -0.53555  -0.53045  -0.52880  -0.52821
 Alpha  occ. eigenvalues --   -0.52660  -0.52623  -0.52437  -0.52198  -0.52098
 Alpha  occ. eigenvalues --   -0.51968  -0.51642  -0.51333  -0.51290  -0.51225
 Alpha  occ. eigenvalues --   -0.50635  -0.50528  -0.50387  -0.50273  -0.50175
 Alpha  occ. eigenvalues --   -0.49987  -0.49597  -0.49382  -0.49285  -0.49101
 Alpha  occ. eigenvalues --   -0.48936  -0.48806  -0.48728  -0.48672  -0.48431
 Alpha  occ. eigenvalues --   -0.48196  -0.48166  -0.48069  -0.47926  -0.47856
 Alpha  occ. eigenvalues --   -0.47573  -0.47491  -0.47285  -0.47049  -0.46823
 Alpha  occ. eigenvalues --   -0.46664  -0.46572  -0.46262  -0.46206  -0.46075
 Alpha  occ. eigenvalues --   -0.45860  -0.45813  -0.45682  -0.45452  -0.45275
 Alpha  occ. eigenvalues --   -0.44991  -0.44778  -0.44670  -0.44532  -0.44408
 Alpha  occ. eigenvalues --   -0.44261  -0.44197  -0.44182  -0.44107  -0.43794
 Alpha  occ. eigenvalues --   -0.43767  -0.43477  -0.43299  -0.43198  -0.43188
 Alpha  occ. eigenvalues --   -0.43052  -0.42860  -0.42835  -0.42588  -0.42492
 Alpha  occ. eigenvalues --   -0.42422  -0.42349  -0.42023  -0.41927  -0.41896
 Alpha  occ. eigenvalues --   -0.41558  -0.41498  -0.41324  -0.41148  -0.40868
 Alpha  occ. eigenvalues --   -0.40847  -0.40542  -0.40251  -0.40197  -0.39909
 Alpha  occ. eigenvalues --   -0.39854  -0.39300  -0.38918  -0.38680  -0.38513
 Alpha  occ. eigenvalues --   -0.37998  -0.37314  -0.37281  -0.37082  -0.37017
 Alpha  occ. eigenvalues --   -0.36884  -0.36802  -0.36540  -0.36183  -0.36041
 Alpha  occ. eigenvalues --   -0.35630  -0.34690  -0.34237  -0.33904  -0.33810
 Alpha  occ. eigenvalues --   -0.33615  -0.33083  -0.32112  -0.31785  -0.31449
 Alpha  occ. eigenvalues --   -0.31034  -0.30696  -0.30239  -0.30143  -0.30005
 Alpha  occ. eigenvalues --   -0.29664  -0.29247  -0.29068  -0.24317  -0.23242
 Alpha  occ. eigenvalues --   -0.20483  -0.20267
 Alpha virt. eigenvalues --   -0.07999  -0.07616  -0.02579  -0.00869  -0.00094
 Alpha virt. eigenvalues --    0.01222   0.01761   0.02335   0.03032   0.03195
 Alpha virt. eigenvalues --    0.04622   0.05014   0.05475   0.06035   0.06101

 Mulliken charges:
               1
     1  Mg   0.808283
     2  C    0.061793
     3  C   -0.122394
     4  C   -0.064193
     5  C   -0.069335
     6  N   -0.268119
     7  C   -0.054232
     8  C   -0.044602
     9  C   -0.100105
    10  C    0.113863
    11  C    0.068823
    12  C    0.136072
    13  C   -0.083309
    14  H   -0.005098
    15  N   -0.362874
    16  C    0.148453
    17  C   -0.138819
    18  C   -0.064736
    19  C    0.140073
    20  C    0.103255
    21  C   -0.015080
    22  O   -0.184928
    23  C    0.069024
    24  N   -0.322118
    25  C    0.035394
    26  C   -0.049618
    27  C   -0.010992
    28  C    0.065285
    29  C    0.078807
    30  C    0.008183
    31  C    0.028701
    32  N   -0.332084
    33  C    0.069677
    34  C   -0.185298
    35  C    0.035311
    36  C    0.076568
    37  C    0.127240
    38  C    0.051584
    39  O   -0.205287
    40  C   -0.082699
    41  C    0.217991
    42  O   -0.231732
    43  O   -0.312569
    44  C    0.175858
    45  H   -0.034465
    46  H    0.002144
    47  H   -0.036505
    48  H   -0.005452
    49  H   -0.000623
    50  H    0.027905
    51  H    0.011723
    52  H    0.014585
    53  H   -0.009629
    54  H    0.058460
    55  H    0.030001
    56  H    0.020075
    57  H    0.030580
    58  H    0.013792
    59  H    0.050789
    60  H    0.035369
    61  H    0.045367
    62  H    0.034512
    63  H    0.016667
    64  H    0.007191
    65  H    0.017936
    66  H    0.024534
    67  H    0.016265
    68  H    0.001330
    69  H    0.004275
    70  H    0.017649
    71  H    0.007438
    72  H    0.021566
    73  H    0.035887
    74  H    0.037669
    75  H    0.008637
    76  H    0.059135
    77  H    0.042701
    78  H    0.032717
    79  H    0.047938
    80  Mg   0.827306
    81  C   -0.001047
    82  C   -0.054497
    83  C   -0.056258
    84  C   -0.111180
    85  N   -0.262232
    86  C   -0.021442
    87  C   -0.038191
    88  C   -0.073257
    89  C    0.047420
    90  C    0.074710
    91  C    0.033626
    92  C   -0.066044
    93  H    0.019860
    94  N   -0.381111
    95  C    0.115386
    96  C   -0.159570
    97  C   -0.047761
    98  C    0.111761
    99  C    0.135953
   100  C    0.004667
   101  O   -0.223031
   102  C    0.048660
   103  N   -0.268957
   104  C    0.003492
   105  C   -0.012364
   106  C   -0.018102
   107  C    0.074384
   108  C    0.092303
   109  C   -0.037965
   110  C    0.004608
   111  N   -0.399909
   112  C    0.131867
   113  C   -0.163501
   114  C    0.041879
   115  C    0.110678
   116  C    0.123679
   117  C    0.024243
   118  O   -0.113303
   119  C   -0.024788
   120  C    0.172772
   121  O   -0.210307
   122  O   -0.275417
   123  C    0.183569
   124  H   -0.038602
   125  H    0.005895
   126  H   -0.028428
   127  H    0.020559
   128  H    0.013269
   129  H    0.029271
   130  H    0.009574
   131  H    0.027191
   132  H    0.009190
   133  H    0.032295
   134  H    0.035048
   135  H    0.030903
   136  H    0.022411
   137  H    0.015939
   138  H    0.017421
   139  H    0.039625
   140  H    0.016376
   141  H    0.042398
   142  H    0.007330
   143  H   -0.000743
   144  H    0.025484
   145  H    0.012339
   146  H    0.012769
   147  H    0.019795
   148  H    0.007525
   149  H    0.027541
   150  H    0.013024
   151  H    0.027709
   152  H    0.026267
   153  H    0.025662
   154  H    0.032452
   155  H    0.022563
   156  H    0.038687
   157  H    0.035711
   158  H    0.004781
 Sum of Mulliken charges =  -0.00000

 Dipole moment (field-independent basis, Debye):
    X=             -4.8747    Y=             -2.5890    Z=             -0.5229  Tot=              5.5442
 Quadrupole moment (field-independent basis, Debye-Ang):
   XX=           -462.8637   YY=           -496.3633   ZZ=           -515.4044
   XY=            -14.0262   XZ=             -4.9836   YZ=              6.6130

 Normal termination of Gaussian 16 at Wed Sep 15 14:23:47 2021.
