 Gaussian 16, Revision A.03,
 Gaussian 16:  ES64L-G16RevA.03 25-Dec-2016

 ----------------------------------------------------------
 #p cam-b3lyp/Def2SVP td=(nstates=5) density=(transition=1)
 ----------------------------------------------------------

 --------------------------------
 TDDFT excited states in gaussian
 --------------------------------
 Symbolic Z-matrix:
 Charge =  0 Multiplicity = 1

                         Standard orientation:
 ---------------------------------------------------------------------
 Center     Atomic      Atomic             Coordinates (Angstroms)
 Number     Number       Type             X           Y           Z
 ---------------------------------------------------------------------
      1         12           0       23.382120   -0.562399   -0.083948
      2          6           0       21.045678    1.744816    1.039518
      3          6           0       25.577892    1.927284   -0.679087
      4          6           0       25.482388   -2.862597   -1.309853
      5          6           0       20.977436   -3.058298    0.416012
      6          7           0       23.254798    1.601327    0.211955
      7          6           0       22.291311    2.311127    0.748733
      8          6           0       22.786737    3.829256    0.806237
      9          6           0       23.731701    3.789801   -0.376110
     10          6           0       24.284170    2.332511   -0.274087
     11          6           0       22.977977    4.144354   -1.676073
     12          6           0       23.294768    4.198381    2.266000
     13          6           0       23.338441    5.700002    2.565329
     14          1           0       23.139838    6.680366    1.422250
     15          7           0       25.306021   -0.505611   -0.707592
     16          6           0       26.080912    0.647462   -0.808099
     17          6           0       27.485234    0.222182   -1.087694
     18          6           0       27.464858   -1.214145   -1.346675
     19          6           0       26.019446   -1.527157   -1.190989
     20          6           0       28.639249    1.195043   -1.142631
     21          6           0       28.642582   -2.247172   -1.663044
     22          8           0       28.472080   -3.464815   -1.786167
     23          6           0       30.034214   -1.664098   -1.793415
     24          7           0       23.220065   -2.583271   -0.498276
     25          6           0       24.203326   -3.317279   -1.012253
     26          6           0       23.771099   -4.787213   -1.305140
     27          6           0       22.450881   -4.839051   -0.522916
     28          6           0       22.196879   -3.423184   -0.110497
     29          6           0       23.640260   -5.137245   -2.813798
     30          6           0       22.284831   -5.944497    0.612534
     31          6           0       22.405908   -5.496830    2.032102
     32          7           0       21.348429   -0.668665    0.387131
     33          6           0       20.532120   -1.724806    0.615422
     34          6           0       19.222393   -1.344418    1.008940
     35          6           0       19.366954    0.065203    1.204315
     36          6           0       20.654641    0.357814    0.816806
     37          6           0       17.931723   -2.092616    1.220100
     38          6           0       18.745838    1.289131    1.614948
     39          8           0       17.627196    1.538450    2.009619
     40          6           0       19.825146    2.416118    1.684675
     41          6           0       19.345236    3.600712    0.966660
     42          8           0       19.087615    3.583203   -0.227368
     43          8           0       19.037986    4.698136    1.811074
     44          6           0       18.441189    5.871326    1.153600
     45          1           0       26.233793    2.765276   -0.919478
     46          1           0       26.174869   -3.579692   -1.753892
     47          1           0       20.238815   -3.856410    0.512036
     48          1           0       21.941026    4.498305    0.653161
     49          1           0       24.609494    4.427012   -0.271632
     50          1           0       23.427463    5.100481   -1.946299
     51          1           0       21.902912    4.255326   -1.528576
     52          1           0       23.296302    3.408947   -2.414624
     53          1           0       24.302891    3.812638    2.420244
     54          1           0       22.547119    3.774287    2.936680
     55          1           0       24.301063    5.893619    3.037586
     56          1           0       22.581401    5.889906    3.325808
     57          1           0       28.501831    2.016488   -0.438535
     58          1           0       28.875640    1.631444   -2.112539
     59          1           0       29.535863    0.682334   -0.794648
     60          1           0       29.903945   -0.859779   -2.517046
     61          1           0       30.773683   -2.343479   -2.216367
     62          1           0       30.396332   -1.350308   -0.814244
     63          1           0       24.488204   -5.500499   -0.899126
     64          1           0       21.674890   -4.960526   -1.277799
     65          1           0       22.722837   -5.721550   -2.888740
     66          1           0       24.470597   -5.673574   -3.270516
     67          1           0       23.598631   -4.200087   -3.368933
     68          1           0       22.950921   -6.775886    0.381556
     69          1           0       21.263638   -6.324087    0.586883
     70          1           0       21.419986   -5.592252    2.487638
     71          1           0       22.571295   -4.430104    2.188193
     72          1           0       23.085227   -6.095026    2.639479
     73          1           0       18.009911   -3.143903    0.940770
     74          1           0       17.124833   -1.552200    0.724294
     75          1           0       17.608004   -2.222205    2.253046
     76          1           0       20.045376    2.702666    2.712677
     77          1           0       18.372209    6.763202    1.775929
     78          1           0       17.446952    5.518246    0.878518
     79          1           0       19.017136    6.012141    0.239721
     80         12           0      -23.127299   -0.769147    0.131077
     81          6           0      -22.589933    2.517827   -1.253428
     82          6           0      -22.616288    0.674906    3.285582
     83          6           0      -23.731105   -3.727546    1.420723
     84          6           0      -23.294238   -2.058956   -3.113866
     85          7           0      -22.623196    1.413044    0.879956
     86          6           0      -22.669927    2.574851    0.176202
     87          6           0      -22.707730    3.791137    1.087062
     88          6           0      -22.358139    3.189202    2.560354
     89          6           0      -22.512515    1.675288    2.235439
     90          6           0      -20.995147    3.638101    3.144250
     91          6           0      -24.078519    4.546372    1.031040
     92          6           0      -23.958244    6.042803    0.642579
     93          1           0      -24.429507    7.069996    1.825493
     94          7           0      -23.172602   -1.411015    2.024539
     95          6           0      -22.909965   -0.714425    3.252522
     96          6           0      -23.053034   -1.567786    4.455779
     97          6           0      -23.433280   -2.821662    3.874638
     98          6           0      -23.458964   -2.684823    2.408691
     99          6           0      -22.806914   -1.106896    5.893826
    100          6           0      -23.670276   -4.116772    4.553426
    101          8           0      -24.214381   -5.095841    4.054296
    102          6           0      -23.335219   -4.215285    6.054673
    103          7           0      -23.624917   -2.546542   -0.725244
    104          6           0      -23.802996   -3.660535    0.020972
    105          6           0      -23.856435   -4.916919   -0.803024
    106          6           0      -23.767436   -4.419915   -2.266949
    107          6           0      -23.606144   -2.896786   -2.061663
    108          6           0      -22.850832   -5.977835   -0.407608
    109          6           0      -25.151293   -4.761686   -3.078859
    110          6           0      -24.968252   -5.583874   -4.467661
    111          7           0      -22.712916   -0.015591   -1.813561
    112          6           0      -22.915571   -0.683113   -3.045467
    113          6           0      -22.715489    0.295459   -4.120411
    114          6           0      -22.730023    1.539792   -3.436958
    115          6           0      -22.607609    1.290948   -2.069089
    116          6           0      -22.595831    0.085162   -5.626827
    117          6           0      -22.509910    2.992824   -3.683977
    118          8           0      -22.309183    3.711754   -4.701961
    119          6           0      -22.543319    3.657100   -2.253413
    120          6           0      -21.316946    4.506800   -2.095747
    121          8           0      -20.213636    4.167125   -2.417799
    122          8           0      -21.675392    5.747876   -1.647759
    123          6           0      -20.581078    6.741304   -1.789643
    124          1           0      -22.317583    1.142963    4.225657
    125          1           0      -23.936425   -4.736092    1.786408
    126          1           0      -23.380104   -2.432272   -4.136235
    127          1           0      -21.874600    4.422457    0.778037
    128          1           0      -23.132083    3.409908    3.295964
    129          1           0      -20.314899    2.791093    3.238075
    130          1           0      -21.134671    4.111312    4.117080
    131          1           0      -20.481998    4.430715    2.599641
    132          1           0      -24.592150    4.522246    1.992484
    133          1           0      -24.750607    4.105161    0.294534
    134          1           0      -24.665640    6.342334   -0.131147
    135          1           0      -22.991599    6.341666    0.238361
    136          1           0      -22.804806   -0.031907    6.076840
    137          1           0      -21.915709   -1.514198    6.371173
    138          1           0      -23.646813   -1.508921    6.461331
    139          1           0      -22.271550   -4.042378    6.218194
    140          1           0      -23.651922   -5.164094    6.489071
    141          1           0      -23.896227   -3.436941    6.571901
    142          1           0      -24.805659   -5.412761   -0.595551
    143          1           0      -22.883350   -4.815512   -2.766077
    144          1           0      -23.298321   -6.834722    0.096725
    145          1           0      -22.102174   -5.658256    0.317201
    146          1           0      -22.321174   -6.288098   -1.308569
    147          1           0      -25.740319   -3.882955   -3.339471
    148          1           0      -25.838967   -5.370604   -2.492575
    149          1           0      -23.995484   -6.069878   -4.390124
    150          1           0      -25.014762   -4.927403   -5.337535
    151          1           0      -25.664230   -6.420115   -4.528793
    152          1           0      -22.992756    0.927610   -6.192913
    153          1           0      -23.269547   -0.729829   -5.893946
    154          1           0      -21.557464   -0.220227   -5.756596
    155          1           0      -23.381556    4.353069   -2.274483
    156          1           0      -19.703741    6.330133   -1.290692
    157          1           0      -20.921857    7.579273   -1.181746
    158          1           0      -20.249481    7.029972   -2.787009
 ---------------------------------------------------------------------

 SCF Done:  E(RCAM-B3LYP) =  -4069.81203869     A.U. after   18 cycles

 Excitation energies and oscillator strengths:

 Excited State   1:      Singlet-A      1.6722 eV  741.45 nm  f=0.3710  <S**2>=0.000
     310 -> 315        0.18802
     312 -> 313        0.68427
     310 <- 315        0.11183
 This state for optimization and/or second-order correction.
 Total Energy, E(TD-HF/TD-DFT) =  -4069.75058729
 Copying the excited state density for this state as the 1-particle RhoCI density.

 Excited State   2:      Singlet-A      1.7356 eV  714.38 nm  f=0.3935  <S**2>=0.000
     309 -> 316        0.17783
     311 -> 314        0.68648
     309 <- 316        0.10692

 Excited State   3:      Singlet-A      2.1741 eV  570.29 nm  f=0.1332  <S**2>=0.000
     310 -> 313        0.64729
     312 -> 315       -0.27760

 Excited State   4:      Singlet-A      2.2152 eV  559.70 nm  f=0.1508  <S**2>=0.000
     309 -> 314        0.65494
     311 -> 316       -0.25752

 Excited State   5:      Singlet-A      3.1815 eV  389.70 nm  f=0.0000  <S**2>=0.000
     311 -> 313        0.70710

 The electronic state is 1-A.
 Alpha  occ. eigenvalues --  -46.88502 -46.87766 -19.25615 -19.23915 -19.20480
 Alpha  occ. eigenvalues --  -19.19714 -19.19489 -19.18924 -19.18656 -19.17904
 Alpha  occ. eigenvalues --  -14.42578 -14.42015 -14.41906 -14.41461 -14.40687
 Alpha  occ. eigenvalues --  -14.40112 -14.39221 -14.38635 -10.38875 -10.38788
 Alpha  occ. eigenvalues --  -10.37238 -10.35112 -10.35095 -10.34108 -10.31893
 Alpha  occ. eigenvalues --  -10.31799 -10.31548 -10.31459 -10.31332 -10.31260
 Alpha  occ. eigenvalues --  -10.31140 -10.31066 -10.31000 -10.30838 -10.30770
 Alpha  occ. eigenvalues --  -10.30639 -10.30594 -10.30458 -10.30310 -10.29950
 Alpha  occ. eigenvalues --  -10.29853 -10.29070 -10.29017 -10.29010 -10.28965
 Alpha  occ. eigenvalues --  -10.28878 -10.28823 -10.28673 -10.28599 -10.28501
 Alpha  occ. eigenvalues --  -10.28423 -10.28210 -10.28121 -10.28098 -10.28054
 Alpha  occ. eigenvalues --  -10.27959 -10.27952 -10.27932 -10.27801 -10.27631
 Alpha  occ. eigenvalues --  -10.27593 -10.27551 -10.27300 -10.27295 -10.27244
 Alpha  occ. eigenvalues --  -10.27212 -10.27165 -10.27116 -10.27065 -10.26764
 Alpha  occ. eigenvalues --  -10.26728 -10.26563 -10.26333 -10.26096 -10.26082
 Alpha  occ. eigenvalues --  -10.26027 -10.25896 -10.25888 -10.25765 -10.25744
 Alpha  occ. eigenvalues --  -10.25672 -10.25581 -10.25462 -10.25159 -10.24525
 Alpha  occ. eigenvalues --  -10.24185  -3.17145  -3.16531  -1.92042  -1.91599
 Alpha  occ. eigenvalues --   -1.91466  -1.91443  -1.90951  -1.90879  -1.16931
 Alpha  occ. eigenvalues --   -1.14500  -1.10486  -1.09940  -1.09577  -1.08654
 Alpha  occ. eigenvalues --   -1.07035  -1.06745  -1.05586  -1.04729  -1.04150
 Alpha  occ. eigenvalues --   -1.03970  -1.03238  -1.03164  -1.02554  -1.01986
 Alpha  occ. eigenvalues --   -0.92133  -0.91546  -0.89210  -0.88612  -0.88583
 Alpha  occ. eigenvalues --   -0.88468  -0.88287  -0.88098  -0.87384  -0.87298
 Alpha  occ. eigenvalues --   -0.87122  -0.86965  -0.86263  -0.85607  -0.84336
 Alpha  occ. eigenvalues --   -0.83992  -0.83667  -0.83142  -0.82764  -0.82568
 Alpha  occ. eigenvalues --   -0.81788  -0.81365  -0.80956  -0.80645  -0.80072
 Alpha  occ. eigenvalues --   -0.79731  -0.79066  -0.78589  -0.77245  -0.77069
 Alpha  occ. eigenvalues --   -0.76756  -0.76665  -0.76005  -0.75861  -0.75198
 Alpha  occ. eigenvalues --   -0.75073  -0.72820  -0.72527  -0.71389  -0.71179
 Alpha  occ. eigenvalues --   -0.69254  -0.69147  -0.68754  -0.68719  -0.67934
 Alpha  occ. eigenvalues --   -0.67565  -0.67061  -0.66619  -0.65892  -0.65605
 Alpha  occ. eigenvalues --   -0.65056  -0.64667  -0.64357  -0.64193  -0.64005
 Alpha  occ. eigenvalues --   -0.63967  -0.62337  -0.61252  -0.60772  -0.60638
 Alpha  occ. eigenvalues --   -0.59590  -0.59233  -0.59131  -0.58708  -0.58318
 Alpha  occ. eigenvalues --   -0.58019  -0.57982  -0.57928  -0.57622  -0.57108
 Alpha  occ. eigenvalues --   -0.56109  -0.55803  -0.55674  -0.55442  -0.55246
 Alpha  occ. eigenvalues --   -0.55032  -0.54790  -0.54468  -0.53993  -0.53749
 Alpha  occ. eigenvalues --   -0.53690  -0.53364  -0.53361  -0.52998  -0.52662
 Alpha  occ. eigenvalues --   -0.52638  -0.52533  -0.52338  -0.52138  -0.52126
 Alpha  occ. eigenvalues --   -0.51800  -0.51624  -0.51424  -0.51346  -0.51212
 Alpha  occ. eigenvalues --   -0.50818  -0.50727  -0.50696  -0.50431  -0.50348
 Alpha  occ. eigenvalues --   -0.50035  -0.49939  -0.49892  -0.49772  -0.49506
 Alpha  occ. eigenvalues --   -0.49398  -0.49236  -0.49180  -0.49009  -0.48810
 Alpha  occ. eigenvalues --   -0.48755  -0.48547  -0.48500  -0.48215  -0.48084
 Alpha  occ. eigenvalues --   -0.47977  -0.47758  -0.47535  -0.47438  -0.47380
 Alpha  occ. eigenvalues --   -0.47017  -0.46879  -0.46812  -0.46538  -0.46457
 Alpha  occ. eigenvalues --   -0.46292  -0.46172  -0.46024  -0.45916  -0.45788
 Alpha  occ. eigenvalues --   -0.45574  -0.45544  -0.44957  -0.44946  -0.44784
 Alpha  occ. eigenvalues --   -0.44745  -0.44646  -0.44346  -0.44327  -0.44069
 Alpha  occ. eigenvalues --   -0.44011  -0.43947  -0.43854  -0.43758  -0.43446
 Alpha  occ. eigenvalues --   -0.43323  -0.43289  -0.43225  -0.42979  -0.42832
 Alpha  occ. eigenvalues --   -0.42578  -0.42480  -0.42187  -0.42069  -0.42006
 Alpha  occ. eigenvalues --   -0.41796  -0.41514  -0.41409  -0.41282  -0.41028
 Alpha  occ. eigenvalues --   -0.40973  -0.40764  -0.40667  -0.40527  -0.40405
 Alpha  occ. eigenvalues --   -0.40219  -0.40150  -0.39976  -0.39350  -0.39187
 Alpha  occ. eigenvalues --   -0.38569  -0.38203  -0.38195  -0.38058  -0.37568
 Alpha  occ. eigenvalues --   -0.37460  -0.37310  -0.36624  -0.36349  -0.36151
 Alpha  occ. eigenvalues --   -0.35626  -0.35473  -0.34609  -0.34440  -0.34390
 Alpha  occ. eigenvalues --   -0.33938  -0.33253  -0.32989  -0.32195  -0.31604
 Alpha  occ. eigenvalues --   -0.31154  -0.30963  -0.30567  -0.30507  -0.30242
 Alpha  occ. eigenvalues --   -0.30183  -0.29561  -0.29355  -0.23897  -0.23877
 Alpha  occ. eigenvalues --   -0.21393  -0.21276
 Alpha virt. eigenvalues --   -0.08951  -0.08836  -0.01805  -0.01256  -0.00018
 Alpha virt. eigenvalues --    0.00160   0.02085   0.02473   0.03503   0.03583
 Alpha virt. eigenvalues --    0.04256   0.04794   0.05246   0.05324   0.05729

 Mulliken charges:
               1
     1  Mg  12.000008
     2  C    5.999952
     3  C    5.999937
     4  C    6.000078
     5  C    6.000106
     6  N    7.000027
     7  C    6.000054
     8  C    5.999990
     9  C    6.000008
    10  C    5.999975
    11  C    6.000004
    12  C    5.999994
    13  C    6.000003
    14  H    0.999974
    15  N    6.999996
    16  C    5.999977
    17  C    5.999919
    18  C    6.000012
    19  C    5.999892
    20  C    6.000022
    21  C    5.999975
    22  O    7.999956
    23  C    6.000013
    24  N    6.999989
    25  C    5.999946
    26  C    6.000022
    27  C    5.999991
    28  C    5.999989
    29  C    5.999994
    30  C    6.000004
    31  C    5.999980
    32  N    7.000014
    33  C    5.999978
    34  C    6.000089
    35  C    5.999978
    36  C    6.000053
    37  C    5.999988
    38  C    6.000022
    39  O    8.000063
    40  C    6.000015
    41  C    6.000008
    42  O    7.999981
    43  O    8.000017
    44  C    6.000006
    45  H    0.999983
    46  H    0.999985
    47  H    1.000011
    48  H    0.999985
    49  H    1.000002
    50  H    0.999974
    51  H    0.999961
    52  H    0.999984
    53  H    1.000032
    54  H    1.000009
    55  H    1.000019
    56  H    1.000014
    57  H    0.999979
    58  H    0.999944
    59  H    0.999980
    60  H    0.999975
    61  H    0.999971
    62  H    0.999998
    63  H    1.000016
    64  H    0.999983
    65  H    0.999976
    66  H    0.999996
    67  H    0.999980
    68  H    1.000020
    69  H    1.000004
    70  H    1.000023
    71  H    0.999999
    72  H    1.000042
    73  H    1.000033
    74  H    1.000009
    75  H    1.000086
    76  H    1.000038
    77  H    1.000023
    78  H    0.999986
    79  H    0.999983
    80  Mg  12.004475
    81  C    5.971498
    82  C    6.006697
    83  C    6.034387
    84  C    5.988822
    85  N    6.982974
    86  C    6.036054
    87  C    5.989432
    88  C    6.012658
    89  C    5.968369
    90  C    6.002937
    91  C    5.998160
    92  C    5.997895
    93  H    1.007334
    94  N    7.006907
    95  C    5.960294
    96  C    5.975720
    97  C    5.985465
    98  C    5.967566
    99  C    6.004957
   100  C    5.988522
   101  O    7.968075
   102  C    6.004417
   103  N    7.007932
   104  C    5.959600
   105  C    6.010595
   106  C    5.987686
   107  C    6.031742
   108  C    6.000819
   109  C    5.994911
   110  C    5.999059
   111  N    6.995231
   112  C    6.046567
   113  C    6.030313
   114  C    6.004751
   115  C    6.033532
   116  C    6.000195
   117  C    6.009570
   118  O    8.031093
   119  C    6.004774
   120  C    6.006793
   121  O    8.000273
   122  O    8.001914
   123  C    5.997815
   124  H    0.986455
   125  H    0.998929
   126  H    1.012792
   127  H    0.997625
   128  H    0.998749
   129  H    1.000496
   130  H    0.996012
   131  H    0.985636
   132  H    1.009293
   133  H    0.994987
   134  H    0.996938
   135  H    0.998017
   136  H    0.983183
   137  H    0.979639
   138  H    0.983277
   139  H    0.992207
   140  H    0.984953
   141  H    0.994674
   142  H    1.001122
   143  H    1.003975
   144  H    1.002355
   145  H    1.005374
   146  H    0.989916
   147  H    0.998959
   148  H    1.012782
   149  H    1.004050
   150  H    0.997101
   151  H    1.006504
   152  H    1.015833
   153  H    1.017052
   154  H    1.017526
   155  H    1.004768
   156  H    1.004666
   157  H    1.005239
   158  H    1.000134
 Sum of Mulliken charges = 624.00000

 Dipole moment (field-independent basis, Debye):
    X=              0.1864    Y=              2.7332    Z=            -10.4640  Tot=             10.8166
 Quadrupole moment (field-independent basis, Debye-Ang):
   XX=            -10.0763   YY=             -1.2678   ZZ=             -4.4543
   XY=            -63.1698   XZ=            240.3343   YZ=              8.6320

 Normal termination of Gaussian 16 at Thu Sep 23 15:06:42 2021.
