 Gaussian 16, Revision A.03,
 Gaussian 16:  ES64L-G16RevA.03 25-Dec-2016

 -----------------------------------
 #p cam-b3lyp/Def2SVP td=(nstates=5)
 -----------------------------------

 --------------------------------
 TDDFT excited states in gaussian
 --------------------------------
 Symbolic Z-matrix:
 Charge =  0 Multiplicity = 1

                         Standard orientation:
 ---------------------------------------------------------------------
 Center     Atomic      Atomic             Coordinates (Angstroms)
 Number     Number       Type             X           Y           Z
 ---------------------------------------------------------------------
      1         12           0      -27.607219    0.126827   -0.252369
      2          6           0      -24.264897   -0.513033   -0.155087
      3          6           0      -28.118039   -3.107560    0.890893
      4          6           0      -30.866998    0.885427    0.014012
      5          6           0      -26.954219    3.548516   -0.753771
      6          7           0      -26.299611   -1.527219    0.551539
      7          6           0      -24.957498   -1.526022    0.424624
      8          6           0      -24.328591   -2.734828    1.015081
      9          6           0      -25.641878   -3.738571    0.998426
     10          6           0      -26.801900   -2.740584    0.798685
     11          6           0      -25.536847   -4.853838   -0.083305
     12          6           0      -23.849564   -2.427585    2.425009
     13          6           0      -24.886897   -1.845832    3.493297
     14          1           0      -24.852349   -2.322131    4.940136
     15          7           0      -29.259309   -0.943207    0.361729
     16          6           0      -29.293813   -2.326279    0.671888
     17          6           0      -30.665960   -2.698998    0.763779
     18          6           0      -31.487803   -1.594963    0.573976
     19          6           0      -30.586144   -0.473837    0.259861
     20          6           0      -30.991148   -4.149465    1.057362
     21          6           0      -32.988116   -1.525979    0.730596
     22          8           0      -33.550251   -2.600527    1.058572
     23          6           0      -33.776535   -0.339721    0.745477
     24          7           0      -28.709010    2.012977   -0.143993
     25          6           0      -30.071935    2.030981   -0.094848
     26          6           0      -30.616572    3.478058   -0.158412
     27          6           0      -29.318637    4.318084   -0.406823
     28          6           0      -28.241794    3.247229   -0.361230
     29          6           0      -31.692707    3.673298   -1.205012
     30          6           0      -29.146057    5.476199    0.714125
     31          6           0      -28.673816    6.822751    0.153975
     32          7           0      -25.936939    1.385010   -0.443820
     33          6           0      -25.803389    2.677911   -0.837788
     34          6           0      -24.419310    2.871181   -1.175200
     35          6           0      -23.713519    1.634307   -0.976465
     36          6           0      -24.693972    0.777503   -0.504187
     37          6           0      -23.768086    4.190224   -1.414575
     38          6           0      -22.468771    0.935495   -0.958913
     39          8           0      -21.388078    1.420667   -1.316780
     40          6           0      -22.786659   -0.465315   -0.469476
     41          6           0      -22.370630   -1.435190   -1.511616
     42          8           0      -21.214762   -1.442904   -1.886954
     43          8           0      -23.342528   -2.308106   -1.895036
     44          6           0      -22.936970   -3.285653   -2.906886
     45          1           0      -28.291392   -4.182068    0.978083
     46          1           0      -31.935572    1.058646   -0.128317
     47          1           0      -26.685373    4.552856   -1.088612
     48          1           0      -23.469268   -3.169870    0.504685
     49          1           0      -25.675840   -4.348600    1.902034
     50          1           0      -25.596952   -5.834829    0.386600
     51          1           0      -24.548558   -4.762166   -0.534622
     52          1           0      -26.273666   -4.782755   -0.884451
     53          1           0      -22.964980   -1.797585    2.329424
     54          1           0      -23.378122   -3.366904    2.713766
     55          1           0      -25.941097   -1.986985    3.254521
     56          1           0      -24.598792   -0.795499    3.525659
     57          1           0      -30.946601   -4.240927    2.142767
     58          1           0      -30.210308   -4.778684    0.632023
     59          1           0      -31.950776   -4.515103    0.690724
     60          1           0      -34.663626   -0.450492    1.369895
     61          1           0      -33.987294    0.057347   -0.248344
     62          1           0      -33.184092    0.375978    1.313850
     63          1           0      -30.997946    3.640506    0.850293
     64          1           0      -29.319924    4.691199   -1.430792
     65          1           0      -32.008721    2.752058   -1.693726
     66          1           0      -31.606085    4.445828   -1.968600
     67          1           0      -32.575059    3.875018   -0.596966
     68          1           0      -28.444450    5.220797    1.508309
     69          1           0      -30.062240    5.635326    1.282519
     70          1           0      -29.516914    7.512568    0.180499
     71          1           0      -28.437538    6.687353   -0.901674
     72          1           0      -27.837889    7.246205    0.710979
     73          1           0      -24.027601    4.721666   -2.329381
     74          1           0      -22.696950    3.986928   -1.385218
     75          1           0      -24.003477    4.911985   -0.632354
     76          1           0      -22.181446   -0.617260    0.424718
     77          1           0      -22.086813   -3.841121   -2.509880
     78          1           0      -22.728946   -2.841682   -3.880525
     79          1           0      -23.775853   -3.925361   -3.180629
     80         12           0       27.351780    0.649677   -0.384496
     81          6           0       25.688760   -2.446200   -0.395023
     82          6           0       24.367793    2.167342    0.399507
     83          6           0       29.108129    3.357066    0.344087
     84          6           0       30.409747   -1.071315   -0.936647
     85          7           0       25.354806   -0.089276    0.203504
     86          6           0       24.871561   -1.421000    0.125471
     87          6           0       23.400920   -1.498821    0.159853
     88          6           0       22.987403    0.027793    0.318782
     89          6           0       24.312751    0.771584    0.270727
     90          6           0       21.901962    0.458360   -0.697313
     91          6           0       22.840109   -2.238116    1.336229
     92          6           0       23.571121   -2.062481    2.675607
     93          1           0       22.784375   -2.025818    4.043407
     94          7           0       26.834561    2.557602    0.255599
     95          6           0       25.564164    2.984048    0.389378
     96          6           0       25.584999    4.401578    0.650407
     97          6           0       26.942029    4.800138    0.568749
     98          6           0       27.716389    3.567918    0.349548
     99          6           0       24.390487    5.257211    0.976443
    100          6           0       27.459726    6.232332    0.698435
    101          8           0       26.698637    7.158305    0.900384
    102          6           0       28.889162    6.686677    0.718798
    103          7           0       29.448159    1.026204   -0.055146
    104          6           0       29.939961    2.279401    0.195821
    105          6           0       31.487171    2.342159   -0.024853
    106          6           0       31.862328    0.832641   -0.126090
    107          6           0       30.507162    0.221388   -0.407334
    108          6           0       31.948890    3.107998   -1.288189
    109          6           0       32.344472    0.134870    1.232240
    110          6           0       33.560568   -0.715280    1.154773
    111          7           0       27.957133   -1.251661   -0.714802
    112          6           0       29.149782   -1.729010   -1.095518
    113          6           0       28.986947   -3.098621   -1.714007
    114          6           0       27.599470   -3.363931   -1.483867
    115          6           0       27.056224   -2.274563   -0.745738
    116          6           0       30.008541   -4.015259   -2.371565
    117          6           0       26.618395   -4.407085   -1.567721
    118          8           0       26.706787   -5.549696   -1.988639
    119          6           0       25.317683   -3.824451   -0.881157
    120          6           0       25.080563   -4.637469    0.374588
    121          8           0       25.738715   -4.656293    1.361741
    122          8           0       23.876739   -5.294234    0.232489
    123          6           0       23.379469   -5.889083    1.477158
    124          1           0       23.394853    2.660159    0.450458
    125          1           0       29.692454    4.276585    0.406770
    126          1           0       31.368938   -1.499851   -1.234539
    127          1           0       23.075144   -1.984232   -0.760112
    128          1           0       22.657746    0.333431    1.311711
    129          1           0       21.201840    0.964914   -0.032746
    130          1           0       21.509205   -0.453472   -1.147350
    131          1           0       22.262959    1.185184   -1.425259
    132          1           0       22.605808   -3.283024    1.131104
    133          1           0       21.827052   -1.948417    1.616186
    134          1           0       24.149092   -1.145237    2.557867
    135          1           0       24.288701   -2.882726    2.649378
    136          1           0       24.594987    5.906998    1.828005
    137          1           0       23.512783    4.627271    1.120542
    138          1           0       24.253732    5.868124    0.083830
    139          1           0       29.474076    6.355651    1.576331
    140          1           0       28.763812    7.755469    0.892855
    141          1           0       29.368490    6.640914   -0.259667
    142          1           0       31.924700    2.837448    0.841862
    143          1           0       32.558881    0.612447   -0.935471
    144          1           0       32.379100    2.392263   -1.988489
    145          1           0       32.511157    4.006442   -1.034245
    146          1           0       31.068637    3.511453   -1.787388
    147          1           0       31.535615   -0.436276    1.687336
    148          1           0       32.543360    0.975730    1.896913
    149          1           0       34.340063   -0.408952    1.852069
    150          1           0       33.988421   -0.773369    0.153673
    151          1           0       33.350517   -1.747375    1.434109
    152          1           0       29.999300   -4.943949   -1.800970
    153          1           0       30.940720   -3.457379   -2.468699
    154          1           0       29.584204   -4.272021   -3.342105
    155          1           0       24.454107   -3.845615   -1.545528
    156          1           0       23.693742   -5.342560    2.366234
    157          1           0       23.815800   -6.887968    1.470646
    158          1           0       22.311824   -6.043625    1.323476
 ---------------------------------------------------------------------

 SCF Done:  E(RCAM-B3LYP) =  -4069.79962779     A.U. after   17 cycles

 Excitation energies and oscillator strengths:

 Excited State   1:      Singlet-A      1.6651 eV  744.61 nm  f=0.3737  <S**2>=0.000
     310 -> 316        0.17251
     312 -> 314        0.68783
     310 <- 316        0.10780
 This state for optimization and/or second-order correction.
 Total Energy, E(TD-HF/TD-DFT) =  -4069.73843690
 Copying the excited state density for this state as the 1-particle RhoCI density.

 Excited State   2:      Singlet-A      1.7418 eV  711.81 nm  f=0.3933  <S**2>=0.000
     309 -> 315        0.17693
     311 -> 313        0.68527
     309 <- 315        0.10391

 Excited State   3:      Singlet-A      2.2176 eV  559.10 nm  f=0.1296  <S**2>=0.000
     309 -> 313        0.65047
     311 -> 315       -0.25334

 Excited State   4:      Singlet-A      2.2662 eV  547.11 nm  f=0.1011  <S**2>=0.000
     310 -> 314        0.62925
     312 -> 316       -0.31013

 Excited State   5:      Singlet-A      3.0618 eV  404.95 nm  f=0.0000  <S**2>=0.000
     312 -> 313        0.70710

 The electronic state is 1-A.
 Alpha  occ. eigenvalues --  -46.89121 -46.88564 -19.26406 -19.24587 -19.20411
 Alpha  occ. eigenvalues --  -19.19491 -19.19107 -19.18291 -19.18232 -19.18174
 Alpha  occ. eigenvalues --  -14.42358 -14.42092 -14.42073 -14.41869 -14.39802
 Alpha  occ. eigenvalues --  -14.39578 -14.39517 -14.38618 -10.39480 -10.39228
 Alpha  occ. eigenvalues --  -10.34976 -10.34848 -10.34588 -10.34461 -10.32756
 Alpha  occ. eigenvalues --  -10.31691 -10.31419 -10.31230 -10.31199 -10.31192
 Alpha  occ. eigenvalues --  -10.30930 -10.30800 -10.30641 -10.30566 -10.30532
 Alpha  occ. eigenvalues --  -10.30452 -10.30400 -10.30224 -10.29932 -10.29300
 Alpha  occ. eigenvalues --  -10.29213 -10.29058 -10.28698 -10.28573 -10.28501
 Alpha  occ. eigenvalues --  -10.28489 -10.28470 -10.28387 -10.28354 -10.28317
 Alpha  occ. eigenvalues --  -10.28291 -10.28270 -10.28220 -10.28106 -10.28034
 Alpha  occ. eigenvalues --  -10.28032 -10.27802 -10.27744 -10.27727 -10.27418
 Alpha  occ. eigenvalues --  -10.27411 -10.27372 -10.27305 -10.27242 -10.27187
 Alpha  occ. eigenvalues --  -10.27024 -10.27007 -10.26784 -10.26734 -10.26605
 Alpha  occ. eigenvalues --  -10.26557 -10.26547 -10.26491 -10.26479 -10.26468
 Alpha  occ. eigenvalues --  -10.26376 -10.26353 -10.25984 -10.25629 -10.25566
 Alpha  occ. eigenvalues --  -10.25494 -10.25474 -10.25356 -10.25112 -10.24984
 Alpha  occ. eigenvalues --  -10.24564  -3.17573  -3.17209  -1.92450  -1.92070
 Alpha  occ. eigenvalues --   -1.92049  -1.91856  -1.91669  -1.91527  -1.17430
 Alpha  occ. eigenvalues --   -1.17249  -1.10393  -1.09934  -1.09066  -1.08944
 Alpha  occ. eigenvalues --   -1.08410  -1.08006  -1.04997  -1.04567  -1.04555
 Alpha  occ. eigenvalues --   -1.03977  -1.03321  -1.02744  -1.02611  -1.01528
 Alpha  occ. eigenvalues --   -0.94084  -0.93167  -0.89850  -0.89415  -0.89295
 Alpha  occ. eigenvalues --   -0.89058  -0.88763  -0.88371  -0.87804  -0.87509
 Alpha  occ. eigenvalues --   -0.86339  -0.86319  -0.85859  -0.85789  -0.85113
 Alpha  occ. eigenvalues --   -0.84729  -0.84154  -0.84142  -0.83365  -0.82817
 Alpha  occ. eigenvalues --   -0.82697  -0.81675  -0.81472  -0.80913  -0.80860
 Alpha  occ. eigenvalues --   -0.80498  -0.78638  -0.78006  -0.77932  -0.77491
 Alpha  occ. eigenvalues --   -0.77073  -0.76831  -0.76177  -0.76030  -0.75119
 Alpha  occ. eigenvalues --   -0.74971  -0.72688  -0.72527  -0.72138  -0.71675
 Alpha  occ. eigenvalues --   -0.70162  -0.69614  -0.69136  -0.68858  -0.68794
 Alpha  occ. eigenvalues --   -0.68670  -0.67143  -0.67070  -0.66574  -0.65851
 Alpha  occ. eigenvalues --   -0.65351  -0.65230  -0.65064  -0.64522  -0.64405
 Alpha  occ. eigenvalues --   -0.64363  -0.63840  -0.62084  -0.60256  -0.59990
 Alpha  occ. eigenvalues --   -0.59748  -0.59400  -0.59353  -0.59050  -0.58926
 Alpha  occ. eigenvalues --   -0.58841  -0.58400  -0.58121  -0.58036  -0.57365
 Alpha  occ. eigenvalues --   -0.56857  -0.56600  -0.56545  -0.56088  -0.55819
 Alpha  occ. eigenvalues --   -0.55402  -0.55173  -0.55084  -0.54589  -0.54534
 Alpha  occ. eigenvalues --   -0.54266  -0.54058  -0.53769  -0.53497  -0.53088
 Alpha  occ. eigenvalues --   -0.53026  -0.52838  -0.52499  -0.52358  -0.52267
 Alpha  occ. eigenvalues --   -0.52111  -0.51902  -0.51839  -0.51603  -0.51447
 Alpha  occ. eigenvalues --   -0.51406  -0.51146  -0.51094  -0.50933  -0.50913
 Alpha  occ. eigenvalues --   -0.50345  -0.50117  -0.49613  -0.49589  -0.49484
 Alpha  occ. eigenvalues --   -0.49388  -0.49236  -0.49131  -0.48921  -0.48767
 Alpha  occ. eigenvalues --   -0.48752  -0.48699  -0.48583  -0.48490  -0.48348
 Alpha  occ. eigenvalues --   -0.48173  -0.47642  -0.47539  -0.47181  -0.47110
 Alpha  occ. eigenvalues --   -0.47090  -0.46888  -0.46765  -0.46738  -0.46442
 Alpha  occ. eigenvalues --   -0.46420  -0.46362  -0.46066  -0.45988  -0.45865
 Alpha  occ. eigenvalues --   -0.45750  -0.45655  -0.45487  -0.45246  -0.45212
 Alpha  occ. eigenvalues --   -0.44872  -0.44671  -0.44660  -0.44634  -0.44554
 Alpha  occ. eigenvalues --   -0.44357  -0.44033  -0.43887  -0.43746  -0.43584
 Alpha  occ. eigenvalues --   -0.43562  -0.43215  -0.42826  -0.42788  -0.42506
 Alpha  occ. eigenvalues --   -0.42453  -0.42365  -0.42318  -0.42259  -0.42183
 Alpha  occ. eigenvalues --   -0.42110  -0.41918  -0.41886  -0.41797  -0.41287
 Alpha  occ. eigenvalues --   -0.41165  -0.41103  -0.40973  -0.40757  -0.40494
 Alpha  occ. eigenvalues --   -0.40383  -0.39808  -0.39540  -0.39207  -0.39139
 Alpha  occ. eigenvalues --   -0.38693  -0.38438  -0.37863  -0.37843  -0.37707
 Alpha  occ. eigenvalues --   -0.37532  -0.37316  -0.37021  -0.36902  -0.36426
 Alpha  occ. eigenvalues --   -0.35981  -0.35748  -0.35088  -0.34708  -0.34212
 Alpha  occ. eigenvalues --   -0.34006  -0.33118  -0.33009  -0.31792  -0.31362
 Alpha  occ. eigenvalues --   -0.31085  -0.30891  -0.30521  -0.30456  -0.30113
 Alpha  occ. eigenvalues --   -0.29887  -0.29638  -0.29000  -0.24310  -0.24293
 Alpha  occ. eigenvalues --   -0.21679  -0.21031
 Alpha virt. eigenvalues --   -0.09153  -0.08764  -0.01895  -0.01772   0.00137
 Alpha virt. eigenvalues --    0.00233   0.01331   0.01398   0.02002   0.02540
 Alpha virt. eigenvalues --    0.04975   0.05070   0.05446   0.05498   0.05907

 Mulliken charges:
               1
     1  Mg   0.798083
     2  C    0.011995
     3  C   -0.057734
     4  C   -0.074861
     5  C   -0.069383
     6  N   -0.239869
     7  C   -0.031566
     8  C   -0.030165
     9  C   -0.077662
    10  C    0.066852
    11  C    0.065553
    12  C    0.047137
    13  C   -0.074959
    14  H    0.019474
    15  N   -0.433548
    16  C    0.129023
    17  C   -0.132428
    18  C   -0.006636
    19  C    0.148018
    20  C    0.133183
    21  C   -0.016212
    22  O   -0.242233
    23  C    0.084004
    24  N   -0.253721
    25  C    0.012192
    26  C   -0.005329
    27  C   -0.034240
    28  C    0.078914
    29  C    0.065241
    30  C    0.032747
    31  C   -0.000109
    32  N   -0.354092
    33  C    0.076917
    34  C   -0.160974
    35  C    0.052230
    36  C    0.082295
    37  C    0.092184
    38  C   -0.004222
    39  O   -0.166202
    40  C   -0.005008
    41  C    0.184391
    42  O   -0.197411
    43  O   -0.322803
    44  C    0.181845
    45  H   -0.028835
    46  H   -0.058546
    47  H   -0.033100
    48  H   -0.003187
    49  H    0.010751
    50  H    0.015788
    51  H    0.005773
    52  H    0.017974
    53  H    0.000148
    54  H    0.007553
    55  H    0.057198
    56  H    0.043833
    57  H    0.028984
    58  H    0.009138
    59  H    0.039465
    60  H    0.033976
    61  H    0.054623
    62  H    0.027248
    63  H    0.023323
    64  H    0.016281
    65  H    0.015921
    66  H    0.029072
    67  H    0.005122
    68  H    0.011789
    69  H    0.004205
    70  H    0.012596
    71  H    0.012481
    72  H    0.025005
    73  H    0.015367
    74  H    0.034396
    75  H    0.015786
    76  H    0.059731
    77  H    0.045667
    78  H    0.040606
    79  H    0.032959
    80  Mg   0.832768
    81  C   -0.065589
    82  C   -0.081991
    83  C   -0.051841
    84  C   -0.084159
    85  N   -0.298309
    86  C   -0.025783
    87  C    0.018473
    88  C   -0.084338
    89  C    0.035857
    90  C    0.085087
    91  C    0.008036
    92  C   -0.055351
    93  H    0.025500
    94  N   -0.351559
    95  C    0.137584
    96  C   -0.183556
    97  C   -0.001199
    98  C    0.138267
    99  C    0.160171
   100  C   -0.032209
   101  O   -0.207982
   102  C    0.057951
   103  N   -0.289633
   104  C    0.015889
   105  C   -0.027192
   106  C   -0.062462
   107  C    0.016106
   108  C    0.089647
   109  C    0.056730
   110  C    0.010158
   111  N   -0.344931
   112  C    0.137344
   113  C   -0.195347
   114  C   -0.004430
   115  C    0.133860
   116  C    0.146230
   117  C    0.051142
   118  O   -0.169732
   119  C    0.007109
   120  C    0.187066
   121  O   -0.181059
   122  O   -0.345665
   123  C    0.175653
   124  H   -0.026701
   125  H   -0.055802
   126  H   -0.024822
   127  H    0.014650
   128  H    0.028501
   129  H    0.016120
   130  H    0.023454
   131  H    0.024308
   132  H   -0.006924
   133  H   -0.001108
   134  H    0.031140
   135  H    0.037547
   136  H    0.042145
   137  H   -0.001133
   138  H    0.032091
   139  H    0.043725
   140  H    0.018235
   141  H    0.031560
   142  H    0.006917
   143  H    0.007263
   144  H    0.018872
   145  H    0.023702
   146  H    0.006589
   147  H    0.033383
   148  H   -0.000405
   149  H    0.016098
   150  H    0.005057
   151  H    0.013759
   152  H    0.046457
   153  H    0.016159
   154  H    0.034353
   155  H    0.034151
   156  H    0.056367
   157  H    0.035414
   158  H    0.036565
 Sum of Mulliken charges =  -0.00000

 Dipole moment (field-independent basis, Debye):
    X=             -3.4291    Y=              1.5472    Z=             -2.0013  Tot=              4.2611
 Quadrupole moment (field-independent basis, Debye-Ang):
   XX=           -221.8912   YY=           -531.0270   ZZ=           -513.6308
   XY=              1.6341   XZ=             -1.1407   YZ=             -5.1208

 Normal termination of Gaussian 16 at Wed Sep 15 16:47:38 2021.
