 Gaussian 16, Revision A.03,
 Gaussian 16:  ES64L-G16RevA.03 25-Dec-2016

 ----------------------------------------------------------
 #p cam-b3lyp/Def2SVP td=(nstates=5) density=(transition=1)
 ----------------------------------------------------------

 --------------------------------
 TDDFT excited states in gaussian
 --------------------------------
 Symbolic Z-matrix:
 Charge =  0 Multiplicity = 1

                         Standard orientation:
 ---------------------------------------------------------------------
 Center     Atomic      Atomic             Coordinates (Angstroms)
 Number     Number       Type             X           Y           Z
 ---------------------------------------------------------------------
      1         12           0       20.018025   -0.671474    0.447909
      2          6           0       19.236062    2.003340   -1.723216
      3          6           0       21.081541    1.457693    2.730457
      4          6           0       21.526719   -3.307596    2.012368
      5          6           0       19.794939   -2.839387   -2.539662
      6          7           0       20.178742    1.499752    0.429671
      7          6           0       19.594517    2.365764   -0.423553
      8          6           0       19.575253    3.768385    0.215084
      9          6           0       20.120644    3.591833    1.595924
     10          6           0       20.538628    2.090267    1.611629
     11          6           0       21.201801    4.684122    1.977086
     12          6           0       18.244315    4.591138    0.169884
     13          6           0       17.795833    5.552772    1.352311
     14          1           0       17.251605    6.944368    0.997778
     15          7           0       20.932980   -0.900483    2.267652
     16          6           0       21.287733    0.144674    3.090367
     17          6           0       21.859243   -0.414302    4.282431
     18          6           0       22.057404   -1.840426    4.116952
     19          6           0       21.549547   -2.060410    2.744799
     20          6           0       22.281988    0.512140    5.349548
     21          6           0       22.582982   -2.910805    5.105129
     22          8           0       22.710394   -4.037128    4.753473
     23          6           0       22.695741   -2.602741    6.562709
     24          7           0       20.621377   -2.766546   -0.232782
     25          6           0       21.098174   -3.613636    0.706855
     26          6           0       21.297885   -5.058519    0.147472
     27          6           0       20.714041   -4.942309   -1.293752
     28          6           0       20.358161   -3.439317   -1.408508
     29          6           0       22.714668   -5.567985    0.149162
     30          6           0       19.482064   -5.838634   -1.667686
     31          6           0       18.124692   -5.446890   -1.190028
     32          7           0       19.602850   -0.582094   -1.698411
     33          6           0       19.505757   -1.515923   -2.689882
     34          6           0       19.009122   -0.888024   -3.889948
     35          6           0       18.878591    0.495487   -3.599157
     36          6           0       19.299393    0.631871   -2.260671
     37          6           0       18.848381   -1.497020   -5.238080
     38          6           0       18.543047    1.790286   -4.119069
     39          8           0       18.122498    2.179426   -5.202572
     40          6           0       18.710625    2.822700   -2.915574
     41          6           0       19.529927    4.045567   -3.292215
     42          8           0       20.697036    4.007463   -3.585379
     43          8           0       18.733268    5.175360   -3.195418
     44          6           0       19.427666    6.406222   -3.575084
     45          1           0       21.265176    2.074981    3.612763
     46          1           0       21.977873   -4.110807    2.598226
     47          1           0       19.625944   -3.494753   -3.396517
     48          1           0       20.256375    4.262354   -0.477873
     49          1           0       19.307084    3.786890    2.295160
     50          1           0       21.238116    5.444309    1.196938
     51          1           0       22.129041    4.161066    2.210889
     52          1           0       20.883964    5.270912    2.839120
     53          1           0       17.437284    3.867273    0.054019
     54          1           0       18.177324    5.205720   -0.728218
     55          1           0       18.687771    5.649431    1.971669
     56          1           0       17.043898    5.044099    1.955710
     57          1           0       23.189146    0.078033    5.769323
     58          1           0       21.512787    0.481559    6.120323
     59          1           0       22.477005    1.566943    5.155294
     60          1           0       23.724565   -2.254639    6.644806
     61          1           0       22.406398   -3.484168    7.135771
     62          1           0       22.100954   -1.755142    6.903871
     63          1           0       20.642492   -5.778112    0.638543
     64          1           0       21.375368   -5.048295   -2.153131
     65          1           0       23.371686   -4.917961    0.728458
     66          1           0       23.144562   -5.595195   -0.852463
     67          1           0       22.666575   -6.559922    0.597752
     68          1           0       19.650843   -6.856890   -1.317135
     69          1           0       19.507092   -5.997679   -2.745968
     70          1           0       18.214245   -4.808342   -0.310988
     71          1           0       17.413174   -6.194515   -0.838750
     72          1           0       17.648248   -4.982527   -2.054017
     73          1           0       19.763562   -1.900068   -5.670822
     74          1           0       18.715179   -0.655181   -5.917999
     75          1           0       18.032287   -2.219714   -5.261953
     76          1           0       17.698060    3.116291   -2.638046
     77          1           0       19.390809    6.749578   -2.541696
     78          1           0       18.713099    6.902824   -4.231073
     79          1           0       20.417368    6.229254   -3.996675
     80         12           0      -20.630474   -0.507557   -0.394922
     81          6           0      -18.461907    2.188270    0.107049
     82          6           0      -23.186197    1.464255    0.824493
     83          6           0      -22.621653   -3.272852   -0.196398
     84          6           0      -17.872349   -2.523834   -0.960917
     85          7           0      -20.761203    1.573876    0.266420
     86          6           0      -19.812799    2.515100    0.177299
     87          6           0      -20.317295    3.953778    0.361900
     88          6           0      -21.816612    3.705327    0.782290
     89          6           0      -22.011950    2.107694    0.528245
     90          6           0      -22.227771    4.119272    2.211727
     91          6           0      -20.149867    4.850576   -0.864903
     92          6           0      -20.038598    6.345629   -0.514881
     93          1           0      -20.127540    6.781679    0.954421
     94          7           0      -22.644228   -0.861476    0.112664
     95          6           0      -23.576814    0.112044    0.539176
     96          6           0      -24.861275   -0.535229    0.715877
     97          6           0      -24.702794   -1.952250    0.482955
     98          6           0      -23.303072   -2.086139    0.082337
     99          6           0      -26.100806    0.267564    1.000410
    100          6           0      -25.783357   -3.124476    0.458073
    101          8           0      -25.540826   -4.254023    0.108221
    102          6           0      -27.176846   -2.761365    0.923255
    103          7           0      -20.283287   -2.584452   -0.459969
    104          6           0      -21.255329   -3.539511   -0.396023
    105          6           0      -20.683378   -4.988409   -0.615702
    106          6           0      -19.216267   -4.686087   -0.916296
    107          6           0      -19.125552   -3.179494   -0.762800
    108          6           0      -20.929266   -6.142939    0.437298
    109          6           0      -18.827123   -5.156081   -2.337559
    110          6           0      -19.158311   -4.246475   -3.541443
    111          7           0      -18.557675   -0.274785   -0.587678
    112          6           0      -17.553839   -1.179032   -0.819665
    113          6           0      -16.281565   -0.539483   -0.860011
    114          6           0      -16.579587    0.846395   -0.482219
    115          6           0      -17.908489    0.913317   -0.319664
    116          6           0      -14.941400   -1.054502   -1.149074
    117          6           0      -16.007730    2.135058   -0.117104
    118          8           0      -14.840428    2.534292   -0.186606
    119          6           0      -17.180464    3.080608    0.276899
    120          6           0      -17.016594    3.602135    1.629963
    121          8           0      -17.251241    2.996859    2.670551
    122          8           0      -16.343206    4.796540    1.572860
    123          6           0      -15.687307    5.325193    2.784635
    124          1           0      -23.924046    2.152555    1.242455
    125          1           0      -23.283334   -4.133306   -0.315524
    126          1           0      -17.011389   -3.137320   -1.234343
    127          1           0      -19.876696    4.423606    1.240947
    128          1           0      -22.537548    4.104880    0.069946
    129          1           0      -23.091524    4.745926    1.990319
    130          1           0      -21.436796    4.698223    2.687864
    131          1           0      -22.449920    3.239305    2.815512
    132          1           0      -20.953326    4.710801   -1.587094
    133          1           0      -19.243547    4.579514   -1.407054
    134          1           0      -20.869526    6.746989   -1.095396
    135          1           0      -19.163599    6.807222   -0.974721
    136          1           0      -25.749141    1.275746    1.219803
    137          1           0      -26.623765   -0.175102    1.848416
    138          1           0      -26.802855    0.279631    0.165344
    139          1           0      -27.326384   -2.638478    1.996427
    140          1           0      -27.864758   -3.501527    0.514565
    141          1           0      -27.341857   -1.814473    0.409305
    142          1           0      -21.236844   -5.289862   -1.504737
    143          1           0      -18.634610   -5.213102   -0.160830
    144          1           0      -20.036603   -6.700513    0.718323
    145          1           0      -21.593244   -6.877283   -0.017633
    146          1           0      -21.447373   -5.705287    1.291120
    147          1           0      -19.302873   -6.128706   -2.457129
    148          1           0      -17.752180   -5.330907   -2.283728
    149          1           0      -19.513702   -4.932787   -4.309638
    150          1           0      -18.286052   -3.737951   -3.951493
    151          1           0      -19.855347   -3.439790   -3.317255
    152          1           0      -14.434729   -0.320551   -1.774760
    153          1           0      -14.905705   -2.028608   -1.636963
    154          1           0      -14.332366   -1.031398   -0.245209
    155          1           0      -17.152200    3.862994   -0.481355
    156          1           0      -15.869322    4.698395    3.658309
    157          1           0      -16.116302    6.306040    2.991053
    158          1           0      -14.644929    5.326654    2.467919
 ---------------------------------------------------------------------

 SCF Done:  E(RCAM-B3LYP) =  -4069.80890735     A.U. after   17 cycles

 Excitation energies and oscillator strengths:

 Excited State   1:      Singlet-A      1.7017 eV  728.59 nm  f=0.3899  <S**2>=0.000
     309 -> 315        0.18694
     312 -> 314        0.68357
     309 <- 315        0.11021
 This state for optimization and/or second-order correction.
 Total Energy, E(TD-HF/TD-DFT) =  -4069.74637084
 Copying the excited state density for this state as the 1-particle RhoCI density.

 Excited State   2:      Singlet-A      1.7177 eV  721.80 nm  f=0.4080  <S**2>=0.000
     310 -> 316        0.18145
     311 -> 313        0.68371
     310 <- 316        0.10673

 Excited State   3:      Singlet-A      2.1355 eV  580.60 nm  f=0.1564  <S**2>=0.000
     310 -> 313        0.65932
     311 -> 316       -0.23565

 Excited State   4:      Singlet-A      2.1898 eV  566.20 nm  f=0.1098  <S**2>=0.000
     309 -> 314        0.64227
     312 -> 315       -0.28260

 Excited State   5:      Singlet-A      3.0680 eV  404.12 nm  f=0.0000  <S**2>=0.000
     312 -> 313        0.70710

 The electronic state is 1-A.
 Alpha  occ. eigenvalues --  -46.89972 -46.88243 -19.24713 -19.23877 -19.20004
 Alpha  occ. eigenvalues --  -19.19943 -19.19558 -19.18989 -19.18706 -19.18609
 Alpha  occ. eigenvalues --  -14.42280 -14.42193 -14.41892 -14.41759 -14.39473
 Alpha  occ. eigenvalues --  -14.39430 -14.38786 -14.38164 -10.39096 -10.38686
 Alpha  occ. eigenvalues --  -10.36187 -10.35707 -10.35086 -10.34775 -10.31604
 Alpha  occ. eigenvalues --  -10.31236 -10.31172 -10.31103 -10.30885 -10.30879
 Alpha  occ. eigenvalues --  -10.30864 -10.30710 -10.30689 -10.30672 -10.30342
 Alpha  occ. eigenvalues --  -10.30318 -10.29871 -10.29562 -10.29424 -10.28992
 Alpha  occ. eigenvalues --  -10.28874 -10.28853 -10.28651 -10.28576 -10.28568
 Alpha  occ. eigenvalues --  -10.28272 -10.28160 -10.28153 -10.28112 -10.28017
 Alpha  occ. eigenvalues --  -10.27905 -10.27808 -10.27776 -10.27662 -10.27633
 Alpha  occ. eigenvalues --  -10.27575 -10.27570 -10.27536 -10.27422 -10.27344
 Alpha  occ. eigenvalues --  -10.27275 -10.27125 -10.27005 -10.27001 -10.26947
 Alpha  occ. eigenvalues --  -10.26913 -10.26756 -10.26699 -10.26592 -10.26542
 Alpha  occ. eigenvalues --  -10.26514 -10.26345 -10.26328 -10.26322 -10.26236
 Alpha  occ. eigenvalues --  -10.26108 -10.25984 -10.25918 -10.25849 -10.25798
 Alpha  occ. eigenvalues --  -10.25470 -10.25371 -10.25085 -10.24947 -10.24857
 Alpha  occ. eigenvalues --  -10.24759  -3.18281  -3.16769  -1.93154  -1.92745
 Alpha  occ. eigenvalues --   -1.92571  -1.91669  -1.91221  -1.91075  -1.16268
 Alpha  occ. eigenvalues --   -1.15093  -1.12877  -1.11582  -1.09187  -1.08867
 Alpha  occ. eigenvalues --   -1.08516  -1.06647  -1.04450  -1.04198  -1.03329
 Alpha  occ. eigenvalues --   -1.03118  -1.02460  -1.02448  -1.01813  -1.01021
 Alpha  occ. eigenvalues --   -0.92076  -0.91591  -0.89282  -0.89182  -0.88857
 Alpha  occ. eigenvalues --   -0.88809  -0.88235  -0.88140  -0.87349  -0.87152
 Alpha  occ. eigenvalues --   -0.87096  -0.86459  -0.86088  -0.86072  -0.84202
 Alpha  occ. eigenvalues --   -0.83981  -0.83636  -0.83439  -0.82507  -0.82339
 Alpha  occ. eigenvalues --   -0.81975  -0.81966  -0.81002  -0.80816  -0.80379
 Alpha  occ. eigenvalues --   -0.80173  -0.78264  -0.78128  -0.77141  -0.77135
 Alpha  occ. eigenvalues --   -0.77077  -0.76840  -0.75903  -0.75831  -0.75014
 Alpha  occ. eigenvalues --   -0.74629  -0.72433  -0.72305  -0.71446  -0.71094
 Alpha  occ. eigenvalues --   -0.69820  -0.69792  -0.69252  -0.68449  -0.68180
 Alpha  occ. eigenvalues --   -0.67688  -0.66884  -0.66079  -0.64896  -0.64767
 Alpha  occ. eigenvalues --   -0.64703  -0.64444  -0.64283  -0.64115  -0.63989
 Alpha  occ. eigenvalues --   -0.63728  -0.61683  -0.61403  -0.60005  -0.59773
 Alpha  occ. eigenvalues --   -0.59529  -0.59093  -0.59085  -0.58781  -0.58326
 Alpha  occ. eigenvalues --   -0.58318  -0.57975  -0.57669  -0.57412  -0.57364
 Alpha  occ. eigenvalues --   -0.56125  -0.55857  -0.55857  -0.55438  -0.55367
 Alpha  occ. eigenvalues --   -0.55173  -0.55031  -0.54663  -0.54562  -0.54037
 Alpha  occ. eigenvalues --   -0.53708  -0.53701  -0.53350  -0.53323  -0.52870
 Alpha  occ. eigenvalues --   -0.52745  -0.52681  -0.52353  -0.52328  -0.52136
 Alpha  occ. eigenvalues --   -0.51978  -0.51706  -0.51613  -0.51173  -0.50909
 Alpha  occ. eigenvalues --   -0.50806  -0.50804  -0.50639  -0.50593  -0.50275
 Alpha  occ. eigenvalues --   -0.50225  -0.50010  -0.49671  -0.49583  -0.49498
 Alpha  occ. eigenvalues --   -0.49369  -0.49180  -0.49061  -0.49004  -0.48960
 Alpha  occ. eigenvalues --   -0.48747  -0.48573  -0.48544  -0.48317  -0.48233
 Alpha  occ. eigenvalues --   -0.48130  -0.47674  -0.47625  -0.47185  -0.47115
 Alpha  occ. eigenvalues --   -0.47114  -0.46748  -0.46742  -0.46258  -0.46126
 Alpha  occ. eigenvalues --   -0.46006  -0.45827  -0.45758  -0.45648  -0.45532
 Alpha  occ. eigenvalues --   -0.45406  -0.45248  -0.45030  -0.44644  -0.44607
 Alpha  occ. eigenvalues --   -0.44539  -0.44308  -0.44268  -0.44065  -0.43967
 Alpha  occ. eigenvalues --   -0.43694  -0.43643  -0.43620  -0.43407  -0.43225
 Alpha  occ. eigenvalues --   -0.43188  -0.43058  -0.42977  -0.42908  -0.42790
 Alpha  occ. eigenvalues --   -0.42675  -0.42587  -0.42365  -0.42319  -0.42013
 Alpha  occ. eigenvalues --   -0.41929  -0.41804  -0.41500  -0.41438  -0.41099
 Alpha  occ. eigenvalues --   -0.40887  -0.40852  -0.40614  -0.40573  -0.40231
 Alpha  occ. eigenvalues --   -0.40105  -0.39915  -0.39169  -0.38941  -0.38516
 Alpha  occ. eigenvalues --   -0.38392  -0.38095  -0.37883  -0.37841  -0.37689
 Alpha  occ. eigenvalues --   -0.37363  -0.36879  -0.36628  -0.36122  -0.35887
 Alpha  occ. eigenvalues --   -0.35694  -0.35676  -0.34601  -0.34320  -0.33803
 Alpha  occ. eigenvalues --   -0.33535  -0.33275  -0.33130  -0.31771  -0.31604
 Alpha  occ. eigenvalues --   -0.30883  -0.30818  -0.30816  -0.30586  -0.29808
 Alpha  occ. eigenvalues --   -0.29605  -0.29321  -0.28655  -0.23802  -0.23514
 Alpha  occ. eigenvalues --   -0.21318  -0.21032
 Alpha virt. eigenvalues --   -0.08913  -0.08620  -0.01602  -0.01312   0.00337
 Alpha virt. eigenvalues --    0.00602   0.01179   0.02492   0.02536   0.02610
 Alpha virt. eigenvalues --    0.04535   0.05140   0.05330   0.05712   0.05974

 Mulliken charges:
               1
     1  Mg  11.998760
     2  C    5.968406
     3  C    6.014530
     4  C    6.022667
     5  C    5.993270
     6  N    6.984850
     7  C    6.039746
     8  C    5.992629
     9  C    6.013224
    10  C    5.965673
    11  C    5.999877
    12  C    5.998871
    13  C    6.002241
    14  H    0.997743
    15  N    7.011088
    16  C    5.956099
    17  C    5.981271
    18  C    5.980841
    19  C    5.965512
    20  C    6.007850
    21  C    5.986405
    22  O    7.974589
    23  C    6.005006
    24  N    7.001496
    25  C    5.968876
    26  C    6.013046
    27  C    5.996121
    28  C    6.027124
    29  C    6.000615
    30  C    5.994542
    31  C    5.991620
    32  N    6.995429
    33  C    6.036784
    34  C    6.037565
    35  C    5.999866
    36  C    6.039024
    37  C    5.996055
    38  C    6.013340
    39  O    8.029480
    40  C    6.004073
    41  C    6.003772
    42  O    8.003572
    43  O    8.001418
    44  C    5.998438
    45  H    0.991061
    46  H    0.995185
    47  H    1.012026
    48  H    0.997710
    49  H    0.994640
    50  H    0.987738
    51  H    1.003648
    52  H    0.997129
    53  H    0.997497
    54  H    0.995918
    55  H    1.007418
    56  H    1.002192
    57  H    0.981384
    58  H    0.978284
    59  H    0.979185
    60  H    0.990982
    61  H    0.985808
    62  H    0.996251
    63  H    0.997941
    64  H    0.998642
    65  H    1.007440
    66  H    0.990468
    67  H    0.998481
    68  H    1.012009
    69  H    0.998589
    70  H    1.010559
    71  H    1.008208
    72  H    0.993215
    73  H    1.024101
    74  H    1.014603
    75  H    1.021817
    76  H    1.006116
    77  H    1.006207
    78  H    1.001987
    79  H    1.002156
    80  Mg  11.999905
    81  C    6.000698
    82  C    5.999434
    83  C    5.999303
    84  C    6.000134
    85  N    7.000195
    86  C    5.998949
    87  C    6.000391
    88  C    5.999968
    89  C    6.000798
    90  C    5.999902
    91  C    6.000075
    92  C    6.000032
    93  H    0.999923
    94  N    6.999832
    95  C    6.001302
    96  C    6.000522
    97  C    6.000614
    98  C    6.001010
    99  C    5.999800
   100  C    6.000421
   101  O    8.000750
   102  C    5.999862
   103  N    6.999782
   104  C    6.001159
   105  C    5.999716
   106  C    6.000341
   107  C    5.999098
   108  C    6.000036
   109  C    6.000148
   110  C    6.000210
   111  N    7.000035
   112  C    5.999187
   113  C    5.998893
   114  C    5.999892
   115  C    5.999257
   116  C    6.000247
   117  C    5.999582
   118  O    7.999210
   119  C    5.999897
   120  C    5.999874
   121  O    7.999843
   122  O    7.999958
   123  C    6.000048
   124  H    1.000343
   125  H    1.000188
   126  H    0.999626
   127  H    0.999966
   128  H    0.999977
   129  H    1.000058
   130  H    1.000385
   131  H    0.999939
   132  H    0.999740
   133  H    1.000187
   134  H    0.999871
   135  H    1.000030
   136  H    1.000559
   137  H    1.000618
   138  H    1.000647
   139  H    1.000339
   140  H    1.000458
   141  H    1.000053
   142  H    0.999954
   143  H    0.999892
   144  H    1.000303
   145  H    1.000007
   146  H    0.999922
   147  H    0.999650
   148  H    1.000050
   149  H    0.999723
   150  H    1.000105
   151  H    0.999802
   152  H    0.999291
   153  H    0.999329
   154  H    0.999244
   155  H    0.999764
   156  H    0.999947
   157  H    0.999843
   158  H    0.999960
 Sum of Mulliken charges = 624.00000

 Dipole moment (field-independent basis, Debye):
    X=             -4.1279    Y=              0.1742    Z=            -10.1867  Tot=             10.9927
 Quadrupole moment (field-independent basis, Debye-Ang):
   XX=           -142.0616   YY=              1.7134   ZZ=             -4.1762
   XY=              8.4254   XZ=           -211.8056   YZ=              6.9151

 Normal termination of Gaussian 16 at Wed Sep 22 05:15:09 2021.
