 Gaussian 16, Revision A.03,
 Gaussian 16:  ES64L-G16RevA.03 25-Dec-2016

 ----------------------------------------------------------
 #p cam-b3lyp/Def2SVP td=(nstates=5) density=(transition=1)
 ----------------------------------------------------------

 --------------------------------
 TDDFT excited states in gaussian
 --------------------------------
 Symbolic Z-matrix:
 Charge =  0 Multiplicity = 1

                         Standard orientation:
 ---------------------------------------------------------------------
 Center     Atomic      Atomic             Coordinates (Angstroms)
 Number     Number       Type             X           Y           Z
 ---------------------------------------------------------------------
      1         12           0        4.910945   -0.610913    0.000328
      2          6           0        2.892342    2.079873   -1.078929
      3          6           0        7.535284    1.380803    0.143002
      4          6           0        6.862382   -3.411797    0.140943
      5          6           0        2.200024   -2.812238   -1.216335
      6          7           0        5.148521    1.497133   -0.489660
      7          6           0        4.180892    2.420571   -0.663562
      8          6           0        4.790319    3.827041   -0.502280
      9          6           0        6.213746    3.607702   -0.100923
     10          6           0        6.359164    2.057837   -0.181109
     11          6           0        7.230559    4.508035   -0.915032
     12          6           0        4.041199    4.866756    0.396705
     13          6           0        4.810073    5.933399    1.288397
     14          1           0        4.308551    7.384913    1.288884
     15          7           0        6.900999   -0.930521    0.372604
     16          6           0        7.850660    0.065648    0.401798
     17          6           0        9.108161   -0.541320    0.734026
     18          6           0        8.984557   -1.985154    0.710636
     19          6           0        7.560918   -2.162263    0.348696
     20          6           0       10.286786    0.334920    0.871117
     21          6           0       10.012598   -3.094677    1.043098
     22          8           0        9.718909   -4.237817    0.918695
     23          6           0       11.282567   -2.759063    1.754924
     24          7           0        4.555811   -2.801987   -0.537981
     25          6           0        5.532525   -3.685017   -0.231223
     26          6           0        5.089034   -5.161655   -0.482891
     27          6           0        3.589897   -4.997162   -0.879166
     28          6           0        3.400322   -3.460242   -0.906463
     29          6           0        5.875664   -5.909566   -1.526288
     30          6           0        2.505735   -5.678138    0.027398
     31          6           0        2.133674   -5.039291    1.322590
     32          7           0        2.936016   -0.527375   -0.937610
     33          6           0        2.007264   -1.464867   -1.288333
     34          6           0        0.791796   -0.803391   -1.695947
     35          6           0        1.053158    0.591213   -1.646253
     36          6           0        2.392829    0.700003   -1.221202
     37          6           0       -0.439327   -1.422884   -2.256962
     38          6           0        0.531602    1.905236   -1.892675
     39          8           0       -0.562661    2.322673   -2.254066
     40          6           0        1.680427    2.935051   -1.490129
     41          6           0        1.940278    3.982387   -2.559746
     42          8           0        2.377383    3.731262   -3.653097
     43          8           0        1.638996    5.236330   -2.052475
     44          6           0        1.824461    6.313168   -3.025809
     45          1           0        8.402573    1.987827    0.412373
     46          1           0        7.540547   -4.259823    0.254349
     47          1           0        1.359083   -3.458373   -1.476320
     48          1           0        4.660052    4.169830   -1.528754
     49          1           0        6.322687    3.966251    0.923007
     50          1           0        6.674717    5.221928   -1.522676
     51          1           0        7.920183    3.840256   -1.431283
     52          1           0        7.788023    5.171611   -0.253711
     53          1           0        3.425659    4.290747    1.088101
     54          1           0        3.319065    5.451130   -0.174098
     55          1           0        5.837241    5.895393    0.925104
     56          1           0        4.825529    5.585266    2.321262
     57          1           0       11.122069   -0.235184    0.465067
     58          1           0       10.462962    0.466257    1.938082
     59          1           0       10.319763    1.332051    0.431778
     60          1           0       11.971971   -2.592651    0.928230
     61          1           0       11.514697   -3.555624    2.462485
     62          1           0       11.275971   -1.809232    2.290054
     63          1           0        5.054005   -5.738169    0.441722
     64          1           0        3.269237   -5.247280   -1.889975
     65          1           0        6.774489   -5.363552   -1.815720
     66          1           0        5.311060   -6.046960   -2.448863
     67          1           0        6.138834   -6.861317   -1.065424
     68          1           0        2.813393   -6.697043    0.262764
     69          1           0        1.634249   -5.877535   -0.596594
     70          1           0        2.945248   -4.395085    1.661442
     71          1           0        1.950648   -5.638616    2.214727
     72          1           0        1.190470   -4.530255    1.121698
     73          1           0       -0.288407   -1.994281   -3.172385
     74          1           0       -1.006334   -0.595550   -2.684452
     75          1           0       -0.985449   -1.992877   -1.504815
     76          1           0        1.339086    3.410138   -0.570192
     77          1           0        2.666176    6.694398   -2.448470
     78          1           0        0.914029    6.902810   -2.921031
     79          1           0        2.044251    5.951680   -4.030590
     80         12           0       -4.869138   -0.739473    0.218398
     81          6           0       -2.976548    2.214423    0.772312
     82          6           0       -7.619515    1.417768   -0.323591
     83          6           0       -6.805168   -3.359575    0.041802
     84          6           0       -2.077310   -2.625930    1.080702
     85          7           0       -5.264043    1.603044    0.233071
     86          6           0       -4.271747    2.539265    0.390968
     87          6           0       -4.748936    3.962224    0.154730
     88          6           0       -6.293559    3.667016   -0.071624
     89          6           0       -6.413429    2.135461   -0.097064
     90          6           0       -7.148863    4.422498    0.941251
     91          6           0       -4.051635    4.575496   -1.079447
     92          6           0       -3.690560    6.109648   -1.056525
     93          1           0       -4.442653    7.020293   -0.057579
     94          7           0       -6.923339   -0.961637   -0.174895
     95          6           0       -7.878686    0.049195   -0.284608
     96          6           0       -9.184119   -0.582344   -0.534241
     97          6           0       -8.931394   -1.992942   -0.527532
     98          6           0       -7.487569   -2.122685   -0.252656
     99          6           0      -10.407689    0.157343   -0.653518
    100          6           0       -9.920315   -3.135976   -0.733118
    101          8           0       -9.567452   -4.318726   -0.601443
    102          6           0      -11.275130   -2.876713   -1.264696
    103          7           0       -4.516838   -2.712539    0.621166
    104          6           0       -5.462780   -3.622134    0.372719
    105          6           0       -4.960186   -5.062914    0.712469
    106          6           0       -3.421962   -4.829355    0.847569
    107          6           0       -3.292793   -3.338626    0.874952
    108          6           0       -5.671181   -5.721491    1.949086
    109          6           0       -2.796190   -5.434521   -0.466735
    110          6           0       -2.534807   -4.519731   -1.712611
    111          7           0       -2.900409   -0.352706    0.706278
    112          6           0       -1.874782   -1.251540    1.051086
    113          6           0       -0.671006   -0.464384    1.416713
    114          6           0       -1.096110    0.858149    1.369679
    115          6           0       -2.397550    0.932878    0.920384
    116          6           0        0.482169   -1.119835    2.009163
    117          6           0       -0.652871    2.205092    1.720862
    118          8           0        0.419187    2.541531    2.210964
    119          6           0       -1.880359    3.170282    1.369434
    120          6           0       -2.324207    3.930644    2.562991
    121          8           0       -3.225924    3.610676    3.332178
    122          8           0       -1.554478    5.104357    2.670680
    123          6           0       -1.722802    6.019949    3.776429
    124          1           0       -8.448330    1.994117   -0.740885
    125          1           0       -7.391670   -4.278863   -0.022499
    126          1           0       -1.263906   -3.323889    1.288295
    127          1           0       -4.584089    4.609290    1.016647
    128          1           0       -6.551567    4.146249   -1.015617
    129          1           0       -7.915323    5.064118    0.507969
    130          1           0       -6.610071    5.041457    1.658713
    131          1           0       -7.723145    3.668078    1.480620
    132          1           0       -4.638046    4.402260   -1.981704
    133          1           0       -3.161175    3.948118   -1.132204
    134          1           0       -3.935213    6.569810   -2.013280
    135          1           0       -2.601136    6.142559   -1.068740
    136          1           0      -10.869408   -0.167743   -1.586070
    137          1           0      -10.245508    1.215407   -0.450123
    138          1           0      -10.923139   -0.182793    0.245212
    139          1           0      -11.941410   -2.399413   -0.545481
    140          1           0      -11.749071   -3.823847   -1.521705
    141          1           0      -11.179865   -2.141317   -2.063062
    142          1           0       -5.287329   -5.556514   -0.202676
    143          1           0       -3.002689   -5.365707    1.699197
    144          1           0       -6.482081   -6.367567    1.612481
    145          1           0       -5.960463   -4.907073    2.612484
    146          1           0       -4.907157   -6.317949    2.447410
    147          1           0       -3.291501   -6.377651   -0.698421
    148          1           0       -1.753340   -5.588437   -0.187879
    149          1           0       -2.883882   -5.128796   -2.545946
    150          1           0       -1.476998   -4.305854   -1.870912
    151          1           0       -3.091628   -3.583946   -1.747049
    152          1           0        0.135488   -1.773414    2.808614
    153          1           0        1.088879   -0.331038    2.455067
    154          1           0        1.129478   -1.542634    1.241310
    155          1           0       -1.452214    3.861101    0.642438
    156          1           0       -1.008276    5.859825    4.583473
    157          1           0       -2.774495    6.139678    4.037073
    158          1           0       -1.545666    6.972157    3.275590
 ---------------------------------------------------------------------

 SCF Done:  E(RCAM-B3LYP) =  -4069.80048971     A.U. after   19 cycles

 Excitation energies and oscillator strengths:

 Excited State   1:      Singlet-A      1.6470 eV  752.78 nm  f=0.8910  <S**2>=0.000
     309 -> 316        0.11475
     310 -> 315       -0.11673
     311 -> 313        0.49504
     311 -> 314        0.20765
     312 -> 313        0.30950
     312 -> 314       -0.29772
 This state for optimization and/or second-order correction.
 Total Energy, E(TD-HF/TD-DFT) =  -4069.73996256
 Copying the excited state density for this state as the 1-particle RhoCI density.

 Excited State   2:      Singlet-A      1.7543 eV  706.75 nm  f=0.0365  <S**2>=0.000
     309 -> 315       -0.13194
     310 -> 316        0.13863
     311 -> 313        0.40485
     312 -> 313       -0.12417
     312 -> 314        0.53188

 Excited State   3:      Singlet-A      2.1356 eV  580.56 nm  f=0.0127  <S**2>=0.000
     309 -> 313        0.14384
     310 -> 313        0.17440
     311 -> 313       -0.16072
     312 -> 313        0.57465
     312 -> 314        0.24926

 Excited State   4:      Singlet-A      2.1786 eV  569.09 nm  f=0.0557  <S**2>=0.000
     309 -> 313        0.41106
     309 -> 314        0.15827
     310 -> 313        0.40466
     311 -> 315        0.18118
     311 -> 316       -0.16249
     312 -> 313       -0.21684
     312 -> 314       -0.11073

 Excited State   5:      Singlet-A      2.2641 eV  547.62 nm  f=0.0822  <S**2>=0.000
     309 -> 313        0.21305
     309 -> 314       -0.35258
     310 -> 313       -0.11356
     310 -> 314        0.45506
     312 -> 315       -0.19494
     312 -> 316       -0.23276

 The electronic state is 1-A.
 Alpha  occ. eigenvalues --  -46.89712 -46.88145 -19.24612 -19.23735 -19.19868
 Alpha  occ. eigenvalues --  -19.19587 -19.19390 -19.19272 -19.18719 -19.18483
 Alpha  occ. eigenvalues --  -14.41918 -14.41717 -14.41564 -14.41003 -14.39362
 Alpha  occ. eigenvalues --  -14.39245 -14.38562 -14.38545 -10.39172 -10.38935
 Alpha  occ. eigenvalues --  -10.35539 -10.35221 -10.35034 -10.34737 -10.31336
 Alpha  occ. eigenvalues --  -10.31199 -10.31037 -10.30770 -10.30671 -10.30613
 Alpha  occ. eigenvalues --  -10.30562 -10.30520 -10.30202 -10.30156 -10.30130
 Alpha  occ. eigenvalues --  -10.29982 -10.29746 -10.29205 -10.28995 -10.28863
 Alpha  occ. eigenvalues --  -10.28740 -10.28736 -10.28513 -10.28464 -10.28399
 Alpha  occ. eigenvalues --  -10.28362 -10.27876 -10.27835 -10.27709 -10.27652
 Alpha  occ. eigenvalues --  -10.27596 -10.27481 -10.27481 -10.27293 -10.27286
 Alpha  occ. eigenvalues --  -10.27252 -10.27189 -10.27183 -10.27178 -10.27000
 Alpha  occ. eigenvalues --  -10.26941 -10.26882 -10.26822 -10.26741 -10.26669
 Alpha  occ. eigenvalues --  -10.26466 -10.26445 -10.26388 -10.26280 -10.26237
 Alpha  occ. eigenvalues --  -10.26217 -10.26178 -10.26118 -10.26091 -10.26012
 Alpha  occ. eigenvalues --  -10.25809 -10.25629 -10.25378 -10.25104 -10.25006
 Alpha  occ. eigenvalues --  -10.25001 -10.24939 -10.24817 -10.24680 -10.24575
 Alpha  occ. eigenvalues --  -10.24290  -3.18021  -3.16686  -1.92892  -1.92485
 Alpha  occ. eigenvalues --   -1.92313  -1.91592  -1.91154  -1.90975  -1.16150
 Alpha  occ. eigenvalues --   -1.14388  -1.12712  -1.09593  -1.09227  -1.08954
 Alpha  occ. eigenvalues --   -1.08403  -1.06975  -1.04390  -1.03900  -1.03658
 Alpha  occ. eigenvalues --   -1.02924  -1.02842  -1.02248  -1.01608  -1.00996
 Alpha  occ. eigenvalues --   -0.91562  -0.91326  -0.89593  -0.88853  -0.88789
 Alpha  occ. eigenvalues --   -0.88306  -0.88049  -0.88033  -0.87141  -0.86983
 Alpha  occ. eigenvalues --   -0.86959  -0.86482  -0.85930  -0.85678  -0.83895
 Alpha  occ. eigenvalues --   -0.83717  -0.83368  -0.83072  -0.82352  -0.82337
 Alpha  occ. eigenvalues --   -0.81746  -0.81682  -0.80544  -0.80436  -0.80165
 Alpha  occ. eigenvalues --   -0.80106  -0.78655  -0.78045  -0.77028  -0.76964
 Alpha  occ. eigenvalues --   -0.76712  -0.76409  -0.75597  -0.75429  -0.74477
 Alpha  occ. eigenvalues --   -0.74452  -0.72049  -0.71779  -0.71207  -0.70996
 Alpha  occ. eigenvalues --   -0.69585  -0.69196  -0.69060  -0.68416  -0.67924
 Alpha  occ. eigenvalues --   -0.67431  -0.66671  -0.66358  -0.64650  -0.64530
 Alpha  occ. eigenvalues --   -0.64423  -0.64205  -0.64150  -0.63845  -0.63831
 Alpha  occ. eigenvalues --   -0.63651  -0.61567  -0.61269  -0.60055  -0.59818
 Alpha  occ. eigenvalues --   -0.59240  -0.58982  -0.58654  -0.58533  -0.58129
 Alpha  occ. eigenvalues --   -0.57821  -0.57725  -0.57549  -0.57179  -0.56820
 Alpha  occ. eigenvalues --   -0.56006  -0.55911  -0.55681  -0.55164  -0.55158
 Alpha  occ. eigenvalues --   -0.55050  -0.54916  -0.54319  -0.54166  -0.53933
 Alpha  occ. eigenvalues --   -0.53671  -0.53608  -0.53506  -0.53136  -0.52964
 Alpha  occ. eigenvalues --   -0.52786  -0.52726  -0.52515  -0.52443  -0.52187
 Alpha  occ. eigenvalues --   -0.51723  -0.51363  -0.51191  -0.51071  -0.50855
 Alpha  occ. eigenvalues --   -0.50655  -0.50603  -0.50499  -0.50340  -0.50077
 Alpha  occ. eigenvalues --   -0.49952  -0.49804  -0.49631  -0.49429  -0.49307
 Alpha  occ. eigenvalues --   -0.49152  -0.49049  -0.48905  -0.48812  -0.48655
 Alpha  occ. eigenvalues --   -0.48439  -0.48301  -0.48219  -0.48139  -0.48051
 Alpha  occ. eigenvalues --   -0.47764  -0.47518  -0.47350  -0.47017  -0.46996
 Alpha  occ. eigenvalues --   -0.46951  -0.46708  -0.46451  -0.46336  -0.45841
 Alpha  occ. eigenvalues --   -0.45780  -0.45700  -0.45522  -0.45397  -0.45261
 Alpha  occ. eigenvalues --   -0.45170  -0.44733  -0.44542  -0.44401  -0.44282
 Alpha  occ. eigenvalues --   -0.44198  -0.44076  -0.43927  -0.43801  -0.43693
 Alpha  occ. eigenvalues --   -0.43583  -0.43392  -0.43362  -0.43245  -0.43113
 Alpha  occ. eigenvalues --   -0.43055  -0.42917  -0.42787  -0.42729  -0.42388
 Alpha  occ. eigenvalues --   -0.42316  -0.42177  -0.42146  -0.41819  -0.41511
 Alpha  occ. eigenvalues --   -0.41470  -0.41428  -0.41053  -0.40977  -0.40838
 Alpha  occ. eigenvalues --   -0.40562  -0.40435  -0.40286  -0.40096  -0.39998
 Alpha  occ. eigenvalues --   -0.39792  -0.38959  -0.38852  -0.38773  -0.37922
 Alpha  occ. eigenvalues --   -0.37899  -0.37486  -0.37448  -0.37125  -0.37027
 Alpha  occ. eigenvalues --   -0.36680  -0.36619  -0.36263  -0.35874  -0.35760
 Alpha  occ. eigenvalues --   -0.35395  -0.35298  -0.34437  -0.33868  -0.33686
 Alpha  occ. eigenvalues --   -0.33328  -0.32996  -0.32909  -0.31604  -0.30939
 Alpha  occ. eigenvalues --   -0.30735  -0.30691  -0.30658  -0.30391  -0.29937
 Alpha  occ. eigenvalues --   -0.29584  -0.29363  -0.28455  -0.23624  -0.23447
 Alpha  occ. eigenvalues --   -0.20840  -0.20396
 Alpha virt. eigenvalues --   -0.08482  -0.07766  -0.01501  -0.01258   0.00157
 Alpha virt. eigenvalues --    0.00801   0.01644   0.02314   0.02866   0.03919
 Alpha virt. eigenvalues --    0.04939   0.05125   0.05402   0.05696   0.05894

 Mulliken charges:
               1
     1  Mg  12.000189
     2  C    6.024282
     3  C    5.991008
     4  C    5.981494
     5  C    6.001248
     6  N    7.012970
     7  C    5.967611
     8  C    6.006013
     9  C    5.988718
    10  C    6.027677
    11  C    5.999618
    12  C    6.000871
    13  C    5.997393
    14  H    1.004976
    15  N    6.990628
    16  C    6.035058
    17  C    6.017024
    18  C    6.016071
    19  C    6.029464
    20  C    5.992557
    21  C    6.012280
    22  O    8.021975
    23  C    5.995478
    24  N    6.997363
    25  C    6.026971
    26  C    5.988867
    27  C    6.002964
    28  C    5.979887
    29  C    5.998741
    30  C    6.003422
    31  C    6.006297
    32  N    7.003830
    33  C    5.970128
    34  C    5.955948
    35  C    5.996933
    36  C    5.968798
    37  C    6.001082
    38  C    5.985332
    39  O    7.979387
    40  C    5.997620
    41  C    5.997937
    42  O    7.998803
    43  O    7.998533
    44  C    6.000941
    45  H    1.009774
    46  H    1.005684
    47  H    0.991106
    48  H    1.003404
    49  H    1.005304
    50  H    1.011406
    51  H    0.997669
    52  H    1.003871
    53  H    0.999798
    54  H    1.004378
    55  H    0.994577
    56  H    0.998450
    57  H    1.016930
    58  H    1.019291
    59  H    1.018236
    60  H    1.008444
    61  H    1.013022
    62  H    1.003392
    63  H    1.003053
    64  H    1.003167
    65  H    0.994790
    66  H    1.009216
    67  H    1.002995
    68  H    0.993252
    69  H    1.002798
    70  H    0.990991
    71  H    0.996167
    72  H    1.001441
    73  H    0.985971
    74  H    0.992570
    75  H    0.979032
    76  H    0.993181
    77  H    0.995217
    78  H    1.000328
    79  H    0.999474
    80  Mg  12.001423
    81  C    5.991498
    82  C    6.001614
    83  C    6.018277
    84  C    5.998707
    85  N    6.994397
    86  C    6.015128
    87  C    5.990878
    88  C    6.008843
    89  C    5.983250
    90  C    6.001235
    91  C    5.998511
    92  C    6.000372
    93  H    0.998869
    94  N    7.006910
    95  C    5.973670
    96  C    5.989622
    97  C    5.988559
    98  C    5.981075
    99  C    6.004107
   100  C    5.991842
   101  O    7.982010
   102  C    6.003529
   103  N    7.006120
   104  C    5.977588
   105  C    6.002931
   106  C    5.995289
   107  C    6.012979
   108  C    6.001946
   109  C    5.998392
   110  C    5.997642
   111  N    6.995982
   112  C    6.023764
   113  C    6.041302
   114  C    6.000470
   115  C    6.021184
   116  C    5.995589
   117  C    6.011997
   118  O    8.009310
   119  C    6.000485
   120  C    5.999830
   121  O    8.003254
   122  O    7.999683
   123  C    5.999214
   124  H    0.990166
   125  H    0.996935
   126  H    1.004907
   127  H    0.998398
   128  H    0.995136
   129  H    0.996053
   130  H    0.990556
   131  H    1.001274
   132  H    1.004666
   133  H    1.000622
   134  H    1.000031
   135  H    0.997827
   136  H    0.988205
   137  H    0.990110
   138  H    0.987840
   139  H    0.993963
   140  H    0.989915
   141  H    0.997093
   142  H    1.001225
   143  H    0.998745
   144  H    0.999964
   145  H    0.998899
   146  H    0.992363
   147  H    1.002632
   148  H    0.998403
   149  H    1.001245
   150  H    1.004180
   151  H    1.004535
   152  H    1.004235
   153  H    1.001769
   154  H    1.020455
   155  H    1.004305
   156  H    0.998033
   157  H    1.002517
   158  H    1.000757
 Sum of Mulliken charges = 624.00000

 Dipole moment (field-independent basis, Debye):
    X=             16.5681    Y=             -0.0501    Z=              3.2883  Tot=             16.8913
 Quadrupole moment (field-independent basis, Debye-Ang):
   XX=             27.1508   YY=             -0.9799   ZZ=             -1.3450
   XY=            -15.7362   XZ=              4.4979   YZ=             -1.5075

 Normal termination of Gaussian 16 at Wed Sep 22 04:36:25 2021.
