 Gaussian 16, Revision A.03,
 Gaussian 16:  ES64L-G16RevA.03 25-Dec-2016

 ----------------------------------------------------------
 #p cam-b3lyp/Def2SVP td=(nstates=5) density=(transition=1)
 ----------------------------------------------------------

 --------------------------------
 TDDFT excited states in gaussian
 --------------------------------
 Symbolic Z-matrix:
 Charge =  0 Multiplicity = 1

                         Standard orientation:
 ---------------------------------------------------------------------
 Center     Atomic      Atomic             Coordinates (Angstroms)
 Number     Number       Type             X           Y           Z
 ---------------------------------------------------------------------
      1         12           0        3.890152   -0.815106   -0.947041
      2          6           0        5.909311    1.795698    0.141104
      3          6           0        1.159092    1.040458   -0.277937
      4          6           0        1.969876   -3.582522   -1.252134
      5          6           0        6.717644   -2.946945   -0.827448
      6          7           0        3.674557    1.185098   -0.252697
      7          6           0        4.586888    2.185333    0.003638
      8          6           0        3.859081    3.487672    0.436885
      9          6           0        2.440950    2.940498    0.787139
     10          6           0        2.369961    1.677518   -0.058549
     11          6           0        2.223898    2.601208    2.303836
     12          6           0        4.069170    4.535629   -0.671377
     13          6           0        4.370031    5.897629   -0.172588
     14          1           0        5.010351    6.782621   -1.143617
     15          7           0        1.853765   -1.131915   -1.001472
     16          6           0        0.893755   -0.203002   -0.756547
     17          6           0       -0.370608   -0.724109   -1.211861
     18          6           0       -0.125188   -2.113236   -1.508892
     19          6           0        1.281564   -2.350117   -1.171833
     20          6           0       -1.636843    0.054918   -1.198359
     21          6           0       -1.096971   -3.266353   -1.921796
     22          8           0       -0.712847   -4.415316   -2.149433
     23          6           0       -2.548620   -2.998321   -2.205424
     24          7           0        4.301292   -2.999989   -0.681113
     25          6           0        3.288541   -3.941563   -1.010905
     26          6           0        3.796908   -5.339022   -1.143088
     27          6           0        5.325394   -5.019167   -1.216313
     28          6           0        5.465231   -3.522238   -0.952533
     29          6           0        3.370941   -6.291535    0.025037
     30          6           0        5.974055   -5.380123   -2.602493
     31          6           0        5.253574   -4.809346   -3.850491
     32          7           0        5.922053   -0.637166   -0.558448
     33          6           0        6.961557   -1.579292   -0.597751
     34          6           0        8.149445   -0.882599   -0.272535
     35          6           0        7.772613    0.428696   -0.010358
     36          6           0        6.430627    0.511999   -0.185452
     37          6           0        9.526655   -1.465628   -0.277415
     38          6           0        8.258177    1.650420    0.433169
     39          8           0        9.418706    1.974261    0.744849
     40          6           0        7.094880    2.679012    0.565688
     41          6           0        7.502818    3.815166   -0.423407
     42          8           0        7.526904    3.718544   -1.663317
     43          8           0        7.834926    4.938542    0.326068
     44          6           0        8.501493    6.085189   -0.369233
     45          1           0        0.359045    1.699712    0.065455
     46          1           0        1.533328   -4.555529   -1.489964
     47          1           0        7.644920   -3.503487   -0.979069
     48          1           0        4.358827    3.931831    1.297086
     49          1           0        1.688953    3.634229    0.412358
     50          1           0        3.046211    2.850909    2.974931
     51          1           0        2.141272    1.524517    2.446586
     52          1           0        1.371081    3.172384    2.670092
     53          1           0        3.104019    4.632301   -1.166639
     54          1           0        4.850366    4.162642   -1.334285
     55          1           0        5.088053    5.760902    0.636191
     56          1           0        3.461934    6.314313    0.262669
     57          1           0       -1.445315    1.126403   -1.143799
     58          1           0       -2.303847   -0.394489   -0.461900
     59          1           0       -2.143807   -0.069661   -2.155275
     60          1           0       -3.039183   -3.955361   -2.026426
     61          1           0       -2.697557   -2.737121   -3.253385
     62          1           0       -2.970436   -2.260901   -1.521795
     63          1           0        3.508142   -5.828385   -2.074326
     64          1           0        5.835208   -5.569505   -0.424884
     65          1           0        3.094913   -5.687732    0.889943
     66          1           0        4.118891   -7.002529    0.376332
     67          1           0        2.513740   -6.935720   -0.172857
     68          1           0        6.066246   -6.466314   -2.611591
     69          1           0        6.995483   -5.013017   -2.502974
     70          1           0        5.897060   -4.163304   -4.448031
     71          1           0        4.382597   -4.264519   -3.485200
     72          1           0        4.898850   -5.588810   -4.524147
     73          1           0        9.926244   -1.284971    0.720439
     74          1           0       10.090057   -0.977055   -1.072369
     75          1           0        9.577774   -2.546224   -0.411408
     76          1           0        7.106088    3.074389    1.581043
     77          1           0        9.430992    5.689756   -0.778197
     78          1           0        8.750008    6.963888    0.225857
     79          1           0        7.721107    6.258362   -1.110305
     80         12           0       -4.082170   -0.475374    0.935422
     81          6           0       -5.310912    2.659576   -0.357676
     82          6           0       -1.541620    1.371956    2.494366
     83          6           0       -3.016581   -3.302607    2.220400
     84          6           0       -6.503689   -2.149906   -0.949602
     85          7           0       -3.516695    1.816563    0.999931
     86          6           0       -4.262637    2.877962    0.594648
     87          6           0       -3.762044    4.185124    1.187251
     88          6           0       -2.317437    3.795708    1.832694
     89          6           0       -2.438846    2.246274    1.756201
     90          6           0       -1.092921    4.431401    1.127961
     91          6           0       -4.761972    4.801952    2.222744
     92          6           0       -5.210867    6.246601    1.881926
     93          1           0       -4.738677    7.359955    2.983732
     94          7           0       -2.549796   -0.890095    2.151597
     95          6           0       -1.541558   -0.032278    2.708160
     96          6           0       -0.571934   -0.746626    3.571907
     97          6           0       -1.069348   -2.089567    3.511848
     98          6           0       -2.239628   -2.130054    2.618993
     99          6           0        0.623683   -0.098515    4.272924
    100          6           0       -0.497663   -3.311279    4.124080
    101          8           0       -1.073406   -4.387510    4.242415
    102          6           0        0.884784   -3.200867    4.796656
    103          7           0       -4.786946   -2.379146    0.797639
    104          6           0       -4.153731   -3.408471    1.405141
    105          6           0       -4.637361   -4.753218    0.938148
    106          6           0       -5.788979   -4.426982   -0.044378
    107          6           0       -5.757230   -2.881971   -0.047794
    108          6           0       -3.554355   -5.665032    0.400722
    109          6           0       -7.218672   -4.985600    0.534403
    110          6           0       -8.058148   -5.946537   -0.470659
    111          7           0       -5.443408    0.076958   -0.601828
    112          6           0       -6.422058   -0.747179   -1.207871
    113          6           0       -7.275909    0.111306   -2.036776
    114          6           0       -6.941084    1.421385   -1.604030
    115          6           0       -5.770452    1.348211   -0.847565
    116          6           0       -8.336374   -0.264166   -3.067441
    117          6           0       -7.212608    2.848843   -1.934801
    118          8           0       -7.983399    3.457371   -2.727908
    119          6           0       -6.225186    3.672033   -1.020335
    120          6           0       -5.474148    4.641332   -1.884768
    121          8           0       -4.993238    4.366623   -2.947618
    122          8           0       -5.532834    5.889367   -1.329424
    123          6           0       -5.116246    6.953458   -2.277432
    124          1           0       -0.699931    1.972953    2.844231
    125          1           0       -2.710215   -4.275144    2.612009
    126          1           0       -7.292032   -2.647798   -1.517578
    127          1           0       -3.581808    4.847842    0.340795
    128          1           0       -2.257848    4.031359    2.895586
    129          1           0       -0.475434    3.666140    0.656741
    130          1           0       -0.496579    5.001927    1.841174
    131          1           0       -1.316009    5.196938    0.384764
    132          1           0       -4.330937    4.845649    3.223280
    133          1           0       -5.680143    4.217988    2.291730
    134          1           0       -6.289692    6.387562    1.952960
    135          1           0       -4.972620    6.581309    0.872806
    136          1           0        0.606770    0.986374    4.381689
    137          1           0        1.602452   -0.364581    3.873899
    138          1           0        0.605165   -0.504506    5.284827
    139          1           0        1.640742   -2.914792    4.065415
    140          1           0        1.166825   -4.116226    5.318015
    141          1           0        0.823686   -2.420457    5.555142
    142          1           0       -4.987807   -5.304431    1.811808
    143          1           0       -5.571777   -4.797678   -1.045698
    144          1           0       -3.312429   -6.492984    1.067672
    145          1           0       -2.579990   -5.195839    0.264927
    146          1           0       -3.879019   -6.030800   -0.573616
    147          1           0       -7.913721   -4.200497    0.830305
    148          1           0       -7.098146   -5.580260    1.439532
    149          1           0       -7.326752   -6.330405   -1.182132
    150          1           0       -8.857352   -5.404499   -0.977872
    151          1           0       -8.409812   -6.843361    0.038712
    152          1           0       -9.144034    0.466195   -3.111912
    153          1           0       -8.836846   -1.162351   -2.703781
    154          1           0       -7.751802   -0.488057   -3.959885
    155          1           0       -6.861246    4.282325   -0.379687
    156          1           0       -4.128730    6.684875   -2.652144
    157          1           0       -4.980415    7.823384   -1.635062
    158          1           0       -5.726519    7.150726   -3.158725
 ---------------------------------------------------------------------

 SCF Done:  E(RCAM-B3LYP) =  -4069.80534105     A.U. after   19 cycles

 Excitation energies and oscillator strengths:

 Excited State   1:      Singlet-A      1.6377 eV  757.07 nm  f=0.7007  <S**2>=0.000
     309 -> 316       -0.13030
     311 -> 313        0.20812
     311 -> 314       -0.30170
     312 -> 313        0.43329
     312 -> 314        0.39139
 This state for optimization and/or second-order correction.
 Total Energy, E(TD-HF/TD-DFT) =  -4069.74515721
 Copying the excited state density for this state as the 1-particle RhoCI density.

 Excited State   2:      Singlet-A      1.6664 eV  744.01 nm  f=0.0870  <S**2>=0.000
     310 -> 315        0.14632
     311 -> 313        0.50351
     311 -> 314       -0.26721
     312 -> 313       -0.10184
     312 -> 314       -0.36619

 Excited State   3:      Singlet-A      2.0931 eV  592.35 nm  f=0.0066  <S**2>=0.000
     310 -> 313       -0.14907
     311 -> 313       -0.13934
     311 -> 314        0.10532
     312 -> 313        0.50783
     312 -> 314       -0.40993

 Excited State   4:      Singlet-A      2.1548 eV  575.40 nm  f=0.0507  <S**2>=0.000
     309 -> 314        0.20992
     310 -> 313        0.50311
     310 -> 314       -0.30762
     311 -> 315       -0.23156
     312 -> 313        0.15895
     312 -> 314       -0.11261

 Excited State   5:      Singlet-A      2.2156 eV  559.60 nm  f=0.1442  <S**2>=0.000
     309 -> 313        0.37976
     309 -> 314        0.42901
     310 -> 314        0.22739
     311 -> 313       -0.12293
     311 -> 314       -0.15515
     312 -> 316        0.24499

 The electronic state is 1-A.
 Alpha  occ. eigenvalues --  -46.88882 -46.88606 -19.26006 -19.24997 -19.20262
 Alpha  occ. eigenvalues --  -19.20130 -19.19080 -19.19013 -19.18976 -19.17920
 Alpha  occ. eigenvalues --  -14.42951 -14.42248 -14.42243 -14.41754 -14.40987
 Alpha  occ. eigenvalues --  -14.39607 -14.39603 -14.38790 -10.40286 -10.39195
 Alpha  occ. eigenvalues --  -10.35474 -10.35474 -10.35243 -10.33907 -10.32259
 Alpha  occ. eigenvalues --  -10.32253 -10.32205 -10.31868 -10.31845 -10.31677
 Alpha  occ. eigenvalues --  -10.31270 -10.31150 -10.31092 -10.30927 -10.30872
 Alpha  occ. eigenvalues --  -10.30571 -10.30481 -10.30481 -10.30317 -10.29654
 Alpha  occ. eigenvalues --  -10.29577 -10.29479 -10.29452 -10.29357 -10.29252
 Alpha  occ. eigenvalues --  -10.29118 -10.28814 -10.28684 -10.28627 -10.28614
 Alpha  occ. eigenvalues --  -10.28610 -10.28499 -10.28429 -10.28325 -10.28322
 Alpha  occ. eigenvalues --  -10.28286 -10.28225 -10.28183 -10.27963 -10.27746
 Alpha  occ. eigenvalues --  -10.27722 -10.27719 -10.27584 -10.27413 -10.27369
 Alpha  occ. eigenvalues --  -10.27342 -10.27273 -10.27220 -10.27218 -10.27065
 Alpha  occ. eigenvalues --  -10.26996 -10.26751 -10.26549 -10.26395 -10.26391
 Alpha  occ. eigenvalues --  -10.26184 -10.26099 -10.26092 -10.26010 -10.25995
 Alpha  occ. eigenvalues --  -10.25984 -10.25972 -10.25720 -10.25530 -10.25269
 Alpha  occ. eigenvalues --  -10.24054  -3.17566  -3.17202  -1.92487  -1.92084
 Alpha  occ. eigenvalues --   -1.92011  -1.91876  -1.91661  -1.91504  -1.17332
 Alpha  occ. eigenvalues --   -1.14669  -1.10083  -1.09688  -1.09058  -1.08213
 Alpha  occ. eigenvalues --   -1.07395  -1.06900  -1.05086  -1.04311  -1.04155
 Alpha  occ. eigenvalues --   -1.03779  -1.03657  -1.02914  -1.02547  -1.02349
 Alpha  occ. eigenvalues --   -0.92820  -0.91941  -0.89475  -0.89337  -0.88935
 Alpha  occ. eigenvalues --   -0.88806  -0.88636  -0.88611  -0.88080  -0.87669
 Alpha  occ. eigenvalues --   -0.87427  -0.87346  -0.86784  -0.85957  -0.85023
 Alpha  occ. eigenvalues --   -0.84468  -0.83752  -0.83433  -0.82451  -0.82094
 Alpha  occ. eigenvalues --   -0.81764  -0.81587  -0.81233  -0.80979  -0.80632
 Alpha  occ. eigenvalues --   -0.79995  -0.79364  -0.78462  -0.77458  -0.77283
 Alpha  occ. eigenvalues --   -0.77235  -0.77206  -0.76525  -0.76442  -0.75739
 Alpha  occ. eigenvalues --   -0.75433  -0.73529  -0.72879  -0.72359  -0.71769
 Alpha  occ. eigenvalues --   -0.70063  -0.69462  -0.69062  -0.68937  -0.67963
 Alpha  occ. eigenvalues --   -0.67837  -0.67365  -0.66804  -0.66139  -0.66074
 Alpha  occ. eigenvalues --   -0.65626  -0.65026  -0.64765  -0.64680  -0.64332
 Alpha  occ. eigenvalues --   -0.64287  -0.62709  -0.61818  -0.61038  -0.60167
 Alpha  occ. eigenvalues --   -0.60130  -0.59635  -0.59392  -0.59102  -0.58745
 Alpha  occ. eigenvalues --   -0.58641  -0.58300  -0.57846  -0.57488  -0.57272
 Alpha  occ. eigenvalues --   -0.56470  -0.56212  -0.55941  -0.55590  -0.55558
 Alpha  occ. eigenvalues --   -0.55410  -0.55339  -0.55043  -0.54833  -0.54171
 Alpha  occ. eigenvalues --   -0.53999  -0.53831  -0.53491  -0.53344  -0.53178
 Alpha  occ. eigenvalues --   -0.53016  -0.52881  -0.52727  -0.52388  -0.52154
 Alpha  occ. eigenvalues --   -0.52033  -0.51937  -0.51722  -0.51651  -0.51566
 Alpha  occ. eigenvalues --   -0.51331  -0.50873  -0.50724  -0.50618  -0.50411
 Alpha  occ. eigenvalues --   -0.50289  -0.50163  -0.49895  -0.49767  -0.49637
 Alpha  occ. eigenvalues --   -0.49573  -0.49414  -0.49271  -0.49132  -0.49083
 Alpha  occ. eigenvalues --   -0.48893  -0.48592  -0.48528  -0.48376  -0.48237
 Alpha  occ. eigenvalues --   -0.48151  -0.47997  -0.47917  -0.47735  -0.47438
 Alpha  occ. eigenvalues --   -0.47309  -0.47205  -0.47125  -0.47070  -0.46958
 Alpha  occ. eigenvalues --   -0.46500  -0.46488  -0.46255  -0.46102  -0.46042
 Alpha  occ. eigenvalues --   -0.45892  -0.45734  -0.45326  -0.45286  -0.45001
 Alpha  occ. eigenvalues --   -0.44855  -0.44735  -0.44650  -0.44446  -0.44321
 Alpha  occ. eigenvalues --   -0.44191  -0.44115  -0.43989  -0.43734  -0.43707
 Alpha  occ. eigenvalues --   -0.43554  -0.43503  -0.43332  -0.43125  -0.42955
 Alpha  occ. eigenvalues --   -0.42895  -0.42655  -0.42502  -0.42246  -0.42149
 Alpha  occ. eigenvalues --   -0.42007  -0.41854  -0.41820  -0.41628  -0.41335
 Alpha  occ. eigenvalues --   -0.41104  -0.41056  -0.40930  -0.40759  -0.40654
 Alpha  occ. eigenvalues --   -0.40554  -0.40307  -0.40228  -0.39556  -0.39517
 Alpha  occ. eigenvalues --   -0.39043  -0.38596  -0.38467  -0.38310  -0.37782
 Alpha  occ. eigenvalues --   -0.37679  -0.37570  -0.37130  -0.36897  -0.36657
 Alpha  occ. eigenvalues --   -0.36331  -0.35831  -0.35014  -0.34789  -0.34439
 Alpha  occ. eigenvalues --   -0.34361  -0.33547  -0.33285  -0.31865  -0.31565
 Alpha  occ. eigenvalues --   -0.31125  -0.31020  -0.30924  -0.30588  -0.30323
 Alpha  occ. eigenvalues --   -0.29996  -0.29763  -0.29618  -0.24529  -0.24187
 Alpha  occ. eigenvalues --   -0.21667  -0.21450
 Alpha virt. eigenvalues --   -0.09346  -0.09244  -0.02247  -0.01760  -0.00153
 Alpha virt. eigenvalues --    0.00228   0.01740   0.01949   0.02159   0.03350
 Alpha virt. eigenvalues --    0.03900   0.04327   0.04755   0.05206   0.05349

 Mulliken charges:
               1
     1  Mg  11.998207
     2  C    6.027567
     3  C    5.992879
     4  C    5.967211
     5  C    5.988354
     6  N    7.019605
     7  C    5.968378
     8  C    6.002475
     9  C    5.994447
    10  C    6.018187
    11  C    5.998582
    12  C    6.006377
    13  C    6.000377
    14  H    0.998599
    15  N    6.989905
    16  C    6.039507
    17  C    6.020621
    18  C    6.010728
    19  C    6.042705
    20  C    5.999873
    21  C    6.013168
    22  O    8.023842
    23  C    5.996954
    24  N    6.984623
    25  C    6.040343
    26  C    5.985439
    27  C    6.006761
    28  C    5.985485
    29  C    6.000024
    30  C    6.007566
    31  C    6.006068
    32  N    7.004435
    33  C    5.970980
    34  C    5.972834
    35  C    5.998644
    36  C    5.971489
    37  C    6.004483
    38  C    5.988332
    39  O    7.972282
    40  C    5.995656
    41  C    5.997429
    42  O    7.996649
    43  O    7.998704
    44  C    6.000962
    45  H    1.018535
    46  H    1.001986
    47  H    0.983295
    48  H    1.000379
    49  H    1.001221
    50  H    1.012283
    51  H    1.003727
    52  H    1.003354
    53  H    0.987597
    54  H    1.004283
    55  H    1.003244
    56  H    0.994442
    57  H    1.011702
    58  H    1.015280
    59  H    1.008128
    60  H    1.008904
    61  H    1.005360
    62  H    0.998707
    63  H    0.999949
    64  H    0.996839
    65  H    1.002329
    66  H    1.007828
    67  H    0.996252
    68  H    0.989913
    69  H    1.005557
    70  H    1.001817
    71  H    0.987619
    72  H    0.992452
    73  H    0.982545
    74  H    0.980835
    75  H    0.983730
    76  H    0.992838
    77  H    1.000444
    78  H    0.995348
    79  H    0.995908
    80  Mg  11.995501
    81  C    5.984872
    82  C    6.002717
    83  C    6.016222
    84  C    5.995596
    85  N    6.988367
    86  C    6.018828
    87  C    5.995125
    88  C    6.007560
    89  C    5.978591
    90  C    6.001540
    91  C    5.998179
    92  C    5.996801
    93  H    1.007972
    94  N    7.002547
    95  C    5.969789
    96  C    5.986655
    97  C    5.993037
    98  C    5.978648
    99  C    5.999082
   100  C    5.992751
   101  O    7.985852
   102  C    6.001945
   103  N    7.004002
   104  C    5.977357
   105  C    6.006063
   106  C    5.992878
   107  C    6.014851
   108  C    5.999488
   109  C    5.996228
   110  C    5.999432
   111  N    6.994617
   112  C    6.023036
   113  C    6.017338
   114  C    6.004273
   115  C    6.016598
   116  C    6.000280
   117  C    6.005727
   118  O    8.019931
   119  C    6.002790
   120  C    6.003094
   121  O    8.000185
   122  O    8.001225
   123  C    5.998255
   124  H    0.994429
   125  H    1.001798
   126  H    1.009472
   127  H    0.999815
   128  H    1.002039
   129  H    0.992266
   130  H    1.002514
   131  H    0.996097
   132  H    1.006328
   133  H    0.997983
   134  H    0.999677
   135  H    0.999315
   136  H    0.993272
   137  H    0.993245
   138  H    0.995427
   139  H    0.997320
   140  H    0.996233
   141  H    0.999128
   142  H    1.003393
   143  H    1.001434
   144  H    1.005294
   145  H    0.997609
   146  H    0.996158
   147  H    1.000725
   148  H    1.008600
   149  H    1.002226
   150  H    0.999579
   151  H    1.005688
   152  H    1.010504
   153  H    1.010569
   154  H    1.009931
   155  H    1.005078
   156  H    1.002601
   157  H    1.004450
   158  H    1.001611
 Sum of Mulliken charges = 624.00000

 Dipole moment (field-independent basis, Debye):
    X=            -14.5834    Y=              0.5277    Z=             -3.5643  Tot=             15.0220
 Quadrupole moment (field-independent basis, Debye-Ang):
   XX=            -34.9492   YY=              2.2595   ZZ=             -2.2952
   XY=              3.6891   XZ=             15.2233   YZ=              2.2963

 Normal termination of Gaussian 16 at Wed Sep 22 12:06:47 2021.
