 Gaussian 16, Revision A.03,
 Gaussian 16:  ES64L-G16RevA.03 25-Dec-2016

 -----------------------------------
 #p cam-b3lyp/Def2SVP td=(nstates=5)
 -----------------------------------

 --------------------------------
 TDDFT excited states in gaussian
 --------------------------------
 Symbolic Z-matrix:
 Charge =  0 Multiplicity = 1

                         Standard orientation:
 ---------------------------------------------------------------------
 Center     Atomic      Atomic             Coordinates (Angstroms)
 Number     Number       Type             X           Y           Z
 ---------------------------------------------------------------------
      1         12           0      -17.182313   -0.776650    0.124143
      2          6           0      -17.024560    2.246109   -1.526314
      3          6           0      -16.117683    0.999863    3.046207
      4          6           0      -16.959011   -3.610900    1.727367
      5          6           0      -17.877928   -2.414298   -2.842241
      6          7           0      -16.426678    1.404954    0.607978
      7          6           0      -16.689555    2.436204   -0.177081
      8          6           0      -16.674335    3.766785    0.627230
      9          6           0      -15.841934    3.312576    1.876930
     10          6           0      -16.114309    1.799981    1.898903
     11          6           0      -14.313954    3.642985    1.730840
     12          6           0      -18.151617    4.097529    0.935544
     13          6           0      -18.425667    5.452389    1.602385
     14          1           0      -17.279323    6.277200    2.152283
     15          7           0      -16.744435   -1.310961    2.084933
     16          6           0      -16.363576   -0.408623    3.136918
     17          6           0      -16.360428   -1.199696    4.359884
     18          6           0      -16.716802   -2.534729    3.991870
     19          6           0      -16.792792   -2.559416    2.531855
     20          6           0      -16.072010   -0.628676    5.798262
     21          6           0      -17.001030   -3.734416    4.954947
     22          8           0      -17.170942   -4.819226    4.469623
     23          6           0      -17.019164   -3.533192    6.435465
     24          7           0      -17.483141   -2.751400   -0.464668
     25          6           0      -17.337335   -3.791721    0.386641
     26          6           0      -17.516788   -5.151975   -0.286410
     27          6           0      -17.946558   -4.745739   -1.715155
     28          6           0      -17.753980   -3.175293   -1.674624
     29          6           0      -16.256671   -6.093076   -0.266791
     30          6           0      -19.274402   -5.258002   -2.211921
     31          6           0      -20.548795   -5.169319   -1.338062
     32          7           0      -17.405780   -0.284400   -1.820031
     33          6           0      -17.696321   -1.030591   -2.926140
     34          6           0      -17.885009   -0.107630   -4.025408
     35          6           0      -17.667171    1.232089   -3.552519
     36          6           0      -17.360147    1.039693   -2.177664
     37          6           0      -18.237716   -0.525756   -5.418750
     38          6           0      -17.574237    2.612304   -3.891742
     39          8           0      -17.704755    3.235183   -4.967993
     40          6           0      -16.870850    3.266338   -2.581181
     41          6           0      -17.503659    4.646163   -2.393488
     42          8           0      -18.652109    4.865953   -2.322638
     43          8           0      -16.497655    5.569749   -2.369710
     44          6           0      -16.796611    6.887768   -1.848668
     45          1           0      -15.729537    1.535921    3.914268
     46          1           0      -16.849747   -4.588929    2.200663
     47          1           0      -18.078666   -2.871193   -3.812758
     48          1           0      -16.120663    4.553014    0.114223
     49          1           0      -16.329817    3.827617    2.704810
     50          1           0      -14.069634    4.503112    2.352993
     51          1           0      -14.115572    3.839129    0.676970
     52          1           0      -13.660605    2.848338    2.091192
     53          1           0      -18.504570    3.358152    1.653997
     54          1           0      -18.798009    3.927087    0.075144
     55          1           0      -19.299250    5.440579    2.254547
     56          1           0      -18.870890    6.052703    0.808752
     57          1           0      -15.319011   -1.209334    6.331937
     58          1           0      -17.038302   -0.607140    6.301907
     59          1           0      -15.780308    0.419418    5.721026
     60          1           0      -17.706013   -4.316430    6.756980
     61          1           0      -17.500906   -2.600732    6.727420
     62          1           0      -16.090625   -3.384890    6.986690
     63          1           0      -18.330694   -5.628790    0.259306
     64          1           0      -17.211815   -5.016172   -2.473488
     65          1           0      -16.282701   -6.632993   -1.212943
     66          1           0      -16.473203   -6.749281    0.576443
     67          1           0      -15.357136   -5.521162   -0.039294
     68          1           0      -19.085370   -6.330329   -2.175100
     69          1           0      -19.593921   -4.951274   -3.208440
     70          1           0      -21.040338   -6.096788   -1.047319
     71          1           0      -21.369765   -4.699758   -1.879880
     72          1           0      -20.310845   -4.646873   -0.411378
     73          1           0      -18.243763    0.392379   -6.005504
     74          1           0      -19.253371   -0.922943   -5.443077
     75          1           0      -17.633169   -1.333234   -5.830740
     76          1           0      -15.806617    3.282000   -2.817175
     77          1           0      -16.407976    7.359681   -2.751201
     78          1           0      -16.339254    7.092459   -0.880432
     79          1           0      -17.860894    7.112695   -1.774584
     80         12           0       17.611576   -0.599066    0.073327
     81          6           0       15.260325    1.965254    0.448198
     82          6           0       20.136940    1.662720    0.506305
     83          6           0       19.768125   -3.006507   -0.630033
     84          6           0       14.880243   -2.818275   -0.552257
     85          7           0       17.657614    1.593799    0.391142
     86          6           0       16.604462    2.459426    0.586729
     87          6           0       17.103932    3.796613    1.101916
     88          6           0       18.657892    3.725055    0.826299
     89          6           0       18.815731    2.176693    0.646267
     90          6           0       19.095266    4.499588   -0.410440
     91          6           0       16.581991    4.037261    2.565317
     92          6           0       17.216254    5.279183    3.250927
     93          1           0       17.626248    6.421063    2.344307
     94          7           0       19.599288   -0.662157   -0.024236
     95          6           0       20.496281    0.393560    0.079159
     96          6           0       21.884690   -0.046287   -0.144538
     97          6           0       21.753590   -1.438265   -0.439319
     98          6           0       20.327023   -1.745692   -0.379735
     99          6           0       23.055028    0.853245   -0.003556
    100          6           0       22.878823   -2.386762   -0.763619
    101          8           0       22.678384   -3.616166   -0.967813
    102          6           0       24.310506   -1.924062   -0.779978
    103          7           0       17.346279   -2.660513   -0.459268
    104          6           0       18.432486   -3.399920   -0.685017
    105          6           0       18.019177   -4.846111   -1.206390
    106          6           0       16.391433   -4.774304   -1.221794
    107          6           0       16.183505   -3.339877   -0.734036
    108          6           0       18.683624   -5.077787   -2.625098
    109          6           0       15.679166   -5.786076   -0.225729
    110          6           0       15.424006   -7.216702   -0.781110
    111          7           0       15.542816   -0.507092   -0.106406
    112          6           0       14.529398   -1.491768   -0.246520
    113          6           0       13.156234   -0.831206   -0.131021
    114          6           0       13.385471    0.526681    0.066713
    115          6           0       14.862563    0.654648    0.154423
    116          6           0       11.814238   -1.492728   -0.167671
    117          6           0       12.790550    1.820944    0.304691
    118          8           0       11.614774    2.194071    0.365701
    119          6           0       13.989781    2.796710    0.749515
    120          6           0       13.958399    4.126870    0.032219
    121          8           0       14.467491    4.326618   -1.037455
    122          8           0       13.470112    5.149711    0.876360
    123          6           0       13.790140    6.537062    0.508173
    124          1           0       20.821775    2.506732    0.615054
    125          1           0       20.484484   -3.793159   -0.876557
    126          1           0       14.008726   -3.412788   -0.834502
    127          1           0       16.649480    4.572980    0.487740
    128          1           0       19.297947    4.012561    1.661055
    129          1           0       19.848940    5.205715   -0.062256
    130          1           0       18.210034    4.929369   -0.878656
    131          1           0       19.692568    3.898502   -1.095611
    132          1           0       16.656114    3.034209    2.984272
    133          1           0       15.510055    4.202456    2.462178
    134          1           0       18.076129    4.858066    3.771943
    135          1           0       16.494562    5.673074    3.966403
    136          1           0       23.450203    0.880968   -1.018875
    137          1           0       23.772568    0.512608    0.742427
    138          1           0       22.898246    1.901329    0.254672
    139          1           0       24.589599   -1.604692    0.223181
    140          1           0       24.213200   -1.137181   -1.528980
    141          1           0       25.044447   -2.630183   -1.167352
    142          1           0       18.402471   -5.456044   -0.387436
    143          1           0       15.899545   -4.700651   -2.192634
    144          1           0       19.263481   -4.233059   -2.996591
    145          1           0       17.910260   -5.277729   -3.367225
    146          1           0       19.403464   -5.882608   -2.479076
    147          1           0       14.817963   -5.340491    0.271331
    148          1           0       16.379821   -5.927300    0.596577
    149          1           0       15.892741   -7.909788   -0.083422
    150          1           0       15.800139   -7.262432   -1.803217
    151          1           0       14.361630   -7.459479   -0.814012
    152          1           0       11.440400   -1.473875    0.856274
    153          1           0       11.905198   -2.510345   -0.549440
    154          1           0       11.027796   -1.016287   -0.752633
    155          1           0       13.888448    2.922748    1.827062
    156          1           0       13.089274    6.780231   -0.289980
    157          1           0       14.853191    6.644517    0.291641
    158          1           0       13.617824    7.134095    1.403295
 ---------------------------------------------------------------------

 SCF Done:  E(RCAM-B3LYP) =  -4069.81794947     A.U. after   18 cycles

 Excitation energies and oscillator strengths:

 Excited State   1:      Singlet-A      1.7141 eV  723.31 nm  f=0.3870  <S**2>=0.000
     309 -> 315       -0.19943
     312 -> 314        0.68031
     309 <- 315       -0.11162
 This state for optimization and/or second-order correction.
 Total Energy, E(TD-HF/TD-DFT) =  -4069.75495685
 Copying the excited state density for this state as the 1-particle RhoCI density.

 Excited State   2:      Singlet-A      1.7338 eV  715.10 nm  f=0.3726  <S**2>=0.000
     310 -> 316       -0.19607
     311 -> 313        0.68083
     310 <- 316       -0.11065

 Excited State   3:      Singlet-A      2.2193 eV  558.66 nm  f=0.0913  <S**2>=0.000
     310 -> 313        0.63500
     311 -> 316        0.29924

 Excited State   4:      Singlet-A      2.2903 eV  541.34 nm  f=0.0345  <S**2>=0.000
     309 -> 314        0.58797
     312 -> 315        0.38617

 Excited State   5:      Singlet-A      3.0014 eV  413.09 nm  f=0.0000  <S**2>=0.000
     312 -> 313        0.70710

 The electronic state is 1-A.
 Alpha  occ. eigenvalues --  -46.88229 -46.88073 -19.24344 -19.23980 -19.20303
 Alpha  occ. eigenvalues --  -19.20221 -19.19186 -19.19059 -19.18977 -19.18393
 Alpha  occ. eigenvalues --  -14.42152 -14.41694 -14.41691 -14.41561 -14.39954
 Alpha  occ. eigenvalues --  -14.39879 -14.39266 -14.39235 -10.39423 -10.38875
 Alpha  occ. eigenvalues --  -10.35537 -10.35248 -10.35238 -10.35018 -10.31763
 Alpha  occ. eigenvalues --  -10.31422 -10.30917 -10.30757 -10.30671 -10.30613
 Alpha  occ. eigenvalues --  -10.30581 -10.30553 -10.30387 -10.30368 -10.30359
 Alpha  occ. eigenvalues --  -10.30317 -10.30244 -10.30116 -10.29625 -10.29585
 Alpha  occ. eigenvalues --  -10.29479 -10.29273 -10.29228 -10.29107 -10.28968
 Alpha  occ. eigenvalues --  -10.28733 -10.28560 -10.28545 -10.28418 -10.28299
 Alpha  occ. eigenvalues --  -10.28193 -10.28142 -10.28035 -10.27759 -10.27744
 Alpha  occ. eigenvalues --  -10.27741 -10.27710 -10.27656 -10.27615 -10.27613
 Alpha  occ. eigenvalues --  -10.27582 -10.27577 -10.27545 -10.27542 -10.27166
 Alpha  occ. eigenvalues --  -10.26906 -10.26703 -10.26621 -10.26519 -10.26444
 Alpha  occ. eigenvalues --  -10.26436 -10.26428 -10.26428 -10.26239 -10.26224
 Alpha  occ. eigenvalues --  -10.26220 -10.26172 -10.25989 -10.25766 -10.25753
 Alpha  occ. eigenvalues --  -10.25705 -10.25569 -10.25400 -10.25238 -10.25153
 Alpha  occ. eigenvalues --  -10.24907  -3.16866  -3.16755  -1.91765  -1.91660
 Alpha  occ. eigenvalues --   -1.91338  -1.91196  -1.91156  -1.91086  -1.17571
 Alpha  occ. eigenvalues --   -1.15479  -1.11487  -1.09760  -1.09118  -1.07969
 Alpha  occ. eigenvalues --   -1.07807  -1.07778  -1.05197  -1.04331  -1.04041
 Alpha  occ. eigenvalues --   -1.03469  -1.03013  -1.02800  -1.02037  -1.01378
 Alpha  occ. eigenvalues --   -0.92981  -0.91609  -0.89344  -0.88916  -0.88630
 Alpha  occ. eigenvalues --   -0.88580  -0.88498  -0.87830  -0.87566  -0.87269
 Alpha  occ. eigenvalues --   -0.86728  -0.86395  -0.86324  -0.85643  -0.84250
 Alpha  occ. eigenvalues --   -0.84028  -0.83699  -0.82940  -0.82391  -0.82193
 Alpha  occ. eigenvalues --   -0.81932  -0.81728  -0.81386  -0.80758  -0.80242
 Alpha  occ. eigenvalues --   -0.80004  -0.78965  -0.77958  -0.77420  -0.77323
 Alpha  occ. eigenvalues --   -0.76979  -0.76782  -0.75833  -0.75765  -0.75474
 Alpha  occ. eigenvalues --   -0.74546  -0.72646  -0.72069  -0.71968  -0.71471
 Alpha  occ. eigenvalues --   -0.70236  -0.69413  -0.68845  -0.68617  -0.68278
 Alpha  occ. eigenvalues --   -0.68068  -0.67066  -0.66165  -0.65513  -0.65150
 Alpha  occ. eigenvalues --   -0.65131  -0.64886  -0.64261  -0.64117  -0.63946
 Alpha  occ. eigenvalues --   -0.63766  -0.62333  -0.61268  -0.60638  -0.60471
 Alpha  occ. eigenvalues --   -0.59613  -0.59496  -0.59124  -0.58784  -0.58698
 Alpha  occ. eigenvalues --   -0.58107  -0.57882  -0.57799  -0.57514  -0.56775
 Alpha  occ. eigenvalues --   -0.56186  -0.56153  -0.56103  -0.55950  -0.55615
 Alpha  occ. eigenvalues --   -0.55315  -0.54523  -0.54241  -0.54190  -0.53955
 Alpha  occ. eigenvalues --   -0.53683  -0.53600  -0.53481  -0.53247  -0.52928
 Alpha  occ. eigenvalues --   -0.52512  -0.52356  -0.52272  -0.52211  -0.52049
 Alpha  occ. eigenvalues --   -0.51902  -0.51773  -0.51749  -0.51440  -0.51157
 Alpha  occ. eigenvalues --   -0.50832  -0.50726  -0.50682  -0.50483  -0.50113
 Alpha  occ. eigenvalues --   -0.50064  -0.49952  -0.49657  -0.49536  -0.49526
 Alpha  occ. eigenvalues --   -0.49429  -0.49322  -0.49289  -0.49275  -0.49005
 Alpha  occ. eigenvalues --   -0.48883  -0.48737  -0.48505  -0.48197  -0.48108
 Alpha  occ. eigenvalues --   -0.48104  -0.48055  -0.47940  -0.47602  -0.47386
 Alpha  occ. eigenvalues --   -0.46878  -0.46814  -0.46586  -0.46508  -0.46181
 Alpha  occ. eigenvalues --   -0.46076  -0.45924  -0.45801  -0.45732  -0.45595
 Alpha  occ. eigenvalues --   -0.45550  -0.45207  -0.45171  -0.45160  -0.44975
 Alpha  occ. eigenvalues --   -0.44856  -0.44706  -0.44650  -0.44178  -0.43992
 Alpha  occ. eigenvalues --   -0.43822  -0.43468  -0.43323  -0.43228  -0.43122
 Alpha  occ. eigenvalues --   -0.43071  -0.42944  -0.42895  -0.42823  -0.42660
 Alpha  occ. eigenvalues --   -0.42551  -0.42342  -0.42270  -0.42100  -0.42051
 Alpha  occ. eigenvalues --   -0.41956  -0.41845  -0.41534  -0.41515  -0.41395
 Alpha  occ. eigenvalues --   -0.41285  -0.40956  -0.40910  -0.40331  -0.40186
 Alpha  occ. eigenvalues --   -0.40185  -0.39517  -0.39410  -0.39227  -0.39074
 Alpha  occ. eigenvalues --   -0.38500  -0.38366  -0.38220  -0.37987  -0.37915
 Alpha  occ. eigenvalues --   -0.37474  -0.37094  -0.36651  -0.36350  -0.36275
 Alpha  occ. eigenvalues --   -0.35893  -0.35816  -0.35097  -0.34536  -0.34144
 Alpha  occ. eigenvalues --   -0.33924  -0.33308  -0.33176  -0.31545  -0.31314
 Alpha  occ. eigenvalues --   -0.30976  -0.30930  -0.30512  -0.30490  -0.30382
 Alpha  occ. eigenvalues --   -0.30029  -0.29784  -0.29326  -0.23984  -0.23772
 Alpha  occ. eigenvalues --   -0.21059  -0.20427
 Alpha virt. eigenvalues --   -0.08399  -0.07886  -0.02138  -0.01851  -0.00211
 Alpha virt. eigenvalues --    0.00226   0.02171   0.02646   0.03059   0.03261
 Alpha virt. eigenvalues --    0.04490   0.04955   0.05374   0.05879   0.05890

 Mulliken charges:
               1
     1  Mg   0.826095
     2  C   -0.012327
     3  C   -0.069443
     4  C   -0.074849
     5  C   -0.110762
     6  N   -0.226815
     7  C   -0.083295
     8  C   -0.038289
     9  C   -0.040678
    10  C    0.001572
    11  C    0.086672
    12  C    0.038277
    13  C   -0.033803
    14  H    0.030087
    15  N   -0.395517
    16  C    0.163807
    17  C   -0.170993
    18  C   -0.041648
    19  C    0.168851
    20  C    0.109756
    21  C    0.017402
    22  O   -0.181359
    23  C    0.052863
    24  N   -0.265997
    25  C   -0.012148
    26  C   -0.046947
    27  C   -0.006106
    28  C    0.066947
    29  C    0.084012
    30  C    0.038675
    31  C   -0.018418
    32  N   -0.393964
    33  C    0.127049
    34  C   -0.170477
    35  C    0.015094
    36  C    0.149484
    37  C    0.114111
    38  C    0.076132
    39  O   -0.199746
    40  C   -0.076668
    41  C    0.177531
    42  O   -0.154560
    43  O   -0.338104
    44  C    0.149823
    45  H   -0.021718
    46  H   -0.018213
    47  H   -0.032808
    48  H   -0.002234
    49  H   -0.002040
    50  H    0.017295
    51  H    0.023527
    52  H    0.018115
    53  H    0.001241
    54  H    0.042068
    55  H    0.018651
    56  H    0.015651
    57  H    0.037209
    58  H    0.036320
    59  H    0.006433
    60  H    0.032657
    61  H   -0.000075
    62  H    0.047157
    63  H    0.021764
    64  H    0.003788
    65  H    0.024762
    66  H    0.025965
    67  H    0.031946
    68  H    0.004389
    69  H    0.015865
    70  H    0.010563
    71  H    0.010170
    72  H    0.020219
    73  H    0.037306
    74  H    0.019340
    75  H    0.024898
    76  H    0.055015
    77  H    0.050951
    78  H    0.046150
    79  H    0.046344
    80  Mg   0.842094
    81  C   -0.020544
    82  C   -0.090089
    83  C   -0.079626
    84  C   -0.078343
    85  N   -0.250706
    86  C   -0.044696
    87  C   -0.012996
    88  C   -0.082164
    89  C   -0.014499
    90  C    0.091555
    91  C    0.015935
    92  C   -0.044480
    93  H    0.032182
    94  N   -0.411438
    95  C    0.200973
    96  C   -0.144000
    97  C   -0.033966
    98  C    0.153122
    99  C    0.122198
   100  C   -0.007203
   101  O   -0.241920
   102  C    0.080562
   103  N   -0.275385
   104  C    0.019543
   105  C   -0.035738
   106  C    0.002855
   107  C    0.012027
   108  C    0.060818
   109  C    0.002620
   110  C    0.023786
   111  N   -0.368218
   112  C    0.111816
   113  C   -0.177365
   114  C    0.032695
   115  C    0.112085
   116  C    0.110964
   117  C    0.072024
   118  O   -0.179473
   119  C   -0.071626
   120  C    0.225333
   121  O   -0.190653
   122  O   -0.375651
   123  C    0.183819
   124  H   -0.034854
   125  H   -0.005882
   126  H   -0.023958
   127  H    0.008540
   128  H    0.003668
   129  H    0.006446
   130  H    0.036725
   131  H    0.014664
   132  H    0.016658
   133  H    0.015027
   134  H    0.036667
   135  H    0.035890
   136  H    0.032181
   137  H    0.035692
   138  H    0.012027
   139  H    0.044590
   140  H    0.019946
   141  H    0.028117
   142  H    0.024686
   143  H    0.018558
   144  H    0.031742
   145  H    0.016280
   146  H    0.027674
   147  H    0.011340
   148  H   -0.004953
   149  H    0.019964
   150  H    0.018655
   151  H    0.014659
   152  H    0.037826
   153  H    0.005632
   154  H    0.037476
   155  H    0.062969
   156  H    0.049897
   157  H    0.033289
   158  H    0.033940
 Sum of Mulliken charges =  -0.00000

 Dipole moment (field-independent basis, Debye):
    X=              4.8386    Y=              0.3774    Z=              6.3963  Tot=              8.0291
 Quadrupole moment (field-independent basis, Debye-Ang):
   XX=           -424.0819   YY=           -487.0140   ZZ=           -514.2238
   XY=             77.5932   XZ=            -34.3308   YZ=             45.1831

 Normal termination of Gaussian 16 at Wed Sep  1 04:31:46 2021.
