 Gaussian 16, Revision A.03,
 Gaussian 16:  ES64L-G16RevA.03 25-Dec-2016

 -----------------------------------
 #p cam-b3lyp/Def2SVP td=(nstates=5)
 -----------------------------------

 --------------------------------
 TDDFT excited states in gaussian
 --------------------------------
 Symbolic Z-matrix:
 Charge =  0 Multiplicity = 1

                         Standard orientation:
 ---------------------------------------------------------------------
 Center     Atomic      Atomic             Coordinates (Angstroms)
 Number     Number       Type             X           Y           Z
 ---------------------------------------------------------------------
      1         12           0       30.525760    0.191297   -0.395518
      2          6           0       28.026587   -1.309082    1.910238
      3          6           0       30.111649    2.965607    1.490120
      4          6           0       32.438235    1.449162   -2.588197
      5          6           0       29.958745   -2.645715   -2.470073
      6          7           0       29.181220    0.736786    1.431813
      7          6           0       28.426668   -0.070887    2.265772
      8          6           0       28.010311    0.587077    3.586283
      9          6           0       28.299034    2.072989    3.209387
     10          6           0       29.255961    1.963930    1.959823
     11          6           0       27.089795    2.900601    2.906557
     12          6           0       28.697931    0.067151    4.893097
     13          6           0       27.920996    0.123493    6.165857
     14          1           0       28.732302    0.468906    7.410561
     15          7           0       31.254675    2.000972   -0.527588
     16          6           0       31.027447    3.046656    0.391505
     17          6           0       31.906252    4.127055    0.047553
     18          6           0       32.695945    3.595110   -1.062441
     19          6           0       32.139956    2.334971   -1.401198
     20          6           0       32.056798    5.465166    0.861581
     21          6           0       33.860300    4.286125   -1.703607
     22          8           0       34.458076    3.802613   -2.695718
     23          6           0       34.431630    5.559248   -1.195339
     24          7           0       31.018000   -0.372934   -2.326675
     25          6           0       31.880469    0.324722   -3.068547
     26          6           0       32.217327   -0.339714   -4.441906
     27          6           0       31.756681   -1.808886   -4.114333
     28          6           0       30.801597   -1.610201   -2.905669
     29          6           0       31.389763    0.276197   -5.615616
     30          6           0       32.970264   -2.743133   -3.700679
     31          6           0       34.193318   -2.855565   -4.634966
     32          7           0       29.303736   -1.633474   -0.310152
     33          6           0       29.259447   -2.691932   -1.210394
     34          6           0       28.312623   -3.680579   -0.750153
     35          6           0       27.840278   -3.199442    0.477609
     36          6           0       28.397903   -1.906905    0.678559
     37          6           0       28.026829   -5.005322   -1.373619
     38          6           0       26.961204   -3.512430    1.596613
     39          8           0       26.274855   -4.481498    1.892903
     40          6           0       27.170321   -2.265727    2.603291
     41          6           0       25.833591   -1.802210    2.933467
     42          8           0       24.993605   -1.331140    2.150653
     43          8           0       25.484399   -2.361325    4.129281
     44          6           0       24.181688   -2.119967    4.661401
     45          1           0       30.041155    3.771655    2.223691
     46          1           0       33.094978    1.842235   -3.366827
     47          1           0       29.839204   -3.499101   -3.141388
     48          1           0       26.933070    0.451498    3.684904
     49          1           0       28.927102    2.543980    3.964982
     50          1           0       27.071325    3.051924    1.827251
     51          1           0       27.197865    3.886906    3.357575
     52          1           0       26.120825    2.496011    3.198309
     53          1           0       29.570001    0.698469    5.061083
     54          1           0       29.063836   -0.938402    4.687286
     55          1           0       27.527694   -0.887821    6.267120
     56          1           0       26.988699    0.679089    6.063747
     57          1           0       32.966937    5.555205    1.453835
     58          1           0       31.179045    5.655750    1.478518
     59          1           0       32.044102    6.202745    0.058176
     60          1           0       33.760737    6.370934   -1.477872
     61          1           0       35.394962    5.667436   -1.694469
     62          1           0       34.583801    5.423512   -0.125098
     63          1           0       33.288071   -0.192775   -4.587343
     64          1           0       31.192418   -2.312859   -4.898425
     65          1           0       32.103255    0.800410   -6.251897
     66          1           0       30.556658    0.916159   -5.326768
     67          1           0       31.034738   -0.621589   -6.123606
     68          1           0       32.606344   -3.767944   -3.630969
     69          1           0       33.240896   -2.451487   -2.686043
     70          1           0       35.036021   -2.532869   -4.023742
     71          1           0       34.000698   -2.115872   -5.412574
     72          1           0       34.359111   -3.873012   -4.988788
     73          1           0       28.833034   -5.141627   -2.094786
     74          1           0       27.067114   -4.897999   -1.879041
     75          1           0       27.928095   -5.822079   -0.658617
     76          1           0       27.696560   -2.603020    3.496082
     77          1           0       23.601541   -1.452236    4.024101
     78          1           0       24.354943   -1.609083    5.608627
     79          1           0       23.679078   -3.052052    4.915711
     80         12           0      -30.053336    0.697780    0.459752
     81          6           0      -28.555729   -2.493615    0.486977
     82          6           0      -27.003258    1.982073   -0.349432
     83          6           0      -31.627051    3.632822   -0.308627
     84          6           0      -33.168929   -1.000272    0.790981
     85          7           0      -28.006476   -0.200203   -0.036039
     86          6           0      -27.559037   -1.472532    0.177103
     87          6           0      -26.094134   -1.655629   -0.255813
     88          6           0      -25.652912   -0.116162   -0.122076
     89          6           0      -26.973399    0.611645   -0.169037
     90          6           0      -24.852838    0.246670    1.157676
     91          6           0      -25.904131   -2.184103   -1.748459
     92          6           0      -24.617092   -2.907007   -2.114583
     93          1           0      -23.564177   -2.285113   -3.056465
     94          7           0      -29.452743    2.647488   -0.219601
     95          6           0      -28.131495    2.964309   -0.346673
     96          6           0      -27.959244    4.337510   -0.528784
     97          6           0      -29.296063    4.887231   -0.498806
     98          6           0      -30.227705    3.731252   -0.369553
     99          6           0      -26.615515    5.039024   -0.685883
    100          6           0      -29.568655    6.369586   -0.618747
    101          8           0      -28.605717    7.169895   -0.741097
    102          6           0      -30.997462    7.005468   -0.488796
    103          7           0      -32.072648    1.170463    0.290887
    104          6           0      -32.481183    2.497704   -0.011345
    105          6           0      -33.946554    2.662262    0.281756
    106          6           0      -34.500367    1.220907    0.288632
    107          6           0      -33.207438    0.394223    0.548975
    108          6           0      -34.397102    3.330366    1.600480
    109          6           0      -35.147700    0.803530   -1.135040
    110          6           0      -36.590586    1.193021   -1.418978
    111          7           0      -30.691341   -1.331178    0.792679
    112          6           0      -31.969594   -1.854940    0.915004
    113          6           0      -31.949171   -3.232842    1.021480
    114          6           0      -30.586602   -3.559573    0.912555
    115          6           0      -29.869896   -2.361995    0.750038
    116          6           0      -33.152629   -4.102425    1.205888
    117          6           0      -29.688356   -4.586076    1.001261
    118          8           0      -29.856484   -5.750340    1.306253
    119          6           0      -28.375316   -3.970182    0.473983
    120          6           0      -28.182399   -4.578430   -0.883072
    121          8           0      -28.972796   -4.494769   -1.770961
    122          8           0      -26.993917   -5.309894   -0.919312
    123          6           0      -26.848272   -6.042988   -2.128581
    124          1           0      -26.022367    2.459460   -0.403176
    125          1           0      -32.168691    4.580874   -0.343091
    126          1           0      -34.143544   -1.431177    1.028579
    127          1           0      -25.503359   -2.189599    0.487723
    128          1           0      -24.987947    0.085042   -0.961521
    129          1           0      -23.822794    0.236834    0.800183
    130          1           0      -24.953188   -0.509145    1.936541
    131          1           0      -25.097087    1.247681    1.513610
    132          1           0      -25.931724   -1.351922   -2.451952
    133          1           0      -26.788285   -2.779308   -1.977754
    134          1           0      -24.960871   -3.847025   -2.548621
    135          1           0      -24.115779   -3.161368   -1.180865
    136          1           0      -26.469489    6.029918   -0.254568
    137          1           0      -26.549477    4.994975   -1.772738
    138          1           0      -25.841051    4.478665   -0.162099
    139          1           0      -31.391363    6.810240    0.508248
    140          1           0      -31.542353    6.511844   -1.293251
    141          1           0      -31.080806    8.059223   -0.754464
    142          1           0      -34.372218    3.180924   -0.576642
    143          1           0      -35.246456    1.067809    1.068470
    144          1           0      -34.902816    2.670486    2.305181
    145          1           0      -34.737467    4.352190    1.431483
    146          1           0      -33.460306    3.528418    2.121090
    147          1           0      -35.034080   -0.278855   -1.078230
    148          1           0      -34.548625    1.188154   -1.960650
    149          1           0      -36.637415    1.717130   -2.373174
    150          1           0      -36.946631    1.852808   -0.627281
    151          1           0      -37.226520    0.313538   -1.523249
    152          1           0      -33.067762   -4.890919    0.458669
    153          1           0      -34.085492   -3.582197    0.985077
    154          1           0      -33.192750   -4.568160    2.190713
    155          1           0      -27.570399   -4.271179    1.143628
    156          1           0      -27.251014   -7.047022   -1.997926
    157          1           0      -25.810741   -6.269332   -2.377271
    158          1           0      -27.355728   -5.567990   -2.966468
 ---------------------------------------------------------------------

 SCF Done:  E(RCAM-B3LYP) =  -4069.78199267     A.U. after   17 cycles

 Excitation energies and oscillator strengths:

 Excited State   1:      Singlet-A      1.6590 eV  747.35 nm  f=0.3857  <S**2>=0.000
     310 -> 316       -0.15604
     312 -> 313        0.69168
     310 <- 316       -0.10429
 This state for optimization and/or second-order correction.
 Total Energy, E(TD-HF/TD-DFT) =  -4069.72102600
 Copying the excited state density for this state as the 1-particle RhoCI density.

 Excited State   2:      Singlet-A      1.7066 eV  726.48 nm  f=0.4043  <S**2>=0.000
     309 -> 315       -0.18536
     311 -> 314        0.68241
     309 <- 315       -0.10820

 Excited State   3:      Singlet-A      2.1433 eV  578.46 nm  f=0.1306  <S**2>=0.000
     309 -> 314        0.65033
     311 -> 315        0.26015

 Excited State   4:      Singlet-A      2.1781 eV  569.22 nm  f=0.2160  <S**2>=0.000
     310 -> 313        0.66763
     312 -> 316        0.21694

 Excited State   5:      Singlet-A      3.1467 eV  394.01 nm  f=0.0000  <S**2>=0.000
     312 -> 314        0.70711

 The electronic state is 1-A.
 Alpha  occ. eigenvalues --  -46.90323 -46.88906 -19.25401 -19.24818 -19.20932
 Alpha  occ. eigenvalues --  -19.19900 -19.19426 -19.18104 -19.17895 -19.17443
 Alpha  occ. eigenvalues --  -14.43187 -14.42680 -14.42317 -14.41439 -14.39831
 Alpha  occ. eigenvalues --  -14.39714 -14.39579 -14.39216 -10.39708 -10.39152
 Alpha  occ. eigenvalues --  -10.35986 -10.35035 -10.34001 -10.33365 -10.32411
 Alpha  occ. eigenvalues --  -10.32336 -10.31645 -10.31416 -10.31130 -10.30996
 Alpha  occ. eigenvalues --  -10.30950 -10.30811 -10.30742 -10.30725 -10.30707
 Alpha  occ. eigenvalues --  -10.30460 -10.30372 -10.30237 -10.29957 -10.29860
 Alpha  occ. eigenvalues --  -10.29243 -10.29105 -10.29081 -10.29066 -10.28965
 Alpha  occ. eigenvalues --  -10.28334 -10.28319 -10.28314 -10.28220 -10.28129
 Alpha  occ. eigenvalues --  -10.28123 -10.28119 -10.28071 -10.28061 -10.28023
 Alpha  occ. eigenvalues --  -10.28010 -10.27968 -10.27933 -10.27873 -10.27850
 Alpha  occ. eigenvalues --  -10.27776 -10.27677 -10.27559 -10.27460 -10.27432
 Alpha  occ. eigenvalues --  -10.27421 -10.27393 -10.27347 -10.27059 -10.26723
 Alpha  occ. eigenvalues --  -10.26599 -10.26501 -10.26490 -10.26397 -10.26377
 Alpha  occ. eigenvalues --  -10.26202 -10.26092 -10.25951 -10.25852 -10.25741
 Alpha  occ. eigenvalues --  -10.25670 -10.25627 -10.25605 -10.25549 -10.25544
 Alpha  occ. eigenvalues --  -10.24176  -3.18615  -3.17567  -1.93513  -1.93063
 Alpha  occ. eigenvalues --   -1.92912  -1.92436  -1.92019  -1.91889  -1.17649
 Alpha  occ. eigenvalues --   -1.16545  -1.10234  -1.10056  -1.09518  -1.07476
 Alpha  occ. eigenvalues --   -1.07330  -1.07028  -1.05766  -1.04923  -1.04660
 Alpha  occ. eigenvalues --   -1.04043  -1.03933  -1.03670  -1.02543  -1.01926
 Alpha  occ. eigenvalues --   -0.94352  -0.93712  -0.89563  -0.88977  -0.88806
 Alpha  occ. eigenvalues --   -0.88734  -0.88693  -0.88056  -0.87577  -0.87471
 Alpha  occ. eigenvalues --   -0.87113  -0.86847  -0.86250  -0.85922  -0.84752
 Alpha  occ. eigenvalues --   -0.84398  -0.84050  -0.83648  -0.83155  -0.82927
 Alpha  occ. eigenvalues --   -0.82083  -0.81901  -0.81074  -0.80862  -0.80704
 Alpha  occ. eigenvalues --   -0.80363  -0.78576  -0.78084  -0.77498  -0.77402
 Alpha  occ. eigenvalues --   -0.77297  -0.76962  -0.76236  -0.75980  -0.75705
 Alpha  occ. eigenvalues --   -0.75455  -0.73625  -0.73368  -0.72268  -0.70954
 Alpha  occ. eigenvalues --   -0.69501  -0.69300  -0.68655  -0.68491  -0.68447
 Alpha  occ. eigenvalues --   -0.68183  -0.67178  -0.66952  -0.66324  -0.65711
 Alpha  occ. eigenvalues --   -0.65380  -0.65145  -0.64913  -0.64763  -0.64489
 Alpha  occ. eigenvalues --   -0.64234  -0.62826  -0.62066  -0.60761  -0.60539
 Alpha  occ. eigenvalues --   -0.60168  -0.59791  -0.59627  -0.59534  -0.59201
 Alpha  occ. eigenvalues --   -0.59039  -0.58872  -0.58408  -0.58076  -0.57691
 Alpha  occ. eigenvalues --   -0.56518  -0.55917  -0.55797  -0.55643  -0.55324
 Alpha  occ. eigenvalues --   -0.55096  -0.54897  -0.54635  -0.54208  -0.53860
 Alpha  occ. eigenvalues --   -0.53709  -0.53567  -0.53243  -0.53212  -0.52884
 Alpha  occ. eigenvalues --   -0.52808  -0.52619  -0.52571  -0.52426  -0.52292
 Alpha  occ. eigenvalues --   -0.51844  -0.51769  -0.51456  -0.51430  -0.51236
 Alpha  occ. eigenvalues --   -0.51234  -0.51032  -0.50833  -0.50622  -0.50311
 Alpha  occ. eigenvalues --   -0.50165  -0.49916  -0.49859  -0.49845  -0.49759
 Alpha  occ. eigenvalues --   -0.49729  -0.49507  -0.49366  -0.49220  -0.49011
 Alpha  occ. eigenvalues --   -0.48828  -0.48744  -0.48450  -0.48341  -0.48162
 Alpha  occ. eigenvalues --   -0.47954  -0.47870  -0.47582  -0.47359  -0.47273
 Alpha  occ. eigenvalues --   -0.47240  -0.47019  -0.46613  -0.46538  -0.46412
 Alpha  occ. eigenvalues --   -0.46395  -0.46361  -0.46208  -0.46036  -0.45961
 Alpha  occ. eigenvalues --   -0.45798  -0.45407  -0.45297  -0.45127  -0.45091
 Alpha  occ. eigenvalues --   -0.44989  -0.44850  -0.44730  -0.44608  -0.44374
 Alpha  occ. eigenvalues --   -0.43962  -0.43863  -0.43781  -0.43716  -0.43347
 Alpha  occ. eigenvalues --   -0.43283  -0.43267  -0.43102  -0.42954  -0.42856
 Alpha  occ. eigenvalues --   -0.42694  -0.42601  -0.42512  -0.42198  -0.42123
 Alpha  occ. eigenvalues --   -0.42022  -0.41644  -0.41560  -0.41350  -0.41335
 Alpha  occ. eigenvalues --   -0.41201  -0.41028  -0.40695  -0.40644  -0.40518
 Alpha  occ. eigenvalues --   -0.40318  -0.39824  -0.39498  -0.39409  -0.39278
 Alpha  occ. eigenvalues --   -0.38588  -0.38501  -0.38252  -0.37818  -0.37774
 Alpha  occ. eigenvalues --   -0.37656  -0.37193  -0.37147  -0.36966  -0.36594
 Alpha  occ. eigenvalues --   -0.36414  -0.35834  -0.35510  -0.35064  -0.34624
 Alpha  occ. eigenvalues --   -0.34323  -0.33421  -0.33146  -0.31577  -0.31455
 Alpha  occ. eigenvalues --   -0.31407  -0.30456  -0.30142  -0.30041  -0.29934
 Alpha  occ. eigenvalues --   -0.29901  -0.29817  -0.29527  -0.24332  -0.24280
 Alpha  occ. eigenvalues --   -0.22046  -0.21738
 Alpha virt. eigenvalues --   -0.09667  -0.09600  -0.02489  -0.00786  -0.00088
 Alpha virt. eigenvalues --    0.00281   0.01413   0.01733   0.02245   0.02589
 Alpha virt. eigenvalues --    0.03917   0.04291   0.04966   0.05145   0.05498

 Mulliken charges:
               1
     1  Mg   0.846870
     2  C    0.005409
     3  C   -0.055072
     4  C   -0.031297
     5  C   -0.072637
     6  N   -0.231485
     7  C   -0.075663
     8  C   -0.050074
     9  C   -0.049634
    10  C   -0.041749
    11  C    0.095465
    12  C    0.083147
    13  C   -0.058014
    14  H    0.037252
    15  N   -0.406875
    16  C    0.180139
    17  C   -0.159267
    18  C   -0.027472
    19  C    0.117521
    20  C    0.116957
    21  C   -0.040723
    22  O   -0.244775
    23  C    0.073560
    24  N   -0.320023
    25  C    0.020731
    26  C   -0.057399
    27  C   -0.052491
    28  C    0.068253
    29  C    0.098074
    30  C    0.007916
    31  C    0.024829
    32  N   -0.315199
    33  C    0.105949
    34  C   -0.190308
    35  C    0.005573
    36  C    0.086705
    37  C    0.131695
    38  C    0.079947
    39  O   -0.155728
    40  C    0.008054
    41  C    0.184161
    42  O   -0.240411
    43  O   -0.318918
    44  C    0.170253
    45  H   -0.033455
    46  H   -0.013442
    47  H   -0.020859
    48  H    0.010333
    49  H   -0.000313
    50  H    0.022607
    51  H    0.011702
    52  H    0.026539
    53  H    0.008156
    54  H    0.007390
    55  H    0.024552
    56  H    0.021019
    57  H    0.046338
    58  H    0.017068
    59  H    0.021997
    60  H    0.041821
    61  H    0.028574
    62  H    0.025077
    63  H    0.021988
    64  H   -0.000189
    65  H    0.023676
    66  H    0.038023
    67  H    0.007174
    68  H   -0.000294
    69  H    0.009451
    70  H    0.020170
    71  H    0.016599
    72  H    0.025526
    73  H    0.010494
    74  H    0.036144
    75  H    0.041387
    76  H    0.041957
    77  H    0.049469
    78  H    0.016028
    79  H    0.044049
    80  Mg   0.815263
    81  C    0.014407
    82  C   -0.065247
    83  C   -0.076249
    84  C   -0.071979
    85  N   -0.233136
    86  C   -0.080856
    87  C    0.006792
    88  C   -0.104055
    89  C    0.065291
    90  C    0.076817
    91  C    0.039653
    92  C   -0.043156
    93  H    0.028209
    94  N   -0.343514
    95  C    0.106397
    96  C   -0.141773
    97  C   -0.040952
    98  C    0.143932
    99  C    0.134045
   100  C   -0.011080
   101  O   -0.242995
   102  C    0.048394
   103  N   -0.357504
   104  C    0.064223
   105  C   -0.039307
   106  C   -0.064026
   107  C    0.055470
   108  C    0.104242
   109  C    0.008802
   110  C    0.034454
   111  N   -0.298988
   112  C    0.103994
   113  C   -0.159975
   114  C    0.083473
   115  C    0.089612
   116  C    0.137607
   117  C   -0.048552
   118  O   -0.168363
   119  C   -0.001925
   120  C    0.189517
   121  O   -0.180556
   122  O   -0.329024
   123  C    0.162228
   124  H   -0.027400
   125  H   -0.039868
   126  H   -0.015047
   127  H    0.002590
   128  H    0.015792
   129  H    0.016364
   130  H    0.021280
   131  H    0.022323
   132  H    0.019970
   133  H    0.022640
   134  H    0.026593
   135  H    0.021102
   136  H    0.045642
   137  H    0.041296
   138  H    0.008731
   139  H    0.046342
   140  H    0.030953
   141  H    0.024830
   142  H    0.004657
   143  H    0.002848
   144  H    0.027592
   145  H    0.021408
   146  H   -0.005821
   147  H    0.000849
   148  H    0.012715
   149  H    0.013758
   150  H    0.012279
   151  H    0.020660
   152  H    0.032763
   153  H    0.002692
   154  H    0.040533
   155  H    0.015295
   156  H    0.028755
   157  H    0.030569
   158  H    0.044705
 Sum of Mulliken charges =  -0.00000

 Dipole moment (field-independent basis, Debye):
    X=              0.8136    Y=              2.8157    Z=              3.0012  Tot=              4.1949
 Quadrupole moment (field-independent basis, Debye-Ang):
   XX=           -330.6638   YY=           -554.8010   ZZ=           -493.5282
   XY=            -22.4216   XZ=             39.4207   YZ=             38.7432

 Normal termination of Gaussian 16 at Tue Sep 14 20:32:00 2021.
