 Gaussian 16, Revision A.03,
 Gaussian 16:  ES64L-G16RevA.03 25-Dec-2016

 -----------------------------------
 #p cam-b3lyp/Def2SVP td=(nstates=5)
 -----------------------------------

 --------------------------------
 TDDFT excited states in gaussian
 --------------------------------
 Symbolic Z-matrix:
 Charge =  0 Multiplicity = 1

                         Standard orientation:
 ---------------------------------------------------------------------
 Center     Atomic      Atomic             Coordinates (Angstroms)
 Number     Number       Type             X           Y           Z
 ---------------------------------------------------------------------
      1         12           0      -11.370701    0.703981   -0.059063
      2          6           0       -9.884106   -2.360874   -0.539238
      3          6           0      -12.946065   -0.386002    2.779524
      4          6           0      -12.714397    3.888039    0.513357
      5          6           0       -9.217523    2.131024   -2.351131
      6          7           0      -11.185665   -1.140751    1.065220
      7          6           0      -10.672793   -2.364630    0.626846
      8          6           0      -10.879170   -3.464422    1.671423
      9          6           0      -11.972172   -2.788692    2.537885
     10          6           0      -12.005179   -1.289111    2.178311
     11          6           0      -13.332768   -3.516486    2.473241
     12          6           0       -9.583138   -3.790549    2.439734
     13          6           0       -9.285844   -5.305055    2.714745
     14          1           0       -8.544721   -5.609534    3.957707
     15          7           0      -12.665007    1.571508    1.381377
     16          6           0      -13.276252    0.944396    2.412363
     17          6           0      -14.300125    1.739046    3.021974
     18          6           0      -14.356600    2.942651    2.300200
     19          6           0      -13.212857    2.837579    1.302332
     20          6           0      -15.236007    1.244000    4.126547
     21          6           0      -15.339095    4.146180    2.537833
     22          8           0      -16.121078    4.093863    3.521433
     23          6           0      -15.462619    5.391600    1.558394
     24          7           0      -10.806745    2.780973   -0.602059
     25          6           0      -11.600164    3.851375   -0.354198
     26          6           0      -11.214001    5.067348   -1.156589
     27          6           0      -10.064632    4.548583   -2.047439
     28          6           0      -10.038058    3.060297   -1.690110
     29          6           0      -12.396540    5.747359   -1.923158
     30          6           0       -8.698104    5.364020   -1.856825
     31          6           0       -8.360369    6.323596   -3.003768
     32          7           0       -9.891972    0.052142   -1.266190
     33          6           0       -9.079711    0.722791   -2.206947
     34          6           0       -8.341163   -0.267367   -3.001727
     35          6           0       -8.700382   -1.473223   -2.415883
     36          6           0       -9.525341   -1.189236   -1.315121
     37          6           0       -7.402189   -0.077143   -4.138734
     38          6           0       -8.476966   -2.924502   -2.481940
     39          8           0       -7.962615   -3.643375   -3.354474
     40          6           0       -9.278732   -3.572550   -1.282899
     41          6           0      -10.346435   -4.535216   -1.785084
     42          8           0      -11.146841   -4.358687   -2.708974
     43          8           0      -10.154618   -5.648095   -1.021413
     44          6           0      -10.922346   -6.826508   -1.387576
     45          1           0      -13.458595   -0.723312    3.682744
     46          1           0      -13.116719    4.903052    0.534601
     47          1           0       -8.517281    2.515861   -3.095224
     48          1           0      -11.209255   -4.379185    1.178009
     49          1           0      -11.590221   -2.902243    3.552393
     50          1           0      -13.369339   -4.560368    2.161748
     51          1           0      -13.906699   -2.991361    1.709879
     52          1           0      -13.861024   -3.487792    3.425961
     53          1           0       -9.492713   -3.234822    3.372661
     54          1           0       -8.790039   -3.314396    1.862713
     55          1           0       -8.724049   -5.712770    1.874399
     56          1           0      -10.237034   -5.827540    2.825658
     57          1           0      -16.244321    1.374661    3.734347
     58          1           0      -14.951894    1.694044    5.077856
     59          1           0      -15.063639    0.168372    4.163105
     60          1           0      -14.684159    6.090680    1.861730
     61          1           0      -16.444701    5.825731    1.744405
     62          1           0      -15.508493    4.981376    0.549213
     63          1           0      -10.832287    5.817627   -0.464026
     64          1           0      -10.275292    4.469898   -3.113734
     65          1           0      -12.123684    5.986404   -2.950656
     66          1           0      -12.730008    6.669300   -1.447142
     67          1           0      -13.272163    5.101806   -1.868902
     68          1           0       -7.826863    4.711023   -1.807150
     69          1           0       -8.702183    5.879111   -0.896281
     70          1           0       -7.931759    7.241179   -2.600347
     71          1           0       -9.266431    6.566919   -3.558279
     72          1           0       -7.655596    5.916199   -3.728394
     73          1           0       -7.411268    0.982432   -4.394388
     74          1           0       -7.586544   -0.831736   -4.903649
     75          1           0       -6.403749   -0.232047   -3.728401
     76          1           0       -8.625113   -4.073692   -0.568443
     77          1           0      -11.971116   -6.620982   -1.605650
     78          1           0      -10.911395   -7.662661   -0.688440
     79          1           0      -10.496805   -7.276737   -2.284775
     80         12           0       11.646529    0.554700    0.393485
     81          6           0        9.098234   -2.020968   -0.434546
     82          6           0       11.653000    1.144457   -2.934587
     83          6           0       14.012301    2.513512    1.176941
     84          6           0       11.838105   -1.007104    3.586913
     85          7           0       10.538656   -0.384857   -1.432530
     86          6           0        9.458537   -1.249822   -1.481022
     87          6           0        8.760957   -1.324311   -2.844054
     88          6           0        9.874226   -0.662987   -3.713897
     89          6           0       10.775151    0.090650   -2.660629
     90          6           0       10.677708   -1.609630   -4.548877
     91          6           0        7.336337   -0.684725   -2.954931
     92          6           0        6.372996   -1.279549   -3.926980
     93          1           0        5.469714   -0.281191   -4.644040
     94          7           0       12.702078    1.752881   -0.735171
     95          6           0       12.537343    1.928566   -2.125069
     96          6           0       13.352788    3.039680   -2.522989
     97          6           0       13.916711    3.527334   -1.264875
     98          6           0       13.542453    2.603060   -0.256174
     99          6           0       13.407819    3.648211   -3.972992
    100          6           0       14.740568    4.769081   -1.111108
    101          8           0       15.248528    5.099681   -0.011979
    102          6           0       14.980331    5.728921   -2.218725
    103          7           0       12.896274    0.666182    2.041434
    104          6           0       13.830727    1.611914    2.156919
    105          6           0       14.574699    1.603424    3.530782
    106          6           0       13.524939    0.778042    4.364276
    107          6           0       12.707429    0.047606    3.263970
    108          6           0       15.953050    0.871442    3.452354
    109          6           0       12.570180    1.709627    5.222934
    110          6           0       13.187253    2.747958    6.183396
    111          7           0       10.659627   -1.122431    1.415089
    112          6           0       10.822750   -1.558580    2.725012
    113          6           0        9.967042   -2.696469    2.967272
    114          6           0        9.252708   -2.884260    1.777119
    115          6           0        9.759008   -1.963184    0.819384
    116          6           0        9.771979   -3.410683    4.262333
    117          6           0        8.220102   -3.697567    1.148503
    118          8           0        7.490898   -4.598326    1.542012
    119          6           0        8.060262   -3.039747   -0.318849
    120          6           0        8.147254   -4.147528   -1.254780
    121          8           0        9.122329   -4.892978   -1.438660
    122          8           0        6.873452   -4.518412   -1.577879
    123          6           0        6.667331   -5.636710   -2.441235
    124          1           0       11.497081    1.382166   -3.989098
    125          1           0       14.824437    3.172450    1.490498
    126          1           0       11.930955   -1.433093    4.588479
    127          1           0        8.687768   -2.379529   -3.108085
    128          1           0        9.460146    0.146902   -4.313766
    129          1           0       11.657553   -1.693752   -4.078802
    130          1           0       10.841986   -1.179000   -5.536533
    131          1           0       10.286983   -2.618892   -4.677086
    132          1           0        7.479167    0.343728   -3.285344
    133          1           0        6.921344   -0.644263   -1.948191
    134          1           0        5.759267   -1.932964   -3.307234
    135          1           0        6.837886   -2.019594   -4.578517
    136          1           0       12.896135    4.601441   -4.102440
    137          1           0       13.070257    2.928978   -4.718741
    138          1           0       14.483370    3.765140   -4.111414
    139          1           0       15.716351    5.292788   -2.894609
    140          1           0       15.379146    6.627041   -1.746316
    141          1           0       14.006251    5.943980   -2.656807
    142          1           0       14.693489    2.650937    3.809784
    143          1           0       13.939408    0.016632    5.024315
    144          1           0       16.715457    1.636398    3.601691
    145          1           0       16.132943    0.289778    2.548831
    146          1           0       15.904222    0.224982    4.329749
    147          1           0       11.972843    1.077146    5.879205
    148          1           0       11.869790    2.154016    4.515999
    149          1           0       12.793994    3.705325    5.841827
    150          1           0       14.256570    2.696662    5.976384
    151          1           0       12.903890    2.579280    7.222207
    152          1           0       10.231562   -2.754720    5.002012
    153          1           0       10.324899   -4.345937    4.175157
    154          1           0        8.734483   -3.665405    4.478638
    155          1           0        7.092526   -2.543866   -0.392050
    156          1           0        7.610584   -6.063574   -2.782772
    157          1           0        6.151850   -5.229332   -3.311050
    158          1           0        5.979141   -6.356087   -1.999685
 ---------------------------------------------------------------------

 SCF Done:  E(RCAM-B3LYP) =  -4069.82423612     A.U. after   19 cycles

 Excitation energies and oscillator strengths:

 Excited State   1:      Singlet-A      1.6591 eV  747.31 nm  f=0.3881  <S**2>=0.000
     309 -> 316        0.15617
     311 -> 313        0.69162
     309 <- 316        0.10434
 This state for optimization and/or second-order correction.
 Total Energy, E(TD-HF/TD-DFT) =  -4069.76326654
 Copying the excited state density for this state as the 1-particle RhoCI density.

 Excited State   2:      Singlet-A      1.7090 eV  725.47 nm  f=0.3605  <S**2>=0.000
     310 -> 315        0.17439
     312 -> 314        0.68605
     310 <- 315        0.10514

 Excited State   3:      Singlet-A      2.1782 eV  569.20 nm  f=0.2157  <S**2>=0.000
     309 -> 313        0.66758
     311 -> 316       -0.21703

 Excited State   4:      Singlet-A      2.2474 eV  551.67 nm  f=0.0932  <S**2>=0.000
     310 -> 314        0.62560
     312 -> 315       -0.31522

 Excited State   5:      Singlet-A      2.7044 eV  458.45 nm  f=0.0000  <S**2>=0.000
     312 -> 313        0.70708

 The electronic state is 1-A.
 Alpha  occ. eigenvalues --  -46.89196 -46.88874 -19.26371 -19.24748 -19.20277
 Alpha  occ. eigenvalues --  -19.19856 -19.19706 -19.19366 -19.18466 -19.17419
 Alpha  occ. eigenvalues --  -14.42427 -14.42283 -14.42197 -14.41409 -14.40250
 Alpha  occ. eigenvalues --  -14.39683 -14.39546 -14.39131 -10.39968 -10.39091
 Alpha  occ. eigenvalues --  -10.36698 -10.35941 -10.34772 -10.33977 -10.32219
 Alpha  occ. eigenvalues --  -10.32056 -10.31617 -10.31388 -10.31211 -10.31110
 Alpha  occ. eigenvalues --  -10.31045 -10.30774 -10.30705 -10.30676 -10.30505
 Alpha  occ. eigenvalues --  -10.30427 -10.30422 -10.30342 -10.29830 -10.29698
 Alpha  occ. eigenvalues --  -10.29047 -10.29036 -10.28896 -10.28803 -10.28515
 Alpha  occ. eigenvalues --  -10.28499 -10.28372 -10.28272 -10.28189 -10.28106
 Alpha  occ. eigenvalues --  -10.28099 -10.28086 -10.28053 -10.28034 -10.27987
 Alpha  occ. eigenvalues --  -10.27981 -10.27961 -10.27923 -10.27899 -10.27767
 Alpha  occ. eigenvalues --  -10.27751 -10.27722 -10.27632 -10.27495 -10.27395
 Alpha  occ. eigenvalues --  -10.27362 -10.27318 -10.27014 -10.27006 -10.26955
 Alpha  occ. eigenvalues --  -10.26767 -10.26693 -10.26570 -10.26378 -10.26299
 Alpha  occ. eigenvalues --  -10.26169 -10.26064 -10.26010 -10.25929 -10.25810
 Alpha  occ. eigenvalues --  -10.25696 -10.25612 -10.25575 -10.25525 -10.25514
 Alpha  occ. eigenvalues --  -10.24609  -3.17728  -3.17536  -1.92595  -1.92405
 Alpha  occ. eigenvalues --   -1.92171  -1.92059  -1.91987  -1.91858  -1.16847
 Alpha  occ. eigenvalues --   -1.16478  -1.10189  -1.08639  -1.08376  -1.07767
 Alpha  occ. eigenvalues --   -1.07452  -1.06965  -1.04891  -1.04698  -1.04026
 Alpha  occ. eigenvalues --   -1.04008  -1.03640  -1.03542  -1.02509  -1.02169
 Alpha  occ. eigenvalues --   -0.93671  -0.91438  -0.89515  -0.88908  -0.88862
 Alpha  occ. eigenvalues --   -0.88780  -0.88703  -0.88025  -0.87439  -0.87303
 Alpha  occ. eigenvalues --   -0.87010  -0.86816  -0.86414  -0.86218  -0.84707
 Alpha  occ. eigenvalues --   -0.84330  -0.84005  -0.83925  -0.83124  -0.82526
 Alpha  occ. eigenvalues --   -0.82051  -0.81656  -0.81141  -0.81034  -0.80835
 Alpha  occ. eigenvalues --   -0.80210  -0.78548  -0.77966  -0.77500  -0.77455
 Alpha  occ. eigenvalues --   -0.77260  -0.76759  -0.76192  -0.75904  -0.75421
 Alpha  occ. eigenvalues --   -0.75313  -0.73333  -0.72729  -0.71745  -0.70920
 Alpha  occ. eigenvalues --   -0.69270  -0.69230  -0.68987  -0.68616  -0.68139
 Alpha  occ. eigenvalues --   -0.67895  -0.67270  -0.66918  -0.66158  -0.65668
 Alpha  occ. eigenvalues --   -0.65117  -0.65094  -0.65008  -0.64874  -0.64577
 Alpha  occ. eigenvalues --   -0.64454  -0.62704  -0.62011  -0.60733  -0.59969
 Alpha  occ. eigenvalues --   -0.59755  -0.59614  -0.59490  -0.58942  -0.58827
 Alpha  occ. eigenvalues --   -0.58630  -0.58372  -0.57747  -0.57657  -0.57253
 Alpha  occ. eigenvalues --   -0.55990  -0.55868  -0.55772  -0.55603  -0.55357
 Alpha  occ. eigenvalues --   -0.55036  -0.54846  -0.54600  -0.54185  -0.53792
 Alpha  occ. eigenvalues --   -0.53665  -0.53384  -0.53199  -0.53163  -0.52850
 Alpha  occ. eigenvalues --   -0.52817  -0.52621  -0.52530  -0.52380  -0.52046
 Alpha  occ. eigenvalues --   -0.51734  -0.51596  -0.51398  -0.51373  -0.51200
 Alpha  occ. eigenvalues --   -0.51200  -0.51116  -0.51000  -0.50895  -0.50283
 Alpha  occ. eigenvalues --   -0.49973  -0.49878  -0.49813  -0.49704  -0.49483
 Alpha  occ. eigenvalues --   -0.49463  -0.49345  -0.49190  -0.49078  -0.48710
 Alpha  occ. eigenvalues --   -0.48534  -0.48297  -0.48287  -0.48162  -0.48130
 Alpha  occ. eigenvalues --   -0.47861  -0.47840  -0.47704  -0.47555  -0.47504
 Alpha  occ. eigenvalues --   -0.47248  -0.47205  -0.46884  -0.46589  -0.46494
 Alpha  occ. eigenvalues --   -0.46406  -0.46359  -0.46175  -0.46027  -0.45924
 Alpha  occ. eigenvalues --   -0.45590  -0.45359  -0.45275  -0.45096  -0.44941
 Alpha  occ. eigenvalues --   -0.44805  -0.44801  -0.44446  -0.44350  -0.44136
 Alpha  occ. eigenvalues --   -0.43926  -0.43815  -0.43784  -0.43680  -0.43500
 Alpha  occ. eigenvalues --   -0.43303  -0.43249  -0.43068  -0.42965  -0.42826
 Alpha  occ. eigenvalues --   -0.42658  -0.42497  -0.42474  -0.42141  -0.42089
 Alpha  occ. eigenvalues --   -0.41983  -0.41978  -0.41588  -0.41585  -0.41306
 Alpha  occ. eigenvalues --   -0.41169  -0.40826  -0.40670  -0.40630  -0.40620
 Alpha  occ. eigenvalues --   -0.39795  -0.39738  -0.39460  -0.39386  -0.39229
 Alpha  occ. eigenvalues --   -0.38678  -0.38563  -0.38397  -0.38205  -0.38172
 Alpha  occ. eigenvalues --   -0.37741  -0.37393  -0.37154  -0.36869  -0.36436
 Alpha  occ. eigenvalues --   -0.36379  -0.35766  -0.34887  -0.34811  -0.34591
 Alpha  occ. eigenvalues --   -0.34266  -0.33113  -0.33055  -0.31603  -0.31544
 Alpha  occ. eigenvalues --   -0.31363  -0.31219  -0.30514  -0.30472  -0.30115
 Alpha  occ. eigenvalues --   -0.29868  -0.29859  -0.29791  -0.24248  -0.24220
 Alpha  occ. eigenvalues --   -0.21706  -0.21105
 Alpha virt. eigenvalues --   -0.09635  -0.08603  -0.02044  -0.00753   0.00151
 Alpha virt. eigenvalues --    0.00316   0.01617   0.01761   0.01958   0.02275
 Alpha virt. eigenvalues --    0.03976   0.04973   0.05029   0.05030   0.05998

 Mulliken charges:
               1
     1  Mg   0.836105
     2  C   -0.065888
     3  C   -0.099808
     4  C   -0.076457
     5  C   -0.074361
     6  N   -0.335330
     7  C   -0.052969
     8  C   -0.007693
     9  C   -0.038922
    10  C    0.100410
    11  C    0.060683
    12  C    0.062639
    13  C   -0.070332
    14  H    0.026331
    15  N   -0.347209
    16  C    0.138461
    17  C   -0.175709
    18  C   -0.042939
    19  C    0.173901
    20  C    0.164806
    21  C    0.001208
    22  O   -0.229592
    23  C    0.054716
    24  N   -0.257144
    25  C   -0.006390
    26  C   -0.021897
    27  C   -0.004495
    28  C    0.016324
    29  C    0.057145
    30  C    0.038628
    31  C   -0.002736
    32  N   -0.349106
    33  C    0.092026
    34  C   -0.191311
    35  C    0.000939
    36  C    0.118541
    37  C    0.151198
    38  C    0.079123
    39  O   -0.194651
    40  C    0.005628
    41  C    0.224925
    42  O   -0.217161
    43  O   -0.326095
    44  C    0.174533
    45  H   -0.017055
    46  H   -0.042524
    47  H   -0.036774
    48  H    0.000657
    49  H    0.005554
    50  H    0.014742
    51  H    0.013528
    52  H    0.016701
    53  H    0.006751
    54  H    0.005830
    55  H    0.043445
    56  H    0.028534
    57  H    0.042085
    58  H    0.047534
    59  H   -0.009896
    60  H    0.058729
    61  H    0.031701
    62  H    0.040071
    63  H    0.020089
    64  H    0.008782
    65  H    0.024533
    66  H    0.011784
    67  H    0.017649
    68  H    0.008161
    69  H    0.004652
    70  H    0.016384
    71  H    0.008755
    72  H    0.019408
    73  H   -0.000919
    74  H    0.052386
    75  H    0.026884
    76  H    0.034697
    77  H    0.037738
    78  H    0.033923
    79  H    0.035405
    80  Mg   0.846789
    81  C    0.005473
    82  C   -0.055088
    83  C   -0.031401
    84  C   -0.072726
    85  N   -0.231489
    86  C   -0.075665
    87  C   -0.050085
    88  C   -0.049601
    89  C   -0.041768
    90  C    0.095473
    91  C    0.083196
    92  C   -0.058090
    93  H    0.037332
    94  N   -0.406849
    95  C    0.180104
    96  C   -0.159307
    97  C   -0.027551
    98  C    0.117494
    99  C    0.116955
   100  C   -0.040757
   101  O   -0.244879
   102  C    0.073596
   103  N   -0.320040
   104  C    0.020714
   105  C   -0.057379
   106  C   -0.052484
   107  C    0.068280
   108  C    0.098098
   109  C    0.007940
   110  C    0.024834
   111  N   -0.315227
   112  C    0.105988
   113  C   -0.190333
   114  C    0.005637
   115  C    0.086686
   116  C    0.131691
   117  C    0.079976
   118  O   -0.155502
   119  C    0.008080
   120  C    0.184141
   121  O   -0.240494
   122  O   -0.318825
   123  C    0.170097
   124  H   -0.033470
   125  H   -0.013540
   126  H   -0.020919
   127  H    0.010505
   128  H   -0.000338
   129  H    0.022527
   130  H    0.011684
   131  H    0.026686
   132  H    0.007968
   133  H    0.007353
   134  H    0.024877
   135  H    0.021127
   136  H    0.046217
   137  H    0.017098
   138  H    0.021946
   139  H    0.041805
   140  H    0.028459
   141  H    0.025016
   142  H    0.021908
   143  H   -0.000220
   144  H    0.023605
   145  H    0.038045
   146  H    0.007135
   147  H   -0.000312
   148  H    0.009436
   149  H    0.020097
   150  H    0.016592
   151  H    0.025465
   152  H    0.010409
   153  H    0.036157
   154  H    0.041441
   155  H    0.042140
   156  H    0.049358
   157  H    0.016369
   158  H    0.044337
 Sum of Mulliken charges =  -0.00000

 Dipole moment (field-independent basis, Debye):
    X=             -1.7429    Y=              4.5255    Z=             -0.9464  Tot=              4.9410
 Quadrupole moment (field-independent basis, Debye-Ang):
   XX=           -543.1344   YY=           -507.3901   ZZ=           -496.0600
   XY=             10.3483   XZ=             -9.3241   YZ=            -36.2677

 Normal termination of Gaussian 16 at Thu Sep 16 10:54:25 2021.
