 Gaussian 16, Revision A.03,
 Gaussian 16:  ES64L-G16RevA.03 25-Dec-2016

 ----------------------------------------------------------
 #p cam-b3lyp/Def2SVP td=(nstates=5) density=(transition=1)
 ----------------------------------------------------------

 --------------------------------
 TDDFT excited states in gaussian
 --------------------------------
 Symbolic Z-matrix:
 Charge =  0 Multiplicity = 1

                         Standard orientation:
 ---------------------------------------------------------------------
 Center     Atomic      Atomic             Coordinates (Angstroms)
 Number     Number       Type             X           Y           Z
 ---------------------------------------------------------------------
      1         12           0      -18.329927   -0.773538    0.170233
      2          6           0      -17.321900    2.691041   -0.720887
      3          6           0      -17.206441    0.044261    3.251288
      4          6           0      -18.955986   -3.827685    0.742822
      5          6           0      -18.580496   -1.345171   -3.334673
      6          7           0      -17.339927    1.126126    1.095253
      7          6           0      -17.219796    2.411542    0.594808
      8          6           0      -16.875663    3.475389    1.643534
      9          6           0      -16.401915    2.529899    2.790250
     10          6           0      -16.998043    1.125436    2.388845
     11          6           0      -14.920579    2.462702    2.990337
     12          6           0      -17.999188    4.498212    2.020934
     13          6           0      -17.588212    5.869805    2.441114
     14          1           0      -18.433088    6.493712    3.547342
     15          7           0      -18.157265   -1.794530    1.828982
     16          6           0      -17.719430   -1.280611    3.067532
     17          6           0      -17.942944   -2.290675    4.061352
     18          6           0      -18.607033   -3.365058    3.324226
     19          6           0      -18.586302   -3.002415    1.953135
     20          6           0      -17.685020   -2.115361    5.603619
     21          6           0      -19.179338   -4.607085    3.935905
     22          8           0      -19.682030   -5.522117    3.239182
     23          6           0      -19.246713   -4.835651    5.401789
     24          7           0      -18.560065   -2.420220   -1.064878
     25          6           0      -18.842863   -3.631727   -0.581945
     26          6           0      -19.108262   -4.707165   -1.683789
     27          6           0      -19.413402   -3.741899   -2.889242
     28          6           0      -18.770940   -2.403836   -2.431684
     29          6           0      -17.851741   -5.594426   -1.958968
     30          6           0      -20.969813   -3.545254   -3.125089
     31          6           0      -21.871983   -4.784302   -3.304659
     32          7           0      -18.067853    0.406682   -1.665201
     33          6           0      -18.278444    0.019979   -2.983853
     34          6           0      -17.982701    1.124439   -3.866136
     35          6           0      -17.644535    2.191950   -3.024669
     36          6           0      -17.621178    1.700002   -1.690720
     37          6           0      -18.160448    1.160230   -5.346831
     38          6           0      -17.268099    3.599462   -3.014360
     39          8           0      -17.153785    4.454958   -3.882123
     40          6           0      -17.144791    3.947457   -1.441117
     41          6           0      -15.853866    4.595348   -1.284707
     42          8           0      -14.738394    4.096116   -1.500966
     43          8           0      -16.063590    5.944605   -1.291029
     44          6           0      -14.944244    6.827680   -1.215501
     45          1           0      -16.966073    0.420668    4.247959
     46          1           0      -19.181826   -4.885009    0.894956
     47          1           0      -18.689582   -1.577503   -4.396438
     48          1           0      -16.016074    4.029612    1.266047
     49          1           0      -16.920700    2.765561    3.718986
     50          1           0      -14.592043    1.497472    2.604931
     51          1           0      -14.693801    2.465992    4.056383
     52          1           0      -14.315541    3.231499    2.510134
     53          1           0      -18.527383    4.081706    2.878152
     54          1           0      -18.704256    4.524313    1.190524
     55          1           0      -17.703254    6.458270    1.531075
     56          1           0      -16.511726    5.958370    2.588168
     57          1           0      -18.576603   -1.999019    6.219061
     58          1           0      -16.977988   -1.309580    5.799085
     59          1           0      -17.172437   -3.048983    5.838679
     60          1           0      -18.246908   -5.091724    5.753320
     61          1           0      -19.926875   -5.677258    5.535658
     62          1           0      -19.683197   -3.936074    5.834500
     63          1           0      -19.946565   -5.302665   -1.320658
     64          1           0      -18.957990   -4.015619   -3.840483
     65          1           0      -18.103304   -6.597715   -1.614222
     66          1           0      -16.915126   -5.240413   -1.529463
     67          1           0      -17.811754   -5.579626   -3.049059
     68          1           0      -21.109087   -2.990614   -4.052727
     69          1           0      -21.313057   -2.886516   -2.327572
     70          1           0      -22.608907   -4.705204   -2.505559
     71          1           0      -21.207310   -5.625909   -3.107606
     72          1           0      -22.373540   -4.801670   -4.272137
     73          1           0      -18.757772    0.275036   -5.566521
     74          1           0      -17.160538    1.069624   -5.771087
     75          1           0      -18.589562    2.089470   -5.721587
     76          1           0      -17.953957    4.617875   -1.152052
     77          1           0      -14.004340    6.282822   -1.124416
     78          1           0      -15.092673    7.391886   -0.294687
     79          1           0      -14.964818    7.562428   -2.019115
     80         12           0       18.278898   -0.752996    0.022841
     81          6           0       16.350596    2.193607    0.543665
     82          6           0       21.118326    1.179479    0.183393
     83          6           0       19.898051   -3.579547   -0.531986
     84          6           0       15.236999   -2.555293   -0.623611
     85          7           0       18.712656    1.519798    0.270052
     86          6           0       17.731996    2.448970    0.565444
     87          6           0       18.479148    3.802340    0.822776
     88          6           0       20.060402    3.484667    0.662433
     89          6           0       19.957221    1.990285    0.340774
     90          6           0       20.829458    4.357330   -0.351221
     91          6           0       18.084106    4.606747    2.129552
     92          6           0       17.574265    6.000787    1.906027
     93          1           0       17.964358    6.853827    0.727914
     94          7           0       20.334323   -1.183124   -0.029162
     95          6           0       21.317238   -0.247214    0.046645
     96          6           0       22.554089   -0.981036    0.125743
     97          6           0       22.244875   -2.324461   -0.177931
     98          6           0       20.756345   -2.457769   -0.295603
     99          6           0       23.882781   -0.231123    0.319823
    100          6           0       23.211848   -3.429219   -0.479016
    101          8           0       22.820346   -4.559957   -0.853725
    102          6           0       24.669096   -3.165416   -0.388051
    103          7           0       17.588565   -2.779257   -0.573700
    104          6           0       18.445050   -3.737428   -0.651009
    105          6           0       17.860381   -5.226607   -0.911159
    106          6           0       16.367099   -4.868573   -0.956685
    107          6           0       16.367272   -3.379121   -0.713963
    108          6           0       18.456821   -5.800739   -2.248235
    109          6           0       15.426398   -5.623036    0.047379
    110          6           0       15.539943   -5.221245    1.537143
    111          7           0       16.298823   -0.272870   -0.149728
    112          6           0       15.206000   -1.122333   -0.442590
    113          6           0       13.974598   -0.332475   -0.306575
    114          6           0       14.377788    0.966369    0.086238
    115          6           0       15.808025    0.944094    0.211305
    116          6           0       12.527577   -0.870443   -0.517114
    117          6           0       13.871381    2.191508    0.416572
    118          8           0       12.740798    2.634180    0.420438
    119          6           0       15.091821    3.074814    0.798638
    120          6           0       15.047634    4.282700    0.007321
    121          8           0       15.548055    4.409242   -1.115951
    122          8           0       14.162334    5.196674    0.591056
    123          6           0       13.892262    6.398810   -0.235996
    124          1           0       22.056139    1.695220   -0.035093
    125          1           0       20.447119   -4.460118   -0.872190
    126          1           0       14.283832   -3.055606   -0.806691
    127          1           0       18.022503    4.381463    0.021201
    128          1           0       20.558777    3.704531    1.605517
    129          1           0       21.680155    4.844389    0.127137
    130          1           0       20.253693    5.113152   -0.885114
    131          1           0       21.182487    3.641673   -1.093725
    132          1           0       18.931849    4.645945    2.813863
    133          1           0       17.257308    4.048747    2.569099
    134          1           0       18.064670    6.628014    2.651316
    135          1           0       16.488658    5.975499    1.993586
    136          1           0       23.731541    0.784143    0.687234
    137          1           0       24.425628   -0.196848   -0.623892
    138          1           0       24.422119   -0.824317    1.057593
    139          1           0       24.865649   -2.828786    0.629881
    140          1           0       24.969453   -2.356138   -1.054706
    141          1           0       25.238224   -4.043464   -0.690715
    142          1           0       18.075815   -5.889709   -0.072951
    143          1           0       16.011424   -4.923854   -1.985794
    144          1           0       18.662203   -4.957984   -2.908239
    145          1           0       17.689767   -6.411138   -2.726135
    146          1           0       19.364235   -6.402136   -2.187511
    147          1           0       15.486877   -6.696913   -0.126497
    148          1           0       14.400279   -5.438678   -0.269186
    149          1           0       16.522045   -4.905012    1.887076
    150          1           0       15.126404   -6.032081    2.137902
    151          1           0       14.834151   -4.399731    1.658933
    152          1           0       11.853430   -0.619218    0.301798
    153          1           0       12.489053   -1.943490   -0.701277
    154          1           0       12.032281   -0.263162   -1.275155
    155          1           0       14.885157    3.287682    1.846969
    156          1           0       13.308445    6.134294   -1.117267
    157          1           0       14.784046    6.887732   -0.626459
    158          1           0       13.490066    7.151754    0.442024
 ---------------------------------------------------------------------

 SCF Done:  E(RCAM-B3LYP) =  -4069.80584818     A.U. after   19 cycles

 Excitation energies and oscillator strengths:

 Excited State   1:      Singlet-A      1.6590 eV  747.35 nm  f=0.3878  <S**2>=0.000
     309 -> 316       -0.15616
     311 -> 313        0.69166
     309 <- 316       -0.10434
 This state for optimization and/or second-order correction.
 Total Energy, E(TD-HF/TD-DFT) =  -4069.74488138
 Copying the excited state density for this state as the 1-particle RhoCI density.

 Excited State   2:      Singlet-A      1.7535 eV  707.08 nm  f=0.3757  <S**2>=0.000
     310 -> 315        0.18842
     312 -> 314        0.68194
     310 <- 315        0.10759

 Excited State   3:      Singlet-A      2.1782 eV  569.21 nm  f=0.2130  <S**2>=0.000
     309 -> 313        0.66758
     311 -> 316        0.21705

 Excited State   4:      Singlet-A      2.2093 eV  561.19 nm  f=0.1106  <S**2>=0.000
     310 -> 314        0.64204
     312 -> 315       -0.28092

 Excited State   5:      Singlet-A      2.8898 eV  429.04 nm  f=0.0000  <S**2>=0.000
     312 -> 313        0.70710

 The electronic state is 1-A.
 Alpha  occ. eigenvalues --  -46.89797 -46.88869 -19.24774 -19.24247 -19.19861
 Alpha  occ. eigenvalues --  -19.19382 -19.19272 -19.18753 -19.17504 -19.17410
 Alpha  occ. eigenvalues --  -14.42654 -14.42280 -14.41862 -14.41404 -14.39744
 Alpha  occ. eigenvalues --  -14.39678 -14.39656 -14.39543 -10.39108 -10.38590
 Alpha  occ. eigenvalues --  -10.35947 -10.35047 -10.33968 -10.33279 -10.31882
 Alpha  occ. eigenvalues --  -10.31698 -10.31397 -10.31381 -10.31083 -10.31080
 Alpha  occ. eigenvalues --  -10.30877 -10.30774 -10.30766 -10.30704 -10.30671
 Alpha  occ. eigenvalues --  -10.30423 -10.30337 -10.30180 -10.29833 -10.29824
 Alpha  occ. eigenvalues --  -10.29340 -10.29045 -10.29030 -10.28926 -10.28803
 Alpha  occ. eigenvalues --  -10.28755 -10.28358 -10.28280 -10.28096 -10.28089
 Alpha  occ. eigenvalues --  -10.28083 -10.28083 -10.28037 -10.27984 -10.27970
 Alpha  occ. eigenvalues --  -10.27967 -10.27963 -10.27961 -10.27931 -10.27896
 Alpha  occ. eigenvalues --  -10.27742 -10.27669 -10.27394 -10.27386 -10.27357
 Alpha  occ. eigenvalues --  -10.27315 -10.27206 -10.27114 -10.27021 -10.27005
 Alpha  occ. eigenvalues --  -10.26688 -10.26581 -10.26366 -10.26337 -10.26308
 Alpha  occ. eigenvalues --  -10.26165 -10.25984 -10.25949 -10.25918 -10.25851
 Alpha  occ. eigenvalues --  -10.25697 -10.25598 -10.25570 -10.25512 -10.25512
 Alpha  occ. eigenvalues --  -10.23876  -3.18132  -3.17531  -1.93047  -1.92623
 Alpha  occ. eigenvalues --   -1.92400  -1.92389  -1.91983  -1.91853  -1.16501
 Alpha  occ. eigenvalues --   -1.14333  -1.10195  -1.09225  -1.08444  -1.07443
 Alpha  occ. eigenvalues --   -1.06984  -1.06290  -1.06089  -1.04887  -1.04006
 Alpha  occ. eigenvalues --   -1.03678  -1.03634  -1.03012  -1.02506  -1.01681
 Alpha  occ. eigenvalues --   -0.93674  -0.92261  -0.89727  -0.89524  -0.88772
 Alpha  occ. eigenvalues --   -0.88264  -0.88020  -0.87807  -0.87435  -0.87232
 Alpha  occ. eigenvalues --   -0.86811  -0.86770  -0.86214  -0.85455  -0.84714
 Alpha  occ. eigenvalues --   -0.84301  -0.84011  -0.83351  -0.83120  -0.82518
 Alpha  occ. eigenvalues --   -0.82204  -0.82048  -0.81036  -0.80828  -0.80653
 Alpha  occ. eigenvalues --   -0.80027  -0.78541  -0.78302  -0.77556  -0.77459
 Alpha  occ. eigenvalues --   -0.77260  -0.76423  -0.76197  -0.75708  -0.75418
 Alpha  occ. eigenvalues --   -0.74957  -0.73331  -0.72502  -0.71537  -0.70917
 Alpha  occ. eigenvalues --   -0.70444  -0.69265  -0.69016  -0.68619  -0.68146
 Alpha  occ. eigenvalues --   -0.67819  -0.66916  -0.66894  -0.65672  -0.65294
 Alpha  occ. eigenvalues --   -0.65110  -0.64885  -0.64875  -0.64623  -0.64453
 Alpha  occ. eigenvalues --   -0.64214  -0.62025  -0.61395  -0.60726  -0.60207
 Alpha  occ. eigenvalues --   -0.59754  -0.59495  -0.59482  -0.58833  -0.58584
 Alpha  occ. eigenvalues --   -0.58371  -0.58109  -0.57918  -0.57655  -0.57503
 Alpha  occ. eigenvalues --   -0.56259  -0.56000  -0.55877  -0.55605  -0.55249
 Alpha  occ. eigenvalues --   -0.54929  -0.54857  -0.54599  -0.54175  -0.53670
 Alpha  occ. eigenvalues --   -0.53574  -0.53220  -0.53204  -0.52995  -0.52849
 Alpha  occ. eigenvalues --   -0.52817  -0.52604  -0.52535  -0.52388  -0.52002
 Alpha  occ. eigenvalues --   -0.51733  -0.51530  -0.51395  -0.51267  -0.51199
 Alpha  occ. eigenvalues --   -0.50996  -0.50786  -0.50434  -0.50276  -0.49879
 Alpha  occ. eigenvalues --   -0.49828  -0.49819  -0.49695  -0.49488  -0.49468
 Alpha  occ. eigenvalues --   -0.49226  -0.49192  -0.49185  -0.48934  -0.48841
 Alpha  occ. eigenvalues --   -0.48708  -0.48550  -0.48302  -0.48126  -0.47958
 Alpha  occ. eigenvalues --   -0.47906  -0.47835  -0.47548  -0.47486  -0.47293
 Alpha  occ. eigenvalues --   -0.47239  -0.46714  -0.46589  -0.46500  -0.46492
 Alpha  occ. eigenvalues --   -0.46358  -0.46171  -0.46140  -0.45923  -0.45798
 Alpha  occ. eigenvalues --   -0.45464  -0.45368  -0.45092  -0.44949  -0.44907
 Alpha  occ. eigenvalues --   -0.44811  -0.44574  -0.44341  -0.44200  -0.43925
 Alpha  occ. eigenvalues --   -0.43758  -0.43725  -0.43679  -0.43423  -0.43247
 Alpha  occ. eigenvalues --   -0.43181  -0.43066  -0.42821  -0.42701  -0.42657
 Alpha  occ. eigenvalues --   -0.42454  -0.42342  -0.42087  -0.41985  -0.41843
 Alpha  occ. eigenvalues --   -0.41801  -0.41602  -0.41559  -0.41353  -0.41311
 Alpha  occ. eigenvalues --   -0.41234  -0.41121  -0.40661  -0.40611  -0.40567
 Alpha  occ. eigenvalues --   -0.40096  -0.39790  -0.39756  -0.39461  -0.39240
 Alpha  occ. eigenvalues --   -0.39096  -0.38555  -0.38214  -0.37737  -0.37157
 Alpha  occ. eigenvalues --   -0.36920  -0.36607  -0.36377  -0.36343  -0.36075
 Alpha  occ. eigenvalues --   -0.35790  -0.35473  -0.34588  -0.34280  -0.33913
 Alpha  occ. eigenvalues --   -0.33649  -0.33109  -0.33025  -0.31541  -0.31369
 Alpha  occ. eigenvalues --   -0.31293  -0.31185  -0.30306  -0.30107  -0.29940
 Alpha  occ. eigenvalues --   -0.29865  -0.29783  -0.29535  -0.24244  -0.23769
 Alpha  occ. eigenvalues --   -0.21702  -0.21222
 Alpha virt. eigenvalues --   -0.09631  -0.08520  -0.01762  -0.00750   0.00163
 Alpha virt. eigenvalues --    0.00318   0.01767   0.02280   0.02346   0.02602
 Alpha virt. eigenvalues --    0.03959   0.05004   0.05032   0.05561   0.06000

 Mulliken charges:
               1
     1  Mg  11.997467
     2  C    5.963121
     3  C    5.984333
     4  C    6.037619
     5  C    6.004425
     6  N    6.970779
     7  C    6.036404
     8  C    5.985439
     9  C    6.001038
    10  C    5.987904
    11  C    6.004225
    12  C    5.997936
    13  C    6.001135
    14  H    1.004492
    15  N    7.006146
    16  C    5.963832
    17  C    5.979217
    18  C    5.985921
    19  C    5.967060
    20  C    6.000851
    21  C    5.988065
    22  O    7.964207
    23  C    6.005415
    24  N    7.025696
    25  C    5.961954
    26  C    6.005125
    27  C    5.995385
    28  C    6.018538
    29  C    6.000322
    30  C    5.995106
    31  C    6.000377
    32  N    6.995761
    33  C    6.034318
    34  C    6.033291
    35  C    5.998316
    36  C    6.045660
    37  C    5.996065
    38  C    6.012751
    39  O    8.025965
    40  C    6.008287
    41  C    6.005902
    42  O    8.003224
    43  O    8.000415
    44  C    5.996577
    45  H    0.977067
    46  H    1.002629
    47  H    1.017724
    48  H    0.999633
    49  H    0.999784
    50  H    1.000334
    51  H    0.998537
    52  H    0.983463
    53  H    1.012008
    54  H    0.993385
    55  H    0.994539
    56  H    1.002138
    57  H    0.979490
    58  H    0.985378
    59  H    0.983364
    60  H    0.991402
    61  H    0.984439
    62  H    0.995240
    63  H    1.005793
    64  H    1.002140
    65  H    1.004733
    66  H    1.003181
    67  H    0.991828
    68  H    0.998141
    69  H    1.006981
    70  H    1.008054
    71  H    1.005983
    72  H    1.002472
    73  H    1.014760
    74  H    1.022698
    75  H    1.020605
    76  H    1.005170
    77  H    1.003690
    78  H    1.006116
    79  H    1.001032
    80  Mg  12.000021
    81  C    5.999956
    82  C    5.999957
    83  C    6.000095
    84  C    6.000071
    85  N    7.000009
    86  C    6.000018
    87  C    5.999980
    88  C    6.000021
    89  C    6.000009
    90  C    6.000002
    91  C    5.999993
    92  C    6.000008
    93  H    0.999924
    94  N    6.999993
    95  C    6.000034
    96  C    5.999977
    97  C    6.000033
    98  C    5.999940
    99  C    5.999997
   100  C    6.000014
   101  O    8.000006
   102  C    5.999995
   103  N    6.999983
   104  C    5.999975
   105  C    6.000020
   106  C    5.999993
   107  C    5.999974
   108  C    6.000000
   109  C    5.999992
   110  C    5.999983
   111  N    7.000016
   112  C    5.999933
   113  C    6.000037
   114  C    5.999977
   115  C    6.000060
   116  C    5.999992
   117  C    5.999982
   118  O    7.999985
   119  C    5.999998
   120  C    5.999984
   121  O    7.999948
   122  O    8.000032
   123  C    6.000024
   124  H    0.999984
   125  H    0.999991
   126  H    0.999998
   127  H    0.999963
   128  H    1.000020
   129  H    1.000002
   130  H    0.999957
   131  H    0.999976
   132  H    1.000031
   133  H    1.000046
   134  H    1.000024
   135  H    1.000011
   136  H    1.000009
   137  H    0.999975
   138  H    1.000028
   139  H    1.000029
   140  H    0.999976
   141  H    1.000003
   142  H    1.000052
   143  H    0.999948
   144  H    0.999954
   145  H    0.999991
   146  H    1.000006
   147  H    1.000022
   148  H    1.000002
   149  H    0.999998
   150  H    1.000093
   151  H    1.000022
   152  H    1.000075
   153  H    1.000014
   154  H    0.999903
   155  H    1.000054
   156  H    0.999920
   157  H    0.999967
   158  H    1.000017
 Sum of Mulliken charges = 624.00000

 Dipole moment (field-independent basis, Debye):
    X=             -0.3834    Y=              3.9771    Z=            -10.3590  Tot=             11.1028
 Quadrupole moment (field-independent basis, Debye-Ang):
   XX=             14.1162   YY=             -1.9529   ZZ=             -3.1717
   XY=            -71.3495   XZ=            187.4545   YZ=              9.2268

 Normal termination of Gaussian 16 at Tue Sep 21 21:35:52 2021.
