 Gaussian 16, Revision A.03,
 Gaussian 16:  ES64L-G16RevA.03 25-Dec-2016

 ----------------------------------------------------------
 #p cam-b3lyp/Def2SVP td=(nstates=5) density=(transition=1)
 ----------------------------------------------------------

 --------------------------------
 TDDFT excited states in gaussian
 --------------------------------
 Symbolic Z-matrix:
 Charge =  0 Multiplicity = 1

                         Standard orientation:
 ---------------------------------------------------------------------
 Center     Atomic      Atomic             Coordinates (Angstroms)
 Number     Number       Type             X           Y           Z
 ---------------------------------------------------------------------
      1         12           0      -21.728826    0.216016   -0.764044
      2          6           0      -18.329629   -0.837656   -0.652788
      3          6           0      -22.716826   -3.062987   -0.832925
      4          6           0      -24.944693    1.216102    0.187314
      5          6           0      -20.662634    3.498170   -0.101348
      6          7           0      -20.518215   -1.760179   -0.479518
      7          6           0      -19.206324   -1.949751   -0.695743
      8          6           0      -18.968389   -3.390373   -1.109940
      9          6           0      -20.379960   -4.152204   -1.106235
     10          6           0      -21.283126   -2.829229   -0.925686
     11          6           0      -20.569395   -4.855661   -2.468968
     12          6           0      -17.955993   -4.057392   -0.192756
     13          6           0      -18.026102   -3.691052    1.308800
     14          1           0      -18.588261   -4.774573    2.269133
     15          7           0      -23.638792   -0.788749   -0.453680
     16          6           0      -23.766514   -2.158756   -0.527559
     17          6           0      -25.168815   -2.422280   -0.443406
     18          6           0      -25.877888   -1.224252   -0.048967
     19          6           0      -24.845710   -0.159809   -0.128631
     20          6           0      -25.739047   -3.820827   -0.494488
     21          6           0      -27.309837   -1.109786    0.476213
     22          8           0      -27.981732   -2.110800    0.634448
     23          6           0      -27.927269    0.135961    0.820128
     24          7           0      -22.662081    2.059133    0.041506
     25          6           0      -23.968545    2.222685    0.188489
     26          6           0      -24.353201    3.618169    0.652372
     27          6           0      -22.904873    4.222049    0.903934
     28          6           0      -22.013902    3.263767    0.199264
     29          6           0      -25.208601    4.448527   -0.424225
     30          6           0      -22.640916    4.408910    2.468741
     31          6           0      -22.532036    5.783608    3.065286
     32          7           0      -19.966211    1.178677   -0.687319
     33          6           0      -19.685256    2.551624   -0.533779
     34          6           0      -18.242241    2.808594   -0.697212
     35          6           0      -17.734965    1.511103   -0.764625
     36          6           0      -18.765289    0.515528   -0.634052
     37          6           0      -17.482640    4.168729   -0.873289
     38          6           0      -16.468059    0.781448   -0.878343
     39          8           0      -15.286355    1.144884   -0.998322
     40          6           0      -16.783907   -0.749934   -0.830198
     41          6           0      -16.056786   -1.116548    0.417326
     42          8           0      -16.256410   -0.639479    1.504961
     43          8           0      -15.064047   -1.955772    0.136446
     44          6           0      -14.243530   -2.530701    1.259006
     45          1           0      -23.033881   -4.057630   -1.152798
     46          1           0      -25.903307    1.678672    0.430538
     47          1           0      -20.437445    4.517186    0.221780
     48          1           0      -18.538094   -3.200857   -2.093345
     49          1           0      -20.475355   -4.852722   -0.276184
     50          1           0      -20.679010   -5.924391   -2.285937
     51          1           0      -19.726458   -4.752677   -3.152794
     52          1           0      -21.501957   -4.465961   -2.876205
     53          1           0      -16.947175   -3.817722   -0.528941
     54          1           0      -18.084908   -5.140072   -0.204255
     55          1           0      -18.703354   -2.889878    1.604365
     56          1           0      -16.998210   -3.443461    1.574071
     57          1           0      -24.955691   -4.576191   -0.561815
     58          1           0      -26.473627   -3.846975   -1.300084
     59          1           0      -26.355998   -3.949984    0.394086
     60          1           0      -27.473060    0.668501    1.655986
     61          1           0      -28.968274   -0.041188    1.089686
     62          1           0      -27.794176    0.726289   -0.087106
     63          1           0      -24.844309    3.643428    1.624810
     64          1           0      -23.034896    5.237488    0.529234
     65          1           0      -25.419341    3.815781   -1.286882
     66          1           0      -24.582016    5.273264   -0.764316
     67          1           0      -26.126195    4.908842   -0.054615
     68          1           0      -21.662805    4.020633    2.752949
     69          1           0      -23.396294    3.889548    3.056864
     70          1           0      -21.507201    6.102682    3.255206
     71          1           0      -23.055906    5.611258    4.006053
     72          1           0      -23.165553    6.537893    2.598290
     73          1           0      -17.431878    4.646918    0.104521
     74          1           0      -18.019543    4.738119   -1.632169
     75          1           0      -16.453985    3.951740   -1.160619
     76          1           0      -16.396625   -1.164341   -1.761718
     77          1           0      -13.427039   -1.875908    1.564304
     78          1           0      -13.809997   -3.491328    0.977933
     79          1           0      -14.956359   -2.688175    2.068417
     80         12           0       20.875875    0.704680   -0.442550
     81          6           0       21.512953   -2.757272    0.232305
     82          6           0       17.714158    0.243891    1.077414
     83          6           0       20.534452    4.041547   -0.347488
     84          6           0       24.209981    1.065990   -1.258989
     85          7           0       19.709664   -1.062075    0.546525
     86          6           0       20.247835   -2.309837    0.693629
     87          6           0       19.381538   -3.131018    1.635457
     88          6           0       18.083913   -2.219295    1.617694
     89          6           0       18.464626   -0.901712    1.058186
     90          6           0       16.831869   -2.768635    0.854898
     91          6           0       20.133606   -3.373195    2.983375
     92          6           0       20.130651   -4.814377    3.640463
     93          1           0       19.499655   -5.018002    5.029618
     94          7           0       19.345481    1.940771    0.059743
     95          6           0       18.107269    1.586605    0.657552
     96          6           0       17.273009    2.761227    0.831992
     97          6           0       18.119647    3.867971    0.416200
     98          6           0       19.384395    3.281798    0.013770
     99          6           0       15.947774    2.683941    1.467559
    100          6           0       17.641020    5.330246    0.420729
    101          8           0       16.492264    5.541649    0.908105
    102          6           0       18.440441    6.536710   -0.115610
    103          7           0       22.237329    2.422477   -0.496977
    104          6           0       21.830744    3.672129   -0.612672
    105          6           0       23.027298    4.543250   -0.820622
    106          6           0       24.166000    3.546972   -1.166901
    107          6           0       23.529274    2.222807   -0.876129
    108          6           0       22.961154    5.749380   -1.852204
    109          6           0       25.543648    3.763036   -0.351835
    110          6           0       26.812562    4.169996   -1.140309
    111          7           0       22.466551   -0.544662   -0.701829
    112          6           0       23.741115   -0.273779   -1.030002
    113          6           0       24.527350   -1.451518   -1.081446
    114          6           0       23.665788   -2.455652   -0.633691
    115          6           0       22.411294   -1.851670   -0.365901
    116          6           0       25.928325   -1.664628   -1.493883
    117          6           0       23.662629   -3.854013   -0.332617
    118          8           0       24.585364   -4.636415   -0.376812
    119          6           0       22.165469   -4.112666    0.329584
    120          6           0       21.437611   -5.113924   -0.459061
    121          8           0       21.391306   -5.161458   -1.694825
    122          8           0       20.809956   -5.946549    0.442773
    123          6           0       20.018089   -7.037573   -0.122839
    124          1           0       16.725371    0.165582    1.531953
    125          1           0       20.516720    5.127600   -0.238295
    126          1           0       25.197039    1.088645   -1.725922
    127          1           0       19.111103   -4.035218    1.089518
    128          1           0       17.983244   -2.086671    2.695542
    129          1           0       16.560373   -2.027616    0.101684
    130          1           0       15.951249   -2.905729    1.482055
    131          1           0       16.991443   -3.684434    0.284914
    132          1           0       19.583532   -2.677821    3.616998
    133          1           0       21.172066   -3.044318    3.015557
    134          1           0       21.179276   -5.110861    3.656210
    135          1           0       19.733336   -5.517102    2.908687
    136          1           0       16.093707    2.164976    2.415204
    137          1           0       15.289331    2.046492    0.877829
    138          1           0       15.370892    3.604594    1.559171
    139          1           0       19.258015    6.732437    0.578392
    140          1           0       17.673750    7.260399   -0.390346
    141          1           0       18.843475    6.156100   -1.054725
    142          1           0       23.217774    5.039175    0.130349
    143          1           0       24.193658    3.613281   -2.254605
    144          1           0       23.669982    6.478253   -1.458459
    145          1           0       21.935337    6.115665   -1.889506
    146          1           0       23.312732    5.357497   -2.806785
    147          1           0       25.689140    2.810826    0.158024
    148          1           0       25.332649    4.451557    0.466302
    149          1           0       27.676505    3.552741   -0.897572
    150          1           0       27.032814    5.216105   -0.925955
    151          1           0       26.675483    4.168782   -2.221816
    152          1           0       26.126257   -2.710489   -1.726468
    153          1           0       26.400945   -1.337851   -0.567446
    154          1           0       26.207402   -0.853183   -2.165905
    155          1           0       22.234720   -4.314857    1.397827
    156          1           0       20.588753   -7.615978   -0.849755
    157          1           0       19.111451   -6.636971   -0.578687
    158          1           0       19.738022   -7.717430    0.681844
 ---------------------------------------------------------------------

 SCF Done:  E(RCAM-B3LYP) =  -4069.75216006     A.U. after   18 cycles

 Excitation energies and oscillator strengths:

 Excited State   1:      Singlet-A      1.6889 eV  734.11 nm  f=0.3748  <S**2>=0.000
     309 -> 315       -0.20015
     311 -> 314        0.67848
     309 <- 315       -0.11457
 This state for optimization and/or second-order correction.
 Total Energy, E(TD-HF/TD-DFT) =  -4069.69009356
 Copying the excited state density for this state as the 1-particle RhoCI density.

 Excited State   2:      Singlet-A      1.6990 eV  729.75 nm  f=0.3703  <S**2>=0.000
     310 -> 316       -0.18478
     312 -> 313        0.68334
     310 <- 316       -0.11116

 Excited State   3:      Singlet-A      2.1999 eV  563.59 nm  f=0.0720  <S**2>=0.000
     309 -> 314        0.61855
     311 -> 315        0.32995

 Excited State   4:      Singlet-A      2.2522 eV  550.49 nm  f=0.1328  <S**2>=0.000
     310 -> 313        0.64093
     312 -> 316        0.28919

 Excited State   5:      Singlet-A      3.1518 eV  393.37 nm  f=0.0000  <S**2>=0.000
     311 -> 313        0.70710

 The electronic state is 1-A.
 Alpha  occ. eigenvalues --  -46.90220 -46.88904 -19.26275 -19.25086 -19.20559
 Alpha  occ. eigenvalues --  -19.19739 -19.18865 -19.18861 -19.18128 -19.18077
 Alpha  occ. eigenvalues --  -14.42439 -14.41982 -14.41931 -14.41398 -14.40147
 Alpha  occ. eigenvalues --  -14.39929 -14.39823 -14.39548 -10.40096 -10.38735
 Alpha  occ. eigenvalues --  -10.35446 -10.35241 -10.34977 -10.34330 -10.32468
 Alpha  occ. eigenvalues --  -10.32453 -10.32015 -10.31398 -10.31187 -10.30987
 Alpha  occ. eigenvalues --  -10.30936 -10.30771 -10.30746 -10.30713 -10.30634
 Alpha  occ. eigenvalues --  -10.30397 -10.30325 -10.30307 -10.29963 -10.29857
 Alpha  occ. eigenvalues --  -10.29753 -10.29079 -10.28947 -10.28863 -10.28827
 Alpha  occ. eigenvalues --  -10.28737 -10.28730 -10.28559 -10.28412 -10.28392
 Alpha  occ. eigenvalues --  -10.28161 -10.28106 -10.28098 -10.28072 -10.27860
 Alpha  occ. eigenvalues --  -10.27776 -10.27677 -10.27623 -10.27589 -10.27516
 Alpha  occ. eigenvalues --  -10.27485 -10.27468 -10.27452 -10.27448 -10.27230
 Alpha  occ. eigenvalues --  -10.27195 -10.27022 -10.26995 -10.26993 -10.26919
 Alpha  occ. eigenvalues --  -10.26804 -10.26783 -10.26672 -10.26603 -10.26433
 Alpha  occ. eigenvalues --  -10.26421 -10.26402 -10.26233 -10.26201 -10.26073
 Alpha  occ. eigenvalues --  -10.25794 -10.25645 -10.25524 -10.25058 -10.25042
 Alpha  occ. eigenvalues --  -10.24559  -3.18526  -3.17458  -1.93390  -1.93014
 Alpha  occ. eigenvalues --   -1.92804  -1.92348  -1.91902  -1.91775  -1.17072
 Alpha  occ. eigenvalues --   -1.16545  -1.10820  -1.10223  -1.08826  -1.08170
 Alpha  occ. eigenvalues --   -1.07712  -1.07237  -1.05449  -1.04723  -1.04609
 Alpha  occ. eigenvalues --   -1.03740  -1.03686  -1.02405  -1.02337  -1.01610
 Alpha  occ. eigenvalues --   -0.93179  -0.91954  -0.89324  -0.88959  -0.88828
 Alpha  occ. eigenvalues --   -0.88282  -0.88261  -0.88130  -0.87970  -0.87472
 Alpha  occ. eigenvalues --   -0.87096  -0.86127  -0.86003  -0.85365  -0.84694
 Alpha  occ. eigenvalues --   -0.84634  -0.84051  -0.83857  -0.82860  -0.82726
 Alpha  occ. eigenvalues --   -0.82627  -0.82014  -0.81364  -0.81102  -0.80483
 Alpha  occ. eigenvalues --   -0.80262  -0.78220  -0.77908  -0.77645  -0.77356
 Alpha  occ. eigenvalues --   -0.76876  -0.76396  -0.76308  -0.76298  -0.75342
 Alpha  occ. eigenvalues --   -0.74973  -0.73194  -0.72863  -0.72212  -0.71729
 Alpha  occ. eigenvalues --   -0.69811  -0.69386  -0.68908  -0.68533  -0.68482
 Alpha  occ. eigenvalues --   -0.68128  -0.66748  -0.66689  -0.66153  -0.65633
 Alpha  occ. eigenvalues --   -0.65590  -0.65202  -0.65116  -0.64763  -0.64762
 Alpha  occ. eigenvalues --   -0.64038  -0.62959  -0.62426  -0.60292  -0.60142
 Alpha  occ. eigenvalues --   -0.59901  -0.59545  -0.59279  -0.58986  -0.58916
 Alpha  occ. eigenvalues --   -0.58699  -0.58430  -0.57809  -0.57591  -0.57270
 Alpha  occ. eigenvalues --   -0.56324  -0.56238  -0.55982  -0.55848  -0.55648
 Alpha  occ. eigenvalues --   -0.55042  -0.54914  -0.54858  -0.54517  -0.54502
 Alpha  occ. eigenvalues --   -0.53871  -0.53692  -0.53538  -0.53291  -0.53064
 Alpha  occ. eigenvalues --   -0.52935  -0.52630  -0.52623  -0.52498  -0.52095
 Alpha  occ. eigenvalues --   -0.52026  -0.51764  -0.51758  -0.51533  -0.51412
 Alpha  occ. eigenvalues --   -0.51227  -0.50678  -0.50579  -0.50336  -0.50164
 Alpha  occ. eigenvalues --   -0.50027  -0.49970  -0.49810  -0.49696  -0.49565
 Alpha  occ. eigenvalues --   -0.49489  -0.49406  -0.49221  -0.48955  -0.48784
 Alpha  occ. eigenvalues --   -0.48514  -0.48462  -0.48265  -0.47936  -0.47803
 Alpha  occ. eigenvalues --   -0.47741  -0.47650  -0.47589  -0.47448  -0.47308
 Alpha  occ. eigenvalues --   -0.47028  -0.46956  -0.46906  -0.46643  -0.46602
 Alpha  occ. eigenvalues --   -0.46452  -0.46296  -0.46124  -0.45931  -0.45808
 Alpha  occ. eigenvalues --   -0.45619  -0.45605  -0.45373  -0.45313  -0.45185
 Alpha  occ. eigenvalues --   -0.45102  -0.44979  -0.44899  -0.44536  -0.44360
 Alpha  occ. eigenvalues --   -0.43953  -0.43774  -0.43680  -0.43654  -0.43579
 Alpha  occ. eigenvalues --   -0.43555  -0.43273  -0.43218  -0.43082  -0.42944
 Alpha  occ. eigenvalues --   -0.42892  -0.42804  -0.42393  -0.42321  -0.42001
 Alpha  occ. eigenvalues --   -0.41522  -0.41497  -0.41410  -0.41290  -0.41225
 Alpha  occ. eigenvalues --   -0.41101  -0.40864  -0.40850  -0.40331  -0.40226
 Alpha  occ. eigenvalues --   -0.40123  -0.40028  -0.39807  -0.38923  -0.38742
 Alpha  occ. eigenvalues --   -0.38646  -0.38245  -0.37995  -0.37722  -0.37635
 Alpha  occ. eigenvalues --   -0.37423  -0.37116  -0.36752  -0.36444  -0.36387
 Alpha  occ. eigenvalues --   -0.35849  -0.35715  -0.35187  -0.34255  -0.34109
 Alpha  occ. eigenvalues --   -0.34108  -0.33352  -0.33014  -0.31386  -0.31327
 Alpha  occ. eigenvalues --   -0.31123  -0.30748  -0.30682  -0.30327  -0.30279
 Alpha  occ. eigenvalues --   -0.30106  -0.29365  -0.28927  -0.24287  -0.24166
 Alpha  occ. eigenvalues --   -0.21321  -0.21308
 Alpha virt. eigenvalues --   -0.08924  -0.08771  -0.02560  -0.01728   0.00261
 Alpha virt. eigenvalues --    0.00287   0.01027   0.02304   0.02424   0.02429
 Alpha virt. eigenvalues --    0.04250   0.04781   0.05011   0.05183   0.05832

 Mulliken charges:
               1
     1  Mg  11.995019
     2  C    5.983169
     3  C    6.032977
     4  C    6.020086
     5  C    5.974211
     6  N    6.993207
     7  C    6.030646
     8  C    5.998850
     9  C    6.015166
    10  C    5.954722
    11  C    6.001206
    12  C    5.997002
    13  C    5.991961
    14  H    1.013974
    15  N    7.013473
    16  C    5.948964
    17  C    5.984106
    18  C    5.987862
    19  C    5.955987
    20  C    6.004998
    21  C    5.988651
    22  O    7.981775
    23  C    6.004424
    24  N    6.995901
    25  C    5.971200
    26  C    6.013218
    27  C    5.984055
    28  C    6.040740
    29  C    6.002896
    30  C    5.998941
    31  C    5.997980
    32  N    6.992535
    33  C    6.048646
    34  C    6.025870
    35  C    6.003160
    36  C    6.036285
    37  C    6.003329
    38  C    6.014613
    39  O    8.033183
    40  C    6.000665
    41  C    6.006721
    42  O    8.001986
    43  O    8.001426
    44  C    5.997856
    45  H    0.994377
    46  H    0.990318
    47  H    1.009087
    48  H    0.994017
    49  H    0.993091
    50  H    0.995127
    51  H    0.988616
    52  H    1.004070
    53  H    0.994951
    54  H    1.008216
    55  H    0.999847
    56  H    0.996124
    57  H    0.979945
    58  H    0.980166
    59  H    0.982803
    60  H    0.988580
    61  H    0.987422
    62  H    0.993381
    63  H    0.997757
    64  H    1.005363
    65  H    1.003547
    66  H    0.987222
    67  H    0.998292
    68  H    0.996421
    69  H    1.013933
    70  H    0.997438
    71  H    1.005308
    72  H    1.004886
    73  H    1.017175
    74  H    1.015424
    75  H    1.011402
    76  H    1.009926
    77  H    1.001827
    78  H    1.005960
    79  H    1.004333
    80  Mg  12.000009
    81  C    5.998304
    82  C    6.001886
    83  C    6.001739
    84  C    5.998009
    85  N    7.000324
    86  C    6.002389
    87  C    5.999379
    88  C    6.000717
    89  C    5.997502
    90  C    6.000236
    91  C    5.999364
    92  C    5.999945
    93  H    1.000790
    94  N    7.000572
    95  C    5.995701
    96  C    5.998571
    97  C    5.998907
    98  C    5.996966
    99  C    6.000450
   100  C    5.999039
   101  O    7.998171
   102  C    5.999897
   103  N    6.999996
   104  C    5.997334
   105  C    6.000929
   106  C    5.999055
   107  C    6.002920
   108  C    6.000114
   109  C    5.999834
   110  C    5.999890
   111  N    6.999631
   112  C    6.003319
   113  C    6.002093
   114  C    6.000481
   115  C    6.002719
   116  C    5.999992
   117  C    6.001183
   118  O    8.002213
   119  C    6.000439
   120  C    6.000375
   121  O    8.000324
   122  O    8.000201
   123  C    5.999763
   124  H    0.999239
   125  H    0.999459
   126  H    1.000559
   127  H    1.000021
   128  H    0.999791
   129  H    1.000360
   130  H    0.999780
   131  H    0.998956
   132  H    1.001005
   133  H    0.999607
   134  H    0.999768
   135  H    1.000001
   136  H    0.998394
   137  H    0.998257
   138  H    0.998726
   139  H    0.999180
   140  H    0.998985
   141  H    0.999403
   142  H    0.999899
   143  H    1.000247
   144  H    0.999592
   145  H    1.000563
   146  H    0.999436
   147  H    0.999542
   148  H    1.000809
   149  H    0.999885
   150  H    1.000504
   151  H    1.000122
   152  H    1.001145
   153  H    1.001581
   154  H    1.001602
   155  H    1.000799
   156  H    1.000187
   157  H    1.000480
   158  H    1.000442
 Sum of Mulliken charges = 624.00000

 Dipole moment (field-independent basis, Debye):
    X=              9.9175    Y=              4.3198    Z=             -0.1402  Tot=             10.8184
 Quadrupole moment (field-independent basis, Debye-Ang):
   XX=           -373.2759   YY=              1.7484   ZZ=              0.7870
   XY=           -116.9885   XZ=             -5.6145   YZ=             -3.4218

 Normal termination of Gaussian 16 at Tue Sep 21 19:27:00 2021.
