 Gaussian 16, Revision A.03,
 Gaussian 16:  ES64L-G16RevA.03 25-Dec-2016

 -----------------------------------
 #p cam-b3lyp/Def2SVP td=(nstates=5)
 -----------------------------------

 --------------------------------
 TDDFT excited states in gaussian
 --------------------------------
 Symbolic Z-matrix:
 Charge =  0 Multiplicity = 1

                         Standard orientation:
 ---------------------------------------------------------------------
 Center     Atomic      Atomic             Coordinates (Angstroms)
 Number     Number       Type             X           Y           Z
 ---------------------------------------------------------------------
      1         12           0      -29.838578   -0.554364   -0.166132
      2          6           0      -26.522966   -0.311239   -1.440789
      3          6           0      -28.738629   -2.770738    2.202526
      4          6           0      -32.758513    0.035056    1.670610
      5          6           0      -30.755686    2.141243   -2.225522
      6          7           0      -27.682173   -1.223794    0.428559
      7          6           0      -26.581601   -1.202272   -0.340872
      8          6           0      -25.647225   -2.319014    0.087374
      9          6           0      -26.320866   -3.089713    1.322351
     10          6           0      -27.760882   -2.375748    1.199164
     11          6           0      -26.346144   -4.602967    1.010583
     12          6           0      -24.272673   -1.771201    0.436076
     13          6           0      -24.228829   -0.409142    1.168650
     14          1           0      -23.847934   -0.434927    2.674151
     15          7           0      -30.701907   -1.345539    1.673040
     16          6           0      -30.026586   -2.241101    2.473415
     17          6           0      -30.964128   -2.653134    3.470520
     18          6           0      -32.134436   -1.802972    3.435317
     19          6           0      -31.950894   -0.999307    2.200323
     20          6           0      -30.616988   -3.649368    4.552518
     21          6           0      -33.222457   -1.657334    4.500397
     22          8           0      -33.141912   -2.280145    5.541612
     23          6           0      -34.358436   -0.797070    4.355890
     24          7           0      -31.473460    0.943469   -0.191030
     25          6           0      -32.569050    0.854250    0.548513
     26          6           0      -33.582907    1.949138    0.258968
     27          6           0      -32.736153    2.832482   -0.755093
     28          6           0      -31.624948    1.925587   -1.144267
     29          6           0      -34.960863    1.410446   -0.366583
     30          6           0      -32.311765    4.214072   -0.073686
     31          6           0      -32.896476    5.512479   -0.553026
     32          7           0      -28.987139    0.477658   -1.665931
     33          6           0      -29.526681    1.471724   -2.507489
     34          6           0      -28.569618    1.827880   -3.571549
     35          6           0      -27.433482    1.125734   -3.169624
     36          6           0      -27.644808    0.402556   -1.944004
     37          6           0      -28.792072    2.669090   -4.875712
     38          6           0      -26.035200    0.897283   -3.547771
     39          8           0      -25.336969    1.290028   -4.497050
     40          6           0      -25.389929   -0.042307   -2.476322
     41          6           0      -24.345779    0.873107   -1.936694
     42          8           0      -24.553850    1.950612   -1.440625
     43          8           0      -23.135275    0.387752   -2.197131
     44          6           0      -21.922909    1.104862   -1.668121
     45          1           0      -28.480571   -3.678351    2.751892
     46          1           0      -33.732275    0.276651    2.101294
     47          1           0      -31.099685    3.044706   -2.734380
     48          1           0      -25.620540   -2.869307   -0.853168
     49          1           0      -25.819666   -2.883084    2.268349
     50          1           0      -25.777393   -5.117671    1.784729
     51          1           0      -25.881648   -4.877971    0.063281
     52          1           0      -27.391892   -4.901707    1.078025
     53          1           0      -23.684202   -1.658472   -0.474512
     54          1           0      -23.751371   -2.449080    1.112592
     55          1           0      -25.165217    0.137436    1.279731
     56          1           0      -23.505367    0.177994    0.602870
     57          1           0      -29.576042   -3.967974    4.491887
     58          1           0      -31.348643   -4.456530    4.503041
     59          1           0      -30.845551   -3.179594    5.508523
     60          1           0      -34.134432    0.268297    4.297767
     61          1           0      -35.022232   -0.931805    5.209680
     62          1           0      -34.782192   -1.119851    3.404303
     63          1           0      -33.783955    2.603847    1.106549
     64          1           0      -33.503005    3.112474   -1.477566
     65          1           0      -34.940293    0.320983   -0.406637
     66          1           0      -35.012993    1.778055   -1.391574
     67          1           0      -35.874773    1.757900    0.117697
     68          1           0      -31.256345    4.428905   -0.241522
     69          1           0      -32.486397    4.189192    1.001073
     70          1           0      -32.232322    6.082830   -1.202459
     71          1           0      -33.015788    6.018466    0.405581
     72          1           0      -33.929102    5.451387   -0.897012
     73          1           0      -28.825829    3.719689   -4.588561
     74          1           0      -29.702023    2.295116   -5.345288
     75          1           0      -27.914012    2.554467   -5.511043
     76          1           0      -25.037575   -0.918991   -3.021044
     77          1           0      -21.593317    1.914991   -2.319028
     78          1           0      -21.083834    0.419448   -1.541950
     79          1           0      -22.227200    1.474680   -0.688983
     80         12           0       29.653943    0.511311    0.070199
     81          6           0       26.922020   -0.811619   -1.664332
     82          6           0       31.180798   -2.570742   -0.206200
     83          6           0       32.005320    1.512754    2.332763
     84          6           0       27.733849    3.293728    0.821449
     85          7           0       29.113266   -1.370727   -0.905726
     86          6           0       28.071250   -1.594698   -1.716500
     87          6           0       28.168586   -2.883968   -2.545172
     88          6           0       29.460250   -3.549636   -1.932882
     89          6           0       30.063010   -2.376144   -0.976470
     90          6           0       29.276544   -4.880241   -1.171676
     91          6           0       28.231076   -2.666935   -4.057229
     92          6           0       27.695549   -3.862417   -4.865999
     93          1           0       27.197727   -5.109792   -4.122274
     94          7           0       31.411994   -0.333402    0.866327
     95          6           0       31.921371   -1.619805    0.574654
     96          6           0       33.180919   -1.779391    1.273291
     97          6           0       33.413095   -0.607028    2.085066
     98          6           0       32.287556    0.269051    1.763678
     99          6           0       34.055756   -2.978152    1.029353
    100          6           0       34.663407   -0.204931    2.989160
    101          8           0       34.796083    0.876357    3.509072
    102          6           0       35.713179   -1.275233    3.195281
    103          7           0       29.796999    2.101270    1.444910
    104          6           0       30.872026    2.341337    2.249755
    105          6           0       30.726475    3.685228    3.054408
    106          6           0       29.413276    4.227161    2.492278
    107          6           0       28.959343    3.138461    1.538187
    108          6           0       30.848411    3.722357    4.631101
    109          6           0       29.626403    5.582488    1.778150
    110          6           0       30.136950    5.585913    0.320160
    111          7           0       27.762949    1.264971   -0.423741
    112          6           0       27.108892    2.410092   -0.049475
    113          6           0       25.816984    2.485286   -0.645001
    114          6           0       25.671672    1.190521   -1.319293
    115          6           0       26.825232    0.535596   -1.126279
    116          6           0       24.790080    3.529038   -0.615094
    117          6           0       24.751517    0.302462   -2.016178
    118          8           0       23.616761    0.519634   -2.454332
    119          6           0       25.498370   -1.036387   -2.288760
    120          6           0       24.788537   -2.172976   -1.710894
    121          8           0       24.787717   -2.498475   -0.528400
    122          8           0       23.935009   -2.694727   -2.650350
    123          6           0       22.818183   -3.560033   -2.223708
    124          1           0       31.574504   -3.582825   -0.322616
    125          1           0       32.835651    1.921042    2.912630
    126          1           0       27.163182    4.211734    0.976312
    127          1           0       27.372464   -3.584024   -2.292785
    128          1           0       30.274364   -3.653679   -2.649274
    129          1           0       30.011020   -5.499826   -1.685919
    130          1           0       28.268734   -5.269643   -1.313866
    131          1           0       29.467315   -4.741293   -0.107464
    132          1           0       29.238748   -2.428492   -4.395440
    133          1           0       27.635138   -1.797648   -4.336546
    134          1           0       28.566693   -4.091915   -5.479976
    135          1           0       26.945668   -3.556178   -5.596782
    136          1           0       33.445838   -3.668210    0.446212
    137          1           0       34.349317   -3.404719    1.988736
    138          1           0       34.975403   -2.734159    0.495433
    139          1           0       35.468822   -2.085212    3.883310
    140          1           0       36.638090   -0.778517    3.488373
    141          1           0       35.834340   -1.663818    2.184192
    142          1           0       31.593942    4.233517    2.687717
    143          1           0       28.739950    4.338032    3.341476
    144          1           0       30.052938    4.268706    5.136507
    145          1           0       31.765414    4.253079    4.885129
    146          1           0       30.948806    2.693530    4.978122
    147          1           0       30.309756    6.138635    2.418747
    148          1           0       28.657467    6.079056    1.837718
    149          1           0       30.863927    6.397105    0.289768
    150          1           0       29.363127    5.828054   -0.407947
    151          1           0       30.532255    4.629472   -0.020154
    152          1           0       24.375992    3.612096   -1.619342
    153          1           0       25.125677    4.511287   -0.282296
    154          1           0       23.925672    3.182614   -0.048334
    155          1           0       25.557745   -1.086587   -3.375880
    156          1           0       22.828878   -3.746682   -1.149298
    157          1           0       22.936019   -4.521745   -2.723638
    158          1           0       21.964617   -2.965170   -2.546855
 ---------------------------------------------------------------------

 SCF Done:  E(RCAM-B3LYP) =  -4069.78435827     A.U. after   19 cycles

 Excitation energies and oscillator strengths:

 Excited State   1:      Singlet-A      1.6890 eV  734.08 nm  f=0.3529  <S**2>=0.000
     309 -> 315       -0.20075
     311 -> 314        0.68047
     309 <- 315       -0.11491
 This state for optimization and/or second-order correction.
 Total Energy, E(TD-HF/TD-DFT) =  -4069.72228936
 Copying the excited state density for this state as the 1-particle RhoCI density.

 Excited State   2:      Singlet-A      1.7177 eV  721.80 nm  f=0.4123  <S**2>=0.000
     310 -> 316       -0.18152
     312 -> 313        0.68397
     310 <- 316       -0.10677

 Excited State   3:      Singlet-A      2.1355 eV  580.60 nm  f=0.1575  <S**2>=0.000
     310 -> 313        0.65932
     312 -> 316        0.23565

 Excited State   4:      Singlet-A      2.1999 eV  563.59 nm  f=0.0722  <S**2>=0.000
     309 -> 314        0.61855
     311 -> 315        0.32994

 Excited State   5:      Singlet-A      3.2175 eV  385.34 nm  f=0.0000  <S**2>=0.000
     311 -> 313        0.70710

 The electronic state is 1-A.
 Alpha  occ. eigenvalues --  -46.90213 -46.88236 -19.25077 -19.23868 -19.19937
 Alpha  occ. eigenvalues --  -19.18980 -19.18857 -19.18853 -19.18698 -19.18070
 Alpha  occ. eigenvalues --  -14.42432 -14.42273 -14.41975 -14.41885 -14.40140
 Alpha  occ. eigenvalues --  -14.39540 -14.39423 -14.38156 -10.38727 -10.38677
 Alpha  occ. eigenvalues --  -10.36180 -10.35078 -10.34969 -10.34323 -10.32458
 Alpha  occ. eigenvalues --  -10.32008 -10.31391 -10.31162 -10.30980 -10.30929
 Alpha  occ. eigenvalues --  -10.30878 -10.30872 -10.30739 -10.30706 -10.30703
 Alpha  occ. eigenvalues --  -10.30665 -10.30311 -10.29956 -10.29864 -10.29850
 Alpha  occ. eigenvalues --  -10.28867 -10.28856 -10.28845 -10.28820 -10.28728
 Alpha  occ. eigenvalues --  -10.28569 -10.28402 -10.28384 -10.28265 -10.28155
 Alpha  occ. eigenvalues --  -10.28146 -10.28104 -10.28099 -10.28065 -10.27851
 Alpha  occ. eigenvalues --  -10.27769 -10.27670 -10.27655 -10.27568 -10.27563
 Alpha  occ. eigenvalues --  -10.27441 -10.27415 -10.27117 -10.27015 -10.26995
 Alpha  occ. eigenvalues --  -10.26990 -10.26941 -10.26912 -10.26906 -10.26798
 Alpha  occ. eigenvalues --  -10.26593 -10.26584 -10.26415 -10.26338 -10.26315
 Alpha  occ. eigenvalues --  -10.26192 -10.25976 -10.25911 -10.25842 -10.25791
 Alpha  occ. eigenvalues --  -10.25787 -10.25638 -10.25519 -10.25464 -10.25050
 Alpha  occ. eigenvalues --  -10.24751  -3.18519  -3.16761  -1.93383  -1.93007
 Alpha  occ. eigenvalues --   -1.92796  -1.91662  -1.91214  -1.91068  -1.17063
 Alpha  occ. eigenvalues --   -1.15083  -1.11575  -1.10216  -1.08859  -1.08818
 Alpha  occ. eigenvalues --   -1.07703  -1.06638  -1.04602  -1.04443  -1.03678
 Alpha  occ. eigenvalues --   -1.03321  -1.02440  -1.02398  -1.01602  -1.01014
 Alpha  occ. eigenvalues --   -0.92068  -0.91946  -0.89175  -0.88952  -0.88819
 Alpha  occ. eigenvalues --   -0.88802  -0.88254  -0.88133  -0.87089  -0.87088
 Alpha  occ. eigenvalues --   -0.86452  -0.86120  -0.86081  -0.85357  -0.84687
 Alpha  occ. eigenvalues --   -0.84195  -0.84044  -0.83432  -0.82853  -0.82618
 Alpha  occ. eigenvalues --   -0.82332  -0.81959  -0.81094  -0.80994  -0.80254
 Alpha  occ. eigenvalues --   -0.80165  -0.78121  -0.77901  -0.77348  -0.77133
 Alpha  occ. eigenvalues --   -0.76833  -0.76388  -0.76299  -0.75895  -0.75007
 Alpha  occ. eigenvalues --   -0.74965  -0.72856  -0.72426  -0.71722  -0.71087
 Alpha  occ. eigenvalues --   -0.69813  -0.68900  -0.68526  -0.68442  -0.68120
 Alpha  occ. eigenvalues --   -0.67681  -0.66681  -0.66072  -0.65583  -0.65193
 Alpha  occ. eigenvalues --   -0.64760  -0.64755  -0.64696  -0.64436  -0.64030
 Alpha  occ. eigenvalues --   -0.63720  -0.62417  -0.61395  -0.60285  -0.59766
 Alpha  occ. eigenvalues --   -0.59272  -0.59086  -0.59077  -0.58978  -0.58691
 Alpha  occ. eigenvalues --   -0.58311  -0.57802  -0.57662  -0.57404  -0.57262
 Alpha  occ. eigenvalues --   -0.56316  -0.55850  -0.55841  -0.55431  -0.55165
 Alpha  occ. eigenvalues --   -0.55034  -0.54905  -0.54656  -0.54509  -0.53864
 Alpha  occ. eigenvalues --   -0.53700  -0.53532  -0.53343  -0.53056  -0.52862
 Alpha  occ. eigenvalues --   -0.52674  -0.52616  -0.52490  -0.52320  -0.52128
 Alpha  occ. eigenvalues --   -0.52019  -0.51971  -0.51750  -0.51606  -0.51525
 Alpha  occ. eigenvalues --   -0.50797  -0.50670  -0.50631  -0.50218  -0.50158
 Alpha  occ. eigenvalues --   -0.49802  -0.49687  -0.49664  -0.49576  -0.49481
 Alpha  occ. eigenvalues --   -0.49361  -0.49213  -0.49054  -0.48996  -0.48948
 Alpha  occ. eigenvalues --   -0.48536  -0.48506  -0.48256  -0.48225  -0.48123
 Alpha  occ. eigenvalues --   -0.47796  -0.47617  -0.47301  -0.47107  -0.46949
 Alpha  occ. eigenvalues --   -0.46899  -0.46741  -0.46594  -0.46289  -0.46250
 Alpha  occ. eigenvalues --   -0.46119  -0.45820  -0.45801  -0.45640  -0.45598
 Alpha  occ. eigenvalues --   -0.45305  -0.45241  -0.45178  -0.45094  -0.45022
 Alpha  occ. eigenvalues --   -0.44890  -0.44636  -0.44353  -0.44261  -0.43960
 Alpha  occ. eigenvalues --   -0.43945  -0.43673  -0.43635  -0.43572  -0.43400
 Alpha  occ. eigenvalues --   -0.43210  -0.43180  -0.43050  -0.42884  -0.42782
 Alpha  occ. eigenvalues --   -0.42668  -0.42386  -0.42357  -0.41993  -0.41922
 Alpha  occ. eigenvalues --   -0.41493  -0.41490  -0.41402  -0.41282  -0.41091
 Alpha  occ. eigenvalues --   -0.40879  -0.40856  -0.40607  -0.40224  -0.40117
 Alpha  occ. eigenvalues --   -0.40020  -0.39908  -0.39800  -0.38639  -0.38509
 Alpha  occ. eigenvalues --   -0.38385  -0.37987  -0.37834  -0.37682  -0.37415
 Alpha  occ. eigenvalues --   -0.37107  -0.36744  -0.36621  -0.36379  -0.36115
 Alpha  occ. eigenvalues --   -0.35706  -0.35667  -0.34313  -0.34246  -0.34100
 Alpha  occ. eigenvalues --   -0.33794  -0.33345  -0.33268  -0.31597  -0.31378
 Alpha  occ. eigenvalues --   -0.30876  -0.30810  -0.30741  -0.30674  -0.30271
 Alpha  occ. eigenvalues --   -0.29598  -0.28920  -0.28647  -0.24279  -0.23506
 Alpha  occ. eigenvalues --   -0.21314  -0.21310
 Alpha virt. eigenvalues --   -0.08906  -0.08764  -0.02552  -0.01305   0.00269
 Alpha virt. eigenvalues --    0.00610   0.01035   0.02431   0.02499   0.02618
 Alpha virt. eigenvalues --    0.04789   0.05148   0.05193   0.05338   0.06015

 Mulliken charges:
               1
     1  Mg   0.809053
     2  C   -0.024285
     3  C   -0.063374
     4  C   -0.069248
     5  C   -0.046423
     6  N   -0.259846
     7  C   -0.095478
     8  C    0.047089
     9  C   -0.094977
    10  C    0.038572
    11  C    0.067256
    12  C    0.028224
    13  C   -0.086693
    14  H   -0.003181
    15  N   -0.383431
    16  C    0.151028
    17  C   -0.160418
    18  C   -0.041632
    19  C    0.173068
    20  C    0.133631
    21  C   -0.013003
    22  O   -0.204464
    23  C    0.070712
    24  N   -0.255758
    25  C    0.022685
    26  C   -0.100950
    27  C   -0.016298
    28  C    0.028516
    29  C    0.062473
    30  C    0.013449
    31  C    0.006259
    32  N   -0.412713
    33  C    0.143990
    34  C   -0.181418
    35  C    0.017259
    36  C    0.150135
    37  C    0.132507
    38  C    0.023765
    39  O   -0.196824
    40  C    0.022557
    41  C    0.168888
    42  O   -0.207055
    43  O   -0.315697
    44  C    0.170845
    45  H   -0.008630
    46  H   -0.041494
    47  H   -0.025248
    48  H    0.008614
    49  H    0.035954
    50  H    0.010338
    51  H    0.022945
    52  H    0.020737
    53  H    0.017524
    54  H    0.016124
    55  H    0.065839
    56  H    0.027702
    57  H    0.007260
    58  H    0.023922
    59  H    0.038904
    60  H    0.044553
    61  H    0.029503
    62  H    0.034963
    63  H    0.015073
    64  H   -0.005472
    65  H    0.022368
    66  H    0.010542
    67  H    0.024187
    68  H    0.012535
    69  H    0.009689
    70  H    0.031455
    71  H    0.006065
    72  H    0.005301
    73  H    0.031935
    74  H    0.034989
    75  H    0.039154
    76  H    0.037222
    77  H    0.053542
    78  H    0.040963
    79  H    0.052147
    80  Mg   0.823063
    81  C    0.006417
    82  C   -0.075175
    83  C   -0.064033
    84  C   -0.084804
    85  N   -0.287792
    86  C   -0.049484
    87  C   -0.003259
    88  C   -0.105788
    89  C    0.045303
    90  C    0.081868
    91  C    0.057003
    92  C   -0.056553
    93  H    0.033385
    94  N   -0.398839
    95  C    0.148735
    96  C   -0.158248
    97  C   -0.054703
    98  C    0.106810
    99  C    0.107917
   100  C    0.035163
   101  O   -0.175850
   102  C    0.039521
   103  N   -0.264162
   104  C    0.020575
   105  C   -0.037470
   106  C    0.004171
   107  C    0.026899
   108  C    0.071303
   109  C    0.003265
   110  C    0.023098
   111  N   -0.363415
   112  C    0.130873
   113  C   -0.149198
   114  C    0.007051
   115  C    0.102505
   116  C    0.128404
   117  C    0.019656
   118  O   -0.185030
   119  C    0.009720
   120  C    0.206567
   121  O   -0.224794
   122  O   -0.347455
   123  C    0.165998
   124  H   -0.022146
   125  H   -0.007202
   126  H   -0.041547
   127  H    0.017800
   128  H    0.005500
   129  H    0.018273
   130  H    0.021355
   131  H    0.034505
   132  H    0.006330
   133  H    0.007289
   134  H    0.018424
   135  H    0.031224
   136  H    0.004037
   137  H    0.025182
   138  H    0.045398
   139  H    0.059603
   140  H    0.027309
   141  H    0.011656
   142  H    0.014059
   143  H    0.008374
   144  H    0.018922
   145  H    0.013843
   146  H    0.029140
   147  H    0.005406
   148  H    0.006368
   149  H    0.017077
   150  H    0.014992
   151  H    0.026894
   152  H    0.029749
   153  H    0.012629
   154  H    0.034349
   155  H    0.043369
   156  H    0.050325
   157  H    0.036873
   158  H    0.055423
 Sum of Mulliken charges =  -0.00000

 Dipole moment (field-independent basis, Debye):
    X=              1.5779    Y=             -1.5943    Z=             -2.5450  Tot=              3.3925
 Quadrupole moment (field-independent basis, Debye-Ang):
   XX=           -201.9040   YY=           -475.5191   ZZ=           -544.0248
   XY=            -44.1237   XZ=              5.1012   YZ=             22.9205

 Normal termination of Gaussian 16 at Tue Sep 14 19:10:52 2021.
