 Gaussian 16, Revision A.03,
 Gaussian 16:  ES64L-G16RevA.03 25-Dec-2016

 ----------------------------------------------------------
 #p cam-b3lyp/Def2SVP td=(nstates=5) density=(transition=1)
 ----------------------------------------------------------

 --------------------------------
 TDDFT excited states in gaussian
 --------------------------------
 Symbolic Z-matrix:
 Charge =  0 Multiplicity = 1

                         Standard orientation:
 ---------------------------------------------------------------------
 Center     Atomic      Atomic             Coordinates (Angstroms)
 Number     Number       Type             X           Y           Z
 ---------------------------------------------------------------------
      1         12           0      -30.955322    0.153083    0.463100
      2          6           0      -28.421641   -2.017314   -0.400539
      3          6           0      -32.723379   -1.065542   -2.200727
      4          6           0      -33.318693    2.473268    1.123122
      5          6           0      -28.850409    1.703221    2.755596
      6          7           0      -30.467624   -1.317675   -1.198207
      7          6           0      -29.524197   -2.178287   -1.226360
      8          6           0      -29.599666   -3.294802   -2.390869
      9          6           0      -30.877517   -2.743978   -3.138734
     10          6           0      -31.386853   -1.564062   -2.182363
     11          6           0      -30.596683   -2.108883   -4.599855
     12          6           0      -29.743613   -4.796811   -1.889315
     13          6           0      -29.106441   -5.926825   -2.773450
     14          1           0      -28.640517   -5.527513   -4.140963
     15          7           0      -32.754414    0.584041   -0.335798
     16          6           0      -33.405466   -0.102919   -1.434612
     17          6           0      -34.727780    0.491898   -1.598822
     18          6           0      -34.872150    1.592756   -0.718072
     19          6           0      -33.642343    1.563995    0.105559
     20          6           0      -35.635650   -0.144182   -2.588983
     21          6           0      -36.051423    2.567381   -0.490722
     22          8           0      -36.033434    3.532182    0.214298
     23          6           0      -37.272672    2.332496   -1.402561
     24          7           0      -31.090713    1.946011    1.674903
     25          6           0      -32.119737    2.724552    1.790047
     26          6           0      -31.784324    4.005858    2.604901
     27          6           0      -30.396125    3.701749    3.217473
     28          6           0      -30.064654    2.352621    2.537221
     29          6           0      -31.812118    5.259164    1.704376
     30          6           0      -30.423800    3.673571    4.776515
     31          6           0      -30.594702    5.045936    5.447770
     32          7           0      -29.004630   -0.076693    1.094516
     33          6           0      -28.330520    0.573851    2.112656
     34          6           0      -27.050981   -0.073482    2.235788
     35          6           0      -26.968318   -1.099304    1.247169
     36          6           0      -28.244238   -1.036417    0.623577
     37          6           0      -26.031996    0.306170    3.144075
     38          6           0      -26.222641   -2.182843    0.690630
     39          8           0      -25.031663   -2.532352    0.945572
     40          6           0      -27.116393   -2.735051   -0.486700
     41          6           0      -26.358004   -2.585953   -1.710383
     42          8           0      -26.276534   -1.540841   -2.355251
     43          8           0      -25.658233   -3.751002   -1.896136
     44          6           0      -24.641044   -3.652228   -2.964167
     45          1           0      -33.300324   -1.416288   -3.058427
     46          1           0      -34.136913    3.176428    1.296026
     47          1           0      -28.255230    2.180732    3.537340
     48          1           0      -28.705957   -3.100509   -2.984404
     49          1           0      -31.601948   -3.545521   -3.281680
     50          1           0      -29.536505   -1.861216   -4.659787
     51          1           0      -31.194998   -1.207092   -4.728902
     52          1           0      -30.839024   -2.739186   -5.456100
     53          1           0      -30.821393   -4.956670   -1.874161
     54          1           0      -29.566814   -4.971702   -0.827505
     55          1           0      -29.756101   -6.789777   -2.919083
     56          1           0      -28.188311   -6.272059   -2.298016
     57          1           0      -35.442825    0.241530   -3.590465
     58          1           0      -36.679766   -0.137639   -2.275805
     59          1           0      -35.398521   -1.207803   -2.593044
     60          1           0      -37.878491    1.465593   -1.136973
     61          1           0      -36.794054    2.229573   -2.375912
     62          1           0      -37.954829    3.175366   -1.509539
     63          1           0      -32.559760    4.004031    3.370555
     64          1           0      -29.669708    4.427961    2.852807
     65          1           0      -31.641195    5.082929    0.642158
     66          1           0      -31.059269    6.029475    1.874799
     67          1           0      -32.803387    5.690067    1.844828
     68          1           0      -29.471020    3.287323    5.135969
     69          1           0      -31.210660    3.000494    5.118662
     70          1           0      -30.764163    5.778598    4.658714
     71          1           0      -29.625575    5.376177    5.822014
     72          1           0      -31.296243    5.145413    6.275699
     73          1           0      -26.555815    0.472408    4.085471
     74          1           0      -25.501834    1.230954    2.917059
     75          1           0      -25.258531   -0.462500    3.136287
     76          1           0      -27.201452   -3.795563   -0.248220
     77          1           0      -23.893277   -2.945630   -2.602978
     78          1           0      -25.087726   -3.431627   -3.933091
     79          1           0      -24.167751   -4.630531   -3.049373
     80         12           0       30.995458   -0.090486   -0.627198
     81          6           0       28.005685   -1.490405    0.609757
     82          6           0       29.088972    2.186669   -2.296641
     83          6           0       33.849081    1.702760   -1.195141
     84          6           0       32.692131   -2.261665    1.632735
     85          7           0       28.758506    0.390978   -0.705013
     86          6           0       27.707563   -0.366301   -0.273159
     87          6           0       26.351385    0.301615   -0.558731
     88          6           0       26.835214    1.217796   -1.787163
     89          6           0       28.329968    1.271424   -1.591131
     90          6           0       26.469211    0.695395   -3.202320
     91          6           0       25.784314    1.190767    0.637604
     92          6           0       24.286924    1.443960    0.720206
     93          1           0       23.673068    2.836447    0.461973
     94          7           0       31.505158    1.727936   -1.655371
     95          6           0       30.566419    2.406869   -2.376509
     96          6           0       31.158291    3.386250   -3.175893
     97          6           0       32.575566    3.274135   -2.913324
     98          6           0       32.731246    2.229621   -1.861799
     99          6           0       30.408539    4.315778   -4.122601
    100          6           0       33.602950    4.134146   -3.613990
    101          8           0       33.227442    4.978614   -4.467559
    102          6           0       35.152021    3.967620   -3.425913
    103          7           0       32.923696   -0.302426    0.125494
    104          6           0       33.965039    0.565930   -0.300387
    105          6           0       35.300242   -0.006450    0.086796
    106          6           0       34.975183   -1.007327    1.216772
    107          6           0       33.466544   -1.288365    0.956246
    108          6           0       36.146837   -0.762087   -0.962336
    109          6           0       35.172474   -0.360527    2.687422
    110          6           0       36.565423   -0.358085    3.298921
    111          7           0       30.445816   -1.702315    0.689793
    112          6           0       31.235282   -2.483468    1.520313
    113          6           0       30.474120   -3.349651    2.282367
    114          6           0       29.150843   -3.041624    1.922830
    115          6           0       29.194415   -2.013045    0.966587
    116          6           0       31.017308   -4.353977    3.249202
    117          6           0       27.848321   -3.426491    2.076907
    118          8           0       27.377022   -4.378067    2.667819
    119          6           0       27.047631   -2.273928    1.435102
    120          6           0       26.445453   -1.532823    2.591357
    121          8           0       27.078784   -1.049047    3.477318
    122          8           0       25.052074   -1.565277    2.512099
    123          6           0       24.432988   -1.022588    3.671062
    124          1           0       28.527612    2.798933   -3.005824
    125          1           0       34.815786    2.109369   -1.500941
    126          1           0       33.288428   -2.985146    2.192209
    127          1           0       25.626900   -0.391505   -0.984984
    128          1           0       26.323238    2.173212   -1.675845
    129          1           0       25.576305    1.273708   -3.441406
    130          1           0       26.202607   -0.361417   -3.197074
    131          1           0       27.248274    0.925644   -3.929242
    132          1           0       26.205365    2.195356    0.596286
    133          1           0       26.177914    0.755388    1.556353
    134          1           0       24.025171    1.129968    1.731691
    135          1           0       23.805055    0.739698    0.042224
    136          1           0       30.862741    4.601143   -5.072071
    137          1           0       30.242062    5.137009   -3.425878
    138          1           0       29.498826    3.830273   -4.475947
    139          1           0       35.453928    2.977919   -3.767544
    140          1           0       35.272019    4.130770   -2.355073
    141          1           0       35.775779    4.749625   -3.858715
    142          1           0       35.869472    0.815255    0.520185
    143          1           0       35.576283   -1.914363    1.151979
    144          1           0       36.264651   -1.830223   -0.780684
    145          1           0       36.975215   -0.149813   -1.319328
    146          1           0       35.515814   -0.760399   -1.850960
    147          1           0       34.491046   -0.990973    3.258289
    148          1           0       34.816742    0.669750    2.708408
    149          1           0       36.814073    0.654386    3.615857
    150          1           0       37.286324   -0.689076    2.550844
    151          1           0       36.606827   -0.976607    4.195854
    152          1           0       30.455770   -4.212898    4.172259
    153          1           0       32.061515   -4.169916    3.504899
    154          1           0       30.875502   -5.382558    2.917073
    155          1           0       26.265932   -2.712164    0.815579
    156          1           0       24.230812   -1.820645    4.384914
    157          1           0       23.424315   -0.649101    3.490411
    158          1           0       25.048207   -0.266341    4.155608
 ---------------------------------------------------------------------

 SCF Done:  E(RCAM-B3LYP) =  -4069.79964689     A.U. after   18 cycles

 Excitation energies and oscillator strengths:

 Excited State   1:      Singlet-A      1.7067 eV  726.48 nm  f=0.4024  <S**2>=0.000
     309 -> 315       -0.18535
     311 -> 313        0.68241
     309 <- 315       -0.10819
 This state for optimization and/or second-order correction.
 Total Energy, E(TD-HF/TD-DFT) =  -4069.73692849
 Copying the excited state density for this state as the 1-particle RhoCI density.

 Excited State   2:      Singlet-A      1.7724 eV  699.51 nm  f=0.3827  <S**2>=0.000
     310 -> 316       -0.19902
     312 -> 314        0.67935
     310 <- 316       -0.10974

 Excited State   3:      Singlet-A      2.1434 eV  578.46 nm  f=0.1303  <S**2>=0.000
     309 -> 313        0.65034
     311 -> 315        0.26013

 Excited State   4:      Singlet-A      2.2144 eV  559.90 nm  f=0.1113  <S**2>=0.000
     310 -> 314        0.64302
     312 -> 316        0.28130

 Excited State   5:      Singlet-A      3.0117 eV  411.68 nm  f=0.0000  <S**2>=0.000
     312 -> 313        0.70711

 The electronic state is 1-A.
 Alpha  occ. eigenvalues --  -46.90316 -46.88380 -19.25393 -19.24779 -19.20924
 Alpha  occ. eigenvalues --  -19.20147 -19.19289 -19.18222 -19.18096 -19.17887
 Alpha  occ. eigenvalues --  -14.43179 -14.42672 -14.42202 -14.41521 -14.39823
 Alpha  occ. eigenvalues --  -14.39660 -14.39208 -14.38927 -10.39700 -10.38536
 Alpha  occ. eigenvalues --  -10.36257 -10.35028 -10.34743 -10.33358 -10.32404
 Alpha  occ. eigenvalues --  -10.32329 -10.31822 -10.31638 -10.31254 -10.30987
 Alpha  occ. eigenvalues --  -10.30943 -10.30717 -10.30665 -10.30652 -10.30458
 Alpha  occ. eigenvalues --  -10.30407 -10.30320 -10.30230 -10.29950 -10.29417
 Alpha  occ. eigenvalues --  -10.29235 -10.29197 -10.29097 -10.28971 -10.28911
 Alpha  occ. eigenvalues --  -10.28905 -10.28326 -10.28307 -10.28212 -10.28170
 Alpha  occ. eigenvalues --  -10.28076 -10.28064 -10.28054 -10.27960 -10.27866
 Alpha  occ. eigenvalues --  -10.27843 -10.27770 -10.27750 -10.27670 -10.27599
 Alpha  occ. eigenvalues --  -10.27552 -10.27542 -10.27452 -10.27414 -10.27339
 Alpha  occ. eigenvalues --  -10.27160 -10.27120 -10.27086 -10.26902 -10.26664
 Alpha  occ. eigenvalues --  -10.26591 -10.26546 -10.26494 -10.26483 -10.26370
 Alpha  occ. eigenvalues --  -10.26259 -10.26140 -10.26085 -10.25845 -10.25663
 Alpha  occ. eigenvalues --  -10.25651 -10.25379 -10.25312 -10.24635 -10.24435
 Alpha  occ. eigenvalues --  -10.24168  -3.18607  -3.16993  -1.93506  -1.93055
 Alpha  occ. eigenvalues --   -1.92905  -1.91886  -1.91454  -1.91296  -1.17641
 Alpha  occ. eigenvalues --   -1.15505  -1.12501  -1.10048  -1.09510  -1.07323
 Alpha  occ. eigenvalues --   -1.07208  -1.06730  -1.05759  -1.05368  -1.04653
 Alpha  occ. eigenvalues --   -1.04299  -1.03925  -1.03441  -1.01919  -1.00855
 Alpha  occ. eigenvalues --   -0.94345  -0.92506  -0.89304  -0.88969  -0.88727
 Alpha  occ. eigenvalues --   -0.88686  -0.88343  -0.87826  -0.87569  -0.87466
 Alpha  occ. eigenvalues --   -0.87105  -0.86945  -0.86839  -0.85915  -0.84390
 Alpha  occ. eigenvalues --   -0.83896  -0.83641  -0.83465  -0.82919  -0.82309
 Alpha  occ. eigenvalues --   -0.81894  -0.81723  -0.81034  -0.80697  -0.80355
 Alpha  occ. eigenvalues --   -0.80262  -0.78532  -0.78077  -0.77394  -0.77373
 Alpha  occ. eigenvalues --   -0.76954  -0.76367  -0.75972  -0.75736  -0.75698
 Alpha  occ. eigenvalues --   -0.74824  -0.73618  -0.72261  -0.72190  -0.71448
 Alpha  occ. eigenvalues --   -0.69494  -0.69398  -0.68774  -0.68484  -0.68439
 Alpha  occ. eigenvalues --   -0.68166  -0.67171  -0.66975  -0.66317  -0.65805
 Alpha  occ. eigenvalues --   -0.65391  -0.65372  -0.64756  -0.64738  -0.64226
 Alpha  occ. eigenvalues --   -0.64064  -0.62818  -0.61536  -0.60531  -0.60160
 Alpha  occ. eigenvalues --   -0.60007  -0.59619  -0.59352  -0.59193  -0.59116
 Alpha  occ. eigenvalues --   -0.59031  -0.58265  -0.58069  -0.57862  -0.57648
 Alpha  occ. eigenvalues --   -0.56511  -0.55975  -0.55789  -0.55703  -0.55316
 Alpha  occ. eigenvalues --   -0.55143  -0.55089  -0.54534  -0.53959  -0.53853
 Alpha  occ. eigenvalues --   -0.53560  -0.53337  -0.53205  -0.53137  -0.52934
 Alpha  occ. eigenvalues --   -0.52800  -0.52709  -0.52612  -0.52285  -0.52053
 Alpha  occ. eigenvalues --   -0.51891  -0.51837  -0.51448  -0.51356  -0.51227
 Alpha  occ. eigenvalues --   -0.51099  -0.50925  -0.50825  -0.50700  -0.50615
 Alpha  occ. eigenvalues --   -0.50368  -0.50158  -0.49837  -0.49752  -0.49416
 Alpha  occ. eigenvalues --   -0.49358  -0.49126  -0.49004  -0.48940  -0.48821
 Alpha  occ. eigenvalues --   -0.48513  -0.48447  -0.48442  -0.48176  -0.47947
 Alpha  occ. eigenvalues --   -0.47818  -0.47771  -0.47351  -0.47233  -0.47019
 Alpha  occ. eigenvalues --   -0.47012  -0.46612  -0.46605  -0.46436  -0.46405
 Alpha  occ. eigenvalues --   -0.46353  -0.46218  -0.46028  -0.46016  -0.45790
 Alpha  occ. eigenvalues --   -0.45587  -0.45289  -0.45104  -0.45084  -0.44841
 Alpha  occ. eigenvalues --   -0.44723  -0.44600  -0.44390  -0.44266  -0.44150
 Alpha  occ. eigenvalues --   -0.43855  -0.43773  -0.43723  -0.43506  -0.43340
 Alpha  occ. eigenvalues --   -0.43260  -0.43190  -0.42946  -0.42905  -0.42759
 Alpha  occ. eigenvalues --   -0.42649  -0.42593  -0.42504  -0.42249  -0.42190
 Alpha  occ. eigenvalues --   -0.41695  -0.41651  -0.41552  -0.41448  -0.41327
 Alpha  occ. eigenvalues --   -0.41194  -0.41171  -0.41020  -0.40637  -0.40511
 Alpha  occ. eigenvalues --   -0.40311  -0.40188  -0.39793  -0.39401  -0.39376
 Alpha  occ. eigenvalues --   -0.38494  -0.38202  -0.37965  -0.37811  -0.37649
 Alpha  occ. eigenvalues --   -0.37602  -0.37139  -0.36958  -0.36865  -0.36586
 Alpha  occ. eigenvalues --   -0.36541  -0.36304  -0.35502  -0.35057  -0.34293
 Alpha  occ. eigenvalues --   -0.33878  -0.33421  -0.33414  -0.31739  -0.31448
 Alpha  occ. eigenvalues --   -0.31181  -0.30449  -0.30368  -0.30129  -0.30034
 Alpha  occ. eigenvalues --   -0.29927  -0.29520  -0.29152  -0.24324  -0.23652
 Alpha  occ. eigenvalues --   -0.22038  -0.21224
 Alpha virt. eigenvalues --   -0.09593  -0.08405  -0.02482  -0.01677  -0.00080
 Alpha virt. eigenvalues --   -0.00017   0.01421   0.02108   0.02597   0.02619
 Alpha virt. eigenvalues --    0.04298   0.05152   0.05483   0.05506   0.05955

 Mulliken charges:
               1
     1  Mg  12.000001
     2  C    6.000015
     3  C    6.000057
     4  C    5.999979
     5  C    5.999986
     6  N    6.999975
     7  C    6.000066
     8  C    5.999972
     9  C    6.000035
    10  C    5.999909
    11  C    6.000019
    12  C    5.999975
    13  C    6.000005
    14  H    1.000004
    15  N    7.000013
    16  C    5.999857
    17  C    5.999966
    18  C    5.999928
    19  C    5.999953
    20  C    6.000016
    21  C    5.999960
    22  O    7.999930
    23  C    6.000010
    24  N    7.000021
    25  C    5.999937
    26  C    6.000014
    27  C    5.999964
    28  C    6.000055
    29  C    6.000014
    30  C    5.999991
    31  C    6.000001
    32  N    6.999981
    33  C    6.000130
    34  C    6.000054
    35  C    6.000015
    36  C    6.000053
    37  C    5.999975
    38  C    6.000093
    39  O    8.000104
    40  C    5.999981
    41  C    6.000013
    42  O    8.000009
    43  O    8.000005
    44  C    5.999988
    45  H    0.999979
    46  H    0.999984
    47  H    1.000019
    48  H    1.000000
    49  H    0.999986
    50  H    0.999967
    51  H    0.999997
    52  H    0.999973
    53  H    1.000024
    54  H    0.999996
    55  H    1.000011
    56  H    1.000004
    57  H    0.999936
    58  H    0.999948
    59  H    0.999966
    60  H    0.999969
    61  H    0.999984
    62  H    0.999941
    63  H    1.000004
    64  H    1.000006
    65  H    0.999999
    66  H    0.999963
    67  H    0.999996
    68  H    0.999999
    69  H    1.000024
    70  H    1.000005
    71  H    1.000004
    72  H    1.000009
    73  H    1.000053
    74  H    1.000074
    75  H    1.000062
    76  H    1.000037
    77  H    1.000010
    78  H    1.000008
    79  H    1.000034
    80  Mg  12.000017
    81  C    6.001219
    82  C    5.967097
    83  C    5.986935
    84  C    6.036062
    85  N    6.987983
    86  C    5.967282
    87  C    6.011849
    88  C    5.987565
    89  C    6.040693
    90  C    5.996444
    91  C    6.001940
    92  C    6.002130
    93  H    0.987866
    94  N    6.989738
    95  C    6.050741
    96  C    6.016700
    97  C    6.014706
    98  C    6.041714
    99  C    5.998383
   100  C    6.009718
   101  O    8.025411
   102  C    5.998872
   103  N    7.015286
   104  C    6.029626
   105  C    5.988357
   106  C    6.007813
   107  C    5.956702
   108  C    6.002949
   109  C    6.001656
   110  C    5.999621
   111  N    7.001878
   112  C    5.955604
   113  C    5.978750
   114  C    5.990470
   115  C    5.977737
   116  C    6.003918
   117  C    5.982692
   118  O    7.964395
   119  C    6.005832
   120  C    5.994983
   121  O    7.996435
   122  O    7.996825
   123  C    6.004122
   124  H    1.003568
   125  H    1.011154
   126  H    0.996342
   127  H    0.998351
   128  H    1.001856
   129  H    1.004098
   130  H    1.012504
   131  H    0.992369
   132  H    0.987099
   133  H    1.006365
   134  H    1.001894
   135  H    0.998392
   136  H    1.015099
   137  H    1.017489
   138  H    1.020712
   139  H    1.009963
   140  H    1.008220
   141  H    1.014352
   142  H    1.001932
   143  H    1.000094
   144  H    1.014264
   145  H    1.001098
   146  H    0.997453
   147  H    1.007589
   148  H    0.989299
   149  H    0.995628
   150  H    0.995625
   151  H    1.002550
   152  H    0.984467
   153  H    0.979209
   154  H    0.981326
   155  H    0.988128
   156  H    0.997006
   157  H    0.992572
   158  H    0.995216
 Sum of Mulliken charges = 624.00000

 Dipole moment (field-independent basis, Debye):
    X=              4.4456    Y=              7.8625    Z=             -6.5394  Tot=             11.1510
 Quadrupole moment (field-independent basis, Debye-Ang):
   XX=            266.9868   YY=              1.2405   ZZ=              6.2677
   XY=            243.8799   XZ=           -203.0353   YZ=             -5.1770

 Normal termination of Gaussian 16 at Thu Sep 23 06:17:33 2021.
