 Gaussian 16, Revision A.03,
 Gaussian 16:  ES64L-G16RevA.03 25-Dec-2016

 -----------------------------------
 #p cam-b3lyp/Def2SVP td=(nstates=5)
 -----------------------------------

 --------------------------------
 TDDFT excited states in gaussian
 --------------------------------
 Symbolic Z-matrix:
 Charge =  0 Multiplicity = 1

                         Standard orientation:
 ---------------------------------------------------------------------
 Center     Atomic      Atomic             Coordinates (Angstroms)
 Number     Number       Type             X           Y           Z
 ---------------------------------------------------------------------
      1         12           0       22.366523   -0.619559    0.449651
      2          6           0       22.074786    2.173927   -1.537542
      3          6           0       22.933740    1.503592    3.175285
      4          6           0       22.760335   -3.307196    2.453623
      5          6           0       22.183821   -2.614301   -2.289852
      6          7           0       22.749090    1.615328    0.700400
      7          6           0       22.325468    2.555881   -0.246789
      8          6           0       22.182272    3.965391    0.360653
      9          6           0       22.583413    3.679560    1.854653
     10          6           0       22.730241    2.178423    1.981200
     11          6           0       23.840933    4.422139    2.288430
     12          6           0       20.811195    4.721544    0.249106
     13          6           0       20.773664    6.052891   -0.680298
     14          1           0       20.358484    7.284236    0.130820
     15          7           0       22.879857   -0.882272    2.458732
     16          6           0       22.940014    0.122563    3.437829
     17          6           0       22.985384   -0.449215    4.787642
     18          6           0       23.018322   -1.938729    4.630457
     19          6           0       22.818692   -2.134720    3.139090
     20          6           0       23.038090    0.394498    6.042207
     21          6           0       23.146414   -3.009460    5.608323
     22          8           0       23.248488   -4.184004    5.224523
     23          6           0       23.232131   -2.760102    7.103912
     24          7           0       22.534169   -2.585482    0.090311
     25          6           0       22.561943   -3.575532    1.089922
     26          6           0       22.406811   -5.060080    0.565423
     27          6           0       22.252444   -4.755755   -1.013211
     28          6           0       22.310385   -3.212333   -1.067449
     29          6           0       23.644727   -6.024945    0.914485
     30          6           0       20.920309   -5.346755   -1.590272
     31          6           0       20.950929   -5.932744   -2.967095
     32          7           0       22.269608   -0.263676   -1.563382
     33          6           0       22.143346   -1.206318   -2.587791
     34          6           0       21.864929   -0.572333   -3.830997
     35          6           0       21.730627    0.809251   -3.433276
     36          6           0       22.065292    0.905551   -2.076630
     37          6           0       21.622163   -1.126907   -5.171715
     38          6           0       21.554187    2.131418   -3.947120
     39          8           0       21.283871    2.610949   -5.053728
     40          6           0       21.924409    3.091883   -2.727522
     41          6           0       23.131361    3.881047   -3.090025
     42          8           0       24.243253    3.693602   -2.785615
     43          8           0       22.763476    5.027666   -3.790142
     44          6           0       23.698106    6.129814   -3.695939
     45          1           0       23.021169    2.172503    4.034021
     46          1           0       22.802594   -4.252555    2.998449
     47          1           0       21.974690   -3.254768   -3.149180
     48          1           0       22.947323    4.608498   -0.072997
     49          1           0       21.837172    4.059741    2.552836
     50          1           0       24.624775    3.692875    2.491291
     51          1           0       23.525607    4.901325    3.214493
     52          1           0       24.179135    5.214412    1.620914
     53          1           0       20.501080    4.998321    1.257049
     54          1           0       20.042034    4.083512   -0.186328
     55          1           0       19.962398    5.823367   -1.371371
     56          1           0       21.741357    6.212725   -1.155299
     57          1           0       24.043830    0.813563    6.092260
     58          1           0       22.866712   -0.261120    6.894575
     59          1           0       22.384583    1.266440    6.007397
     60          1           0       23.641856   -3.677266    7.527536
     61          1           0       22.278349   -2.496370    7.562101
     62          1           0       23.986157   -2.053879    7.450905
     63          1           0       21.450823   -5.468306    0.891745
     64          1           0       23.017242   -5.207533   -1.645352
     65          1           0       23.828419   -6.671035    0.055788
     66          1           0       23.485176   -6.762015    1.700546
     67          1           0       24.553056   -5.478318    1.168720
     68          1           0       20.076516   -4.658193   -1.548678
     69          1           0       20.571539   -6.213455   -1.029091
     70          1           0       20.338890   -5.257059   -3.564344
     71          1           0       20.432169   -6.866847   -3.182615
     72          1           0       21.976413   -5.949781   -3.337584
     73          1           0       21.218537   -2.133413   -5.058179
     74          1           0       22.616538   -1.191304   -5.613333
     75          1           0       21.064822   -0.394212   -5.755659
     76          1           0       21.102835    3.780617   -2.532239
     77          1           0       24.504182    5.845001   -4.371264
     78          1           0       24.049459    6.127324   -2.664246
     79          1           0       23.250250    7.065847   -4.030883
     80         12           0      -21.877368   -0.650024   -0.070894
     81          6           0      -23.789254    1.900371    1.452280
     82          6           0      -20.120469    1.609225   -1.709045
     83          6           0      -20.770118   -3.171152   -2.093452
     84          6           0      -24.565058   -2.958960    0.987565
     85          7           0      -22.022996    1.521448   -0.133253
     86          6           0      -22.681008    2.331692    0.721036
     87          6           0      -22.119263    3.761415    0.594910
     88          6           0      -20.973123    3.663090   -0.360096
     89          6           0      -21.035103    2.175126   -0.820291
     90          6           0      -20.989036    4.799340   -1.462804
     91          6           0      -21.775119    4.546639    1.904623
     92          6           0      -20.547085    5.550116    1.999353
     93          1           0      -20.763209    6.909326    2.680717
     94          7           0      -20.428473   -0.770892   -1.515590
     95          6           0      -19.796255    0.320024   -2.068094
     96          6           0      -18.823711   -0.168254   -3.003956
     97          6           0      -18.991549   -1.594933   -3.196048
     98          6           0      -20.126947   -1.891218   -2.294824
     99          6           0      -17.976555    0.817181   -3.701802
    100          6           0      -18.179756   -2.604520   -4.044673
    101          8           0      -18.512917   -3.742260   -4.099900
    102          6           0      -16.842777   -2.226499   -4.593984
    103          7           0      -22.636974   -2.758129   -0.513156
    104          6           0      -21.864003   -3.548243   -1.291647
    105          6           0      -22.405495   -5.011852   -1.363180
    106          6           0      -23.594740   -4.977571   -0.355199
    107          6           0      -23.646256   -3.491169    0.076959
    108          6           0      -22.829059   -5.484033   -2.728637
    109          6           0      -23.531798   -5.921682    0.896075
    110          6           0      -22.667666   -5.543334    2.051154
    111          7           0      -23.787630   -0.670836    0.995651
    112          6           0      -24.664661   -1.651759    1.360462
    113          6           0      -25.670712   -1.093095    2.230414
    114          6           0      -25.403582    0.298574    2.317585
    115          6           0      -24.269883    0.507576    1.506250
    116          6           0      -26.877987   -1.767794    2.779453
    117          6           0      -25.838505    1.558840    2.848597
    118          8           0      -26.749168    1.886436    3.600690
    119          6           0      -24.785854    2.649841    2.354630
    120          6           0      -25.443702    3.874655    1.741780
    121          8           0      -26.085887    3.853093    0.723609
    122          8           0      -25.143062    4.986824    2.511952
    123          6           0      -25.764972    6.216264    2.018940
    124          1           0      -19.362759    2.271226   -2.134321
    125          1           0      -20.326457   -3.934490   -2.735634
    126          1           0      -25.301828   -3.657430    1.389528
    127          1           0      -23.007875    4.240150    0.183445
    128          1           0      -20.061852    3.869293    0.201975
    129          1           0      -21.768130    5.523274   -1.224550
    130          1           0      -21.038587    4.311726   -2.436355
    131          1           0      -20.092502    5.417030   -1.406854
    132          1           0      -21.606464    3.797640    2.678742
    133          1           0      -22.628593    5.117052    2.272046
    134          1           0      -20.241933    5.698289    0.963289
    135          1           0      -19.720775    5.050727    2.505384
    136          1           0      -17.846516    0.426485   -4.710782
    137          1           0      -17.003167    0.802517   -3.212925
    138          1           0      -18.259857    1.866533   -3.785341
    139          1           0      -17.099405   -1.848586   -5.582780
    140          1           0      -16.176664   -3.087608   -4.532197
    141          1           0      -16.363268   -1.379615   -4.102614
    142          1           0      -21.708433   -5.724579   -0.922011
    143          1           0      -24.613545   -5.106163   -0.719365
    144          1           0      -22.508278   -4.791178   -3.507637
    145          1           0      -23.913255   -5.546506   -2.825683
    146          1           0      -22.352623   -6.455046   -2.861404
    147          1           0      -23.215346   -6.917930    0.586939
    148          1           0      -24.557281   -6.129782    1.202166
    149          1           0      -21.884371   -4.862678    1.717045
    150          1           0      -22.084703   -6.291972    2.588084
    151          1           0      -23.355202   -5.131897    2.790833
    152          1           0      -27.560672   -2.166739    2.029751
    153          1           0      -27.511829   -0.962048    3.150589
    154          1           0      -26.619230   -2.511598    3.533552
    155          1           0      -24.216063    2.929789    3.240899
    156          1           0      -24.785016    6.606034    1.745248
    157          1           0      -26.181723    6.663393    2.921124
    158          1           0      -26.468523    6.045518    1.203815
 ---------------------------------------------------------------------

 SCF Done:  E(RCAM-B3LYP) =  -4069.78290556     A.U. after   19 cycles

 Excitation energies and oscillator strengths:

 Excited State   1:      Singlet-A      1.6721 eV  741.50 nm  f=0.4032  <S**2>=0.000
     309 -> 315        0.15726
     311 -> 313        0.68845
 This state for optimization and/or second-order correction.
 Total Energy, E(TD-HF/TD-DFT) =  -4069.72145763
 Copying the excited state density for this state as the 1-particle RhoCI density.

 Excited State   2:      Singlet-A      1.7017 eV  728.57 nm  f=0.3907  <S**2>=0.000
     310 -> 316        0.18700
     312 -> 314        0.68379
     310 <- 316        0.11025

 Excited State   3:      Singlet-A      2.1898 eV  566.19 nm  f=0.0947  <S**2>=0.000
     310 -> 314        0.64110
     312 -> 316       -0.28192

 Excited State   4:      Singlet-A      2.1913 eV  565.80 nm  f=0.1406  <S**2>=0.000
     309 -> 313        0.64415
     311 -> 315       -0.25713

 Excited State   5:      Singlet-A      2.9863 eV  415.18 nm  f=0.0000  <S**2>=0.000
     312 -> 313        0.70711

 The electronic state is 1-A.
 Alpha  occ. eigenvalues --  -46.90004 -46.87970 -19.24746 -19.22212 -19.20036
 Alpha  occ. eigenvalues --  -19.19628 -19.19589 -19.18899 -19.18642 -19.17995
 Alpha  occ. eigenvalues --  -14.42603 -14.42225 -14.42039 -14.41791 -14.40314
 Alpha  occ. eigenvalues --  -14.39506 -14.38819 -14.38625 -10.39128 -10.38150
 Alpha  occ. eigenvalues --  -10.35738 -10.35375 -10.34808 -10.34247 -10.31871
 Alpha  occ. eigenvalues --  -10.31637 -10.31330 -10.31268 -10.31136 -10.31092
 Alpha  occ. eigenvalues --  -10.31075 -10.30896 -10.30803 -10.30721 -10.30660
 Alpha  occ. eigenvalues --  -10.30510 -10.30374 -10.30322 -10.29599 -10.29575
 Alpha  occ. eigenvalues --  -10.29457 -10.29330 -10.29280 -10.29025 -10.28683
 Alpha  occ. eigenvalues --  -10.28600 -10.28600 -10.28298 -10.28292 -10.28193
 Alpha  occ. eigenvalues --  -10.28051 -10.27937 -10.27902 -10.27842 -10.27794
 Alpha  occ. eigenvalues --  -10.27755 -10.27666 -10.27654 -10.27568 -10.27514
 Alpha  occ. eigenvalues --  -10.27375 -10.27353 -10.27307 -10.27205 -10.27036
 Alpha  occ. eigenvalues --  -10.26791 -10.26732 -10.26581 -10.26572 -10.26546
 Alpha  occ. eigenvalues --  -10.26533 -10.26523 -10.26500 -10.26360 -10.26269
 Alpha  occ. eigenvalues --  -10.26229 -10.26141 -10.26024 -10.25921 -10.25866
 Alpha  occ. eigenvalues --  -10.25403 -10.25367 -10.25115 -10.24982 -10.24890
 Alpha  occ. eigenvalues --  -10.24530  -3.18313  -3.16732  -1.93187  -1.92777
 Alpha  occ. eigenvalues --   -1.92604  -1.91601  -1.91197  -1.91049  -1.16819
 Alpha  occ. eigenvalues --   -1.16300  -1.12908  -1.09604  -1.09220  -1.08548
 Alpha  occ. eigenvalues --   -1.08160  -1.07760  -1.04677  -1.04231  -1.03477
 Alpha  occ. eigenvalues --   -1.03151  -1.02492  -1.02109  -1.01846  -1.00670
 Alpha  occ. eigenvalues --   -0.92634  -0.91623  -0.89316  -0.89231  -0.88890
 Alpha  occ. eigenvalues --   -0.88663  -0.88545  -0.88268  -0.87394  -0.87381
 Alpha  occ. eigenvalues --   -0.87246  -0.87184  -0.86720  -0.86104  -0.84269
 Alpha  occ. eigenvalues --   -0.84014  -0.83669  -0.83507  -0.82538  -0.82451
 Alpha  occ. eigenvalues --   -0.82008  -0.81937  -0.80911  -0.80849  -0.80412
 Alpha  occ. eigenvalues --   -0.80270  -0.78821  -0.78296  -0.77448  -0.77168
 Alpha  occ. eigenvalues --   -0.77110  -0.76738  -0.75864  -0.75306  -0.75277
 Alpha  occ. eigenvalues --   -0.74661  -0.73112  -0.72337  -0.71734  -0.71478
 Alpha  occ. eigenvalues --   -0.69825  -0.69373  -0.69286  -0.68736  -0.68213
 Alpha  occ. eigenvalues --   -0.67991  -0.67596  -0.66916  -0.65716  -0.65349
 Alpha  occ. eigenvalues --   -0.65041  -0.64929  -0.64315  -0.64149  -0.64022
 Alpha  occ. eigenvalues --   -0.63931  -0.61715  -0.60902  -0.60232  -0.60037
 Alpha  occ. eigenvalues --   -0.59562  -0.59446  -0.59045  -0.58814  -0.58505
 Alpha  occ. eigenvalues --   -0.58359  -0.58339  -0.58007  -0.57740  -0.57396
 Alpha  occ. eigenvalues --   -0.56550  -0.56158  -0.55889  -0.55619  -0.55399
 Alpha  occ. eigenvalues --   -0.55331  -0.55063  -0.54594  -0.54069  -0.53971
 Alpha  occ. eigenvalues --   -0.53732  -0.53672  -0.53355  -0.53309  -0.53040
 Alpha  occ. eigenvalues --   -0.52777  -0.52716  -0.52386  -0.52324  -0.52198
 Alpha  occ. eigenvalues --   -0.51738  -0.51648  -0.51409  -0.51233  -0.51205
 Alpha  occ. eigenvalues --   -0.50941  -0.50838  -0.50800  -0.50627  -0.50603
 Alpha  occ. eigenvalues --   -0.50307  -0.50171  -0.50049  -0.50043  -0.49833
 Alpha  occ. eigenvalues --   -0.49668  -0.49530  -0.49212  -0.49011  -0.48992
 Alpha  occ. eigenvalues --   -0.48779  -0.48632  -0.48606  -0.48581  -0.48349
 Alpha  occ. eigenvalues --   -0.48122  -0.48063  -0.47705  -0.47323  -0.47217
 Alpha  occ. eigenvalues --   -0.47147  -0.46995  -0.46876  -0.46774  -0.46534
 Alpha  occ. eigenvalues --   -0.46187  -0.46038  -0.46038  -0.45791  -0.45564
 Alpha  occ. eigenvalues --   -0.45447  -0.45438  -0.45320  -0.45019  -0.44680
 Alpha  occ. eigenvalues --   -0.44640  -0.44572  -0.44341  -0.44203  -0.44098
 Alpha  occ. eigenvalues --   -0.43726  -0.43708  -0.43652  -0.43558  -0.43377
 Alpha  occ. eigenvalues --   -0.43257  -0.43104  -0.43009  -0.42953  -0.42940
 Alpha  occ. eigenvalues --   -0.42620  -0.42553  -0.42351  -0.42045  -0.42027
 Alpha  occ. eigenvalues --   -0.41837  -0.41696  -0.41473  -0.41462  -0.41220
 Alpha  occ. eigenvalues --   -0.41068  -0.40885  -0.40679  -0.40605  -0.40176
 Alpha  occ. eigenvalues --   -0.40138  -0.39935  -0.39203  -0.39108  -0.38974
 Alpha  occ. eigenvalues --   -0.38754  -0.38128  -0.37917  -0.37865  -0.37729
 Alpha  occ. eigenvalues --   -0.37396  -0.37116  -0.36912  -0.36164  -0.35919
 Alpha  occ. eigenvalues --   -0.35727  -0.34962  -0.34634  -0.34500  -0.34127
 Alpha  occ. eigenvalues --   -0.33567  -0.33228  -0.33162  -0.31802  -0.31589
 Alpha  occ. eigenvalues --   -0.31476  -0.30848  -0.30619  -0.30074  -0.29840
 Alpha  occ. eigenvalues --   -0.29821  -0.29353  -0.29317  -0.24422  -0.23834
 Alpha  occ. eigenvalues --   -0.21507  -0.21064
 Alpha virt. eigenvalues --   -0.09328  -0.08652  -0.02217  -0.01635  -0.00280
 Alpha virt. eigenvalues --    0.00304   0.01144   0.01896   0.02371   0.02504
 Alpha virt. eigenvalues --    0.04499   0.05075   0.05308   0.05679   0.05941

 Mulliken charges:
               1
     1  Mg   0.825943
     2  C    0.028293
     3  C   -0.094186
     4  C   -0.058310
     5  C   -0.101651
     6  N   -0.299853
     7  C   -0.077960
     8  C    0.037516
     9  C   -0.089647
    10  C    0.070727
    11  C    0.065644
    12  C    0.032594
    13  C   -0.092722
    14  H    0.019523
    15  N   -0.403864
    16  C    0.188366
    17  C   -0.166144
    18  C    0.012031
    19  C    0.173240
    20  C    0.129752
    21  C   -0.020952
    22  O   -0.222331
    23  C    0.027938
    24  N   -0.333154
    25  C    0.018327
    26  C    0.006437
    27  C   -0.041500
    28  C    0.114532
    29  C    0.047024
    30  C    0.002782
    31  C   -0.000918
    32  N   -0.324946
    33  C    0.108856
    34  C   -0.169632
    35  C    0.001129
    36  C    0.101994
    37  C    0.151110
    38  C    0.020491
    39  O   -0.181755
    40  C   -0.047740
    41  C    0.190036
    42  O   -0.156535
    43  O   -0.359272
    44  C    0.189237
    45  H   -0.036579
    46  H   -0.001661
    47  H   -0.045769
    48  H    0.009272
    49  H    0.006918
    50  H    0.028702
    51  H    0.005717
    52  H    0.024051
    53  H    0.019476
    54  H    0.016422
    55  H    0.052489
    56  H    0.038986
    57  H    0.034360
    58  H    0.012946
    59  H    0.031431
    60  H    0.024702
    61  H    0.050707
    62  H    0.032367
    63  H    0.025031
    64  H    0.015915
    65  H    0.012316
    66  H    0.024151
    67  H    0.035889
    68  H    0.008754
    69  H    0.005448
    70  H    0.005606
    71  H    0.014991
    72  H    0.015333
    73  H    0.020590
    74  H    0.030263
    75  H    0.042905
    76  H    0.023815
    77  H    0.031535
    78  H    0.021532
    79  H    0.040939
    80  Mg   0.817807
    81  C   -0.011199
    82  C   -0.048736
    83  C   -0.055543
    84  C   -0.096256
    85  N   -0.298073
    86  C   -0.057224
    87  C    0.017551
    88  C   -0.086233
    89  C    0.071795
    90  C    0.069638
    91  C    0.007515
    92  C   -0.067050
    93  H    0.036291
    94  N   -0.428087
    95  C    0.123578
    96  C   -0.120421
    97  C   -0.043128
    98  C    0.090952
    99  C    0.083037
   100  C    0.006705
   101  O   -0.165880
   102  C    0.045763
   103  N   -0.240926
   104  C    0.047216
   105  C   -0.014242
   106  C   -0.001810
   107  C   -0.021709
   108  C    0.084123
   109  C    0.000200
   110  C    0.023695
   111  N   -0.309229
   112  C    0.157985
   113  C   -0.179014
   114  C    0.018077
   115  C    0.070991
   116  C    0.109138
   117  C    0.054896
   118  O   -0.173442
   119  C    0.002831
   120  C    0.190184
   121  O   -0.197557
   122  O   -0.349888
   123  C    0.157924
   124  H   -0.041360
   125  H   -0.000498
   126  H   -0.031337
   127  H    0.022158
   128  H    0.017469
   129  H    0.020962
   130  H    0.027903
   131  H    0.010825
   132  H    0.005483
   133  H    0.023781
   134  H    0.015083
   135  H    0.032467
   136  H    0.014289
   137  H    0.031678
   138  H    0.035833
   139  H    0.041906
   140  H    0.048328
   141  H    0.015530
   142  H    0.012514
   143  H    0.008294
   144  H    0.023036
   145  H    0.012830
   146  H    0.018959
   147  H   -0.001831
   148  H   -0.002382
   149  H    0.016601
   150  H    0.009322
   151  H    0.016378
   152  H    0.022607
   153  H    0.027233
   154  H    0.029721
   155  H    0.040633
   156  H    0.033786
   157  H    0.050151
   158  H    0.069402
 Sum of Mulliken charges =  -0.00000

 Dipole moment (field-independent basis, Debye):
    X=              3.6016    Y=             -0.0751    Z=              4.4292  Tot=              5.7092
 Quadrupole moment (field-independent basis, Debye-Ang):
   XX=           -830.1659   YY=           -469.0985   ZZ=           -525.7112
   XY=              5.9447   XZ=            135.4703   YZ=             21.3363

 Normal termination of Gaussian 16 at Thu Sep 16 08:40:33 2021.
