 Gaussian 16, Revision A.03,
 Gaussian 16:  ES64L-G16RevA.03 25-Dec-2016

 -----------------------------------
 #p cam-b3lyp/Def2SVP td=(nstates=5)
 -----------------------------------

 --------------------------------
 TDDFT excited states in gaussian
 --------------------------------
 Symbolic Z-matrix:
 Charge =  0 Multiplicity = 1

                         Standard orientation:
 ---------------------------------------------------------------------
 Center     Atomic      Atomic             Coordinates (Angstroms)
 Number     Number       Type             X           Y           Z
 ---------------------------------------------------------------------
      1         12           0       26.724300   -0.863476    0.313495
      2          6           0       27.365490    2.204418   -1.049896
      3          6           0       26.157490    0.494702    3.302874
      4          6           0       26.373043   -3.890399    1.469736
      5          6           0       27.932170   -2.231128   -2.748062
      6          7           0       26.924315    1.146331    1.107688
      7          6           0       26.932678    2.236890    0.301073
      8          6           0       26.474653    3.473496    1.024739
      9          6           0       26.369873    2.928869    2.505684
     10          6           0       26.573930    1.439073    2.335259
     11          6           0       27.330989    3.605381    3.512435
     12          6           0       25.124617    4.173084    0.388054
     13          6           0       25.121950    5.692780    0.162745
     14          1           0       26.096526    6.538946    1.040869
     15          7           0       26.172512   -1.558817    2.017364
     16          6           0       25.973942   -0.889180    3.182635
     17          6           0       25.718522   -1.760597    4.303627
     18          6           0       25.576281   -2.999137    3.754693
     19          6           0       26.166061   -2.863253    2.386653
     20          6           0       25.704748   -1.129226    5.683754
     21          6           0       25.141154   -4.313101    4.433504
     22          8           0       25.102691   -5.384275    3.874194
     23          6           0       24.796098   -4.161312    5.885563
     24          7           0       27.279298   -2.780748   -0.505963
     25          6           0       26.883534   -3.868958    0.178678
     26          6           0       27.116917   -5.143758   -0.638124
     27          6           0       27.312805   -4.595578   -2.092392
     28          6           0       27.553564   -3.103851   -1.782494
     29          6           0       28.273035   -6.132263   -0.182077
     30          6           0       26.082131   -4.736988   -3.065311
     31          6           0       24.734733   -4.132423   -2.769912
     32          7           0       27.426248   -0.241610   -1.597483
     33          6           0       27.969353   -0.879252   -2.717571
     34          6           0       28.369987    0.086602   -3.748587
     35          6           0       28.139326    1.326758   -3.134547
     36          6           0       27.571727    1.036277   -1.854057
     37          6           0       28.851447   -0.186960   -5.150331
     38          6           0       28.232359    2.707535   -3.276087
     39          8           0       28.671656    3.428522   -4.158296
     40          6           0       27.526137    3.341093   -2.049542
     41          6           0       28.488004    4.386999   -1.632424
     42          8           0       29.511498    4.195036   -0.971490
     43          8           0       28.163566    5.598300   -2.171124
     44          6           0       29.140373    6.691094   -2.129204
     45          1           0       25.791660    0.983969    4.208242
     46          1           0       26.223970   -4.929220    1.769079
     47          1           0       28.236870   -2.785213   -3.639190
     48          1           0       27.271941    4.216048    1.058873
     49          1           0       25.341683    3.041109    2.848987
     50          1           0       28.163865    2.931161    3.711669
     51          1           0       26.793159    3.768344    4.446410
     52          1           0       27.674587    4.526072    3.040722
     53          1           0       24.326950    3.913192    1.084065
     54          1           0       24.912922    3.764060   -0.599360
     55          1           0       24.152864    6.111304    0.433125
     56          1           0       25.239606    5.908111   -0.899209
     57          1           0       26.640526   -0.660382    5.988468
     58          1           0       25.636680   -1.751748    6.575704
     59          1           0       24.840335   -0.470736    5.598186
     60          1           0       24.019300   -3.408927    6.019886
     61          1           0       25.772804   -3.959923    6.325061
     62          1           0       24.345282   -5.003361    6.409532
     63          1           0       26.179126   -5.677764   -0.480778
     64          1           0       28.243018   -4.998052   -2.494028
     65          1           0       28.755554   -5.737477    0.711703
     66          1           0       29.081498   -6.143324   -0.912116
     67          1           0       27.988510   -7.173473   -0.022848
     68          1           0       26.025638   -5.824284   -3.123197
     69          1           0       26.297647   -4.349026   -4.060360
     70          1           0       24.722570   -3.751599   -1.747838
     71          1           0       23.954515   -4.891166   -2.828550
     72          1           0       24.448252   -3.267853   -3.368368
     73          1           0       29.915738    0.010645   -5.270220
     74          1           0       28.282405    0.414930   -5.859068
     75          1           0       28.724288   -1.265688   -5.244699
     76          1           0       26.528025    3.703107   -2.296840
     77          1           0       28.985705    7.412772   -2.932171
     78          1           0       30.159265    6.323549   -2.017257
     79          1           0       29.077801    7.272559   -1.209558
     80         12           0      -27.339520   -0.523885   -0.289917
     81          6           0      -25.472517    2.567801    0.083924
     82          6           0      -28.595557    0.142090    2.766836
     83          6           0      -28.926318   -3.277032   -0.614013
     84          6           0      -25.605871   -1.113392   -3.320398
     85          7           0      -27.046514    1.278844    1.281026
     86          6           0      -26.334787    2.411820    1.151939
     87          6           0      -26.639824    3.368714    2.320220
     88          6           0      -27.273483    2.285954    3.312511
     89          6           0      -27.714618    1.210245    2.411505
     90          6           0      -26.514174    1.939176    4.582221
     91          6           0      -27.578959    4.478847    1.817680
     92          6           0      -27.461931    5.791797    2.646595
     93          1           0      -26.285797    6.062440    3.694628
     94          7           0      -28.662675   -1.466327    0.904966
     95          6           0      -29.014189   -1.099941    2.190011
     96          6           0      -29.902469   -2.128528    2.722738
     97          6           0      -30.071885   -3.104314    1.709649
     98          6           0      -29.189398   -2.623035    0.609248
     99          6           0      -30.478087   -2.106087    4.068513
    100          6           0      -31.008412   -4.422714    1.681369
    101          8           0      -31.171631   -5.055725    0.674365
    102          6           0      -31.964439   -4.755046    2.841031
    103          7           0      -27.055041   -2.107665   -1.646053
    104          6           0      -27.971362   -3.072416   -1.636008
    105          6           0      -27.892847   -4.016392   -2.805631
    106          6           0      -27.140729   -3.103342   -3.804501
    107          6           0      -26.436025   -2.126312   -2.801523
    108          6           0      -27.083175   -5.363890   -2.511004
    109          6           0      -28.030638   -2.390467   -4.907289
    110          6           0      -29.336451   -3.071706   -5.410566
    111          7           0      -25.787861    0.407249   -1.356799
    112          6           0      -25.227168    0.130391   -2.560015
    113          6           0      -24.392971    1.157985   -2.992767
    114          6           0      -24.435371    2.068520   -1.975811
    115          6           0      -25.298167    1.620922   -0.994945
    116          6           0      -23.677967    1.228442   -4.339306
    117          6           0      -23.900504    3.388421   -1.609051
    118          8           0      -23.008755    4.084606   -2.070734
    119          6           0      -24.656174    3.768301   -0.261547
    120          6           0      -23.646863    4.146900    0.711866
    121          8           0      -22.922615    3.388780    1.364730
    122          8           0      -23.457823    5.476721    0.582768
    123          6           0      -22.229548    5.927868    1.211967
    124          1           0      -28.853201    0.269340    3.820418
    125          1           0      -29.454510   -4.230437   -0.672090
    126          1           0      -25.169626   -1.293678   -4.304916
    127          1           0      -25.725973    3.736212    2.787210
    128          1           0      -28.182278    2.743475    3.701104
    129          1           0      -27.034908    2.278421    5.477170
    130          1           0      -25.521070    2.387563    4.561315
    131          1           0      -26.299330    0.876588    4.695799
    132          1           0      -28.600554    4.140491    1.992197
    133          1           0      -27.499180    4.678782    0.749306
    134          1           0      -28.406820    6.053186    3.124083
    135          1           0      -27.502112    6.549262    1.863946
    136          1           0      -30.529623   -1.094078    4.469551
    137          1           0      -29.820140   -2.735780    4.667670
    138          1           0      -31.496096   -2.492380    4.123433
    139          1           0      -32.767805   -4.029981    2.971143
    140          1           0      -31.306801   -4.931671    3.692439
    141          1           0      -32.404146   -5.740665    2.686116
    142          1           0      -28.941180   -4.233655   -3.008916
    143          1           0      -26.360155   -3.625935   -4.356865
    144          1           0      -27.746922   -6.113658   -2.940964
    145          1           0      -26.935439   -5.578720   -1.452063
    146          1           0      -26.117134   -5.454283   -3.006220
    147          1           0      -27.396992   -2.145498   -5.758504
    148          1           0      -28.386998   -1.527239   -4.344914
    149          1           0      -30.174042   -2.811227   -4.763955
    150          1           0      -29.064547   -4.126762   -5.457933
    151          1           0      -29.574259   -2.798264   -6.437980
    152          1           0      -24.322094    0.669624   -5.018632
    153          1           0      -22.718143    0.712724   -4.344083
    154          1           0      -23.587680    2.276964   -4.622552
    155          1           0      -25.304438    4.611969   -0.501676
    156          1           0      -22.051485    6.996621    1.096435
    157          1           0      -21.337108    5.330100    1.025968
    158          1           0      -22.308006    5.847693    2.296728
 ---------------------------------------------------------------------

 SCF Done:  E(RCAM-B3LYP) =  -4069.77882571     A.U. after   18 cycles

 Excitation energies and oscillator strengths:

 Excited State   1:      Singlet-A      1.7683 eV  701.13 nm  f=0.3746  <S**2>=0.000
     309 -> 315       -0.19166
     312 -> 314        0.68182
     309 <- 315       -0.10600
 This state for optimization and/or second-order correction.
 Total Energy, E(TD-HF/TD-DFT) =  -4069.71384049
 Copying the excited state density for this state as the 1-particle RhoCI density.

 Excited State   2:      Singlet-A      1.8346 eV  675.80 nm  f=0.3725  <S**2>=0.000
     310 -> 316        0.18806
     311 -> 313        0.68158
     310 <- 316        0.10395

 Excited State   3:      Singlet-A      2.2402 eV  553.45 nm  f=0.1569  <S**2>=0.000
     310 -> 313        0.65519
     311 -> 316       -0.25326

 Excited State   4:      Singlet-A      2.2756 eV  544.83 nm  f=0.0580  <S**2>=0.000
     309 -> 314        0.61595
     312 -> 315        0.33783

 Excited State   5:      Singlet-A      3.1840 eV  389.40 nm  f=0.0000  <S**2>=0.000
     312 -> 313        0.70711

 The electronic state is 1-A.
 Alpha  occ. eigenvalues --  -46.89371 -46.87942 -19.24901 -19.23896 -19.20535
 Alpha  occ. eigenvalues --  -19.19921 -19.18869 -19.18773 -19.18324 -19.17636
 Alpha  occ. eigenvalues --  -14.41695 -14.41491 -14.41139 -14.41046 -14.39987
 Alpha  occ. eigenvalues --  -14.39963 -14.38735 -14.38653 -10.38239 -10.38223
 Alpha  occ. eigenvalues --  -10.36987 -10.35951 -10.34826 -10.33531 -10.31257
 Alpha  occ. eigenvalues --  -10.30814 -10.30805 -10.30743 -10.30641 -10.30631
 Alpha  occ. eigenvalues --  -10.30570 -10.30538 -10.30437 -10.30229 -10.30121
 Alpha  occ. eigenvalues --  -10.29611 -10.29596 -10.29437 -10.29213 -10.29015
 Alpha  occ. eigenvalues --  -10.28951 -10.28913 -10.28703 -10.28510 -10.28418
 Alpha  occ. eigenvalues --  -10.28049 -10.27977 -10.27846 -10.27838 -10.27811
 Alpha  occ. eigenvalues --  -10.27797 -10.27747 -10.27733 -10.27716 -10.27579
 Alpha  occ. eigenvalues --  -10.27545 -10.27535 -10.27515 -10.27492 -10.27474
 Alpha  occ. eigenvalues --  -10.27377 -10.27312 -10.27304 -10.27271 -10.27225
 Alpha  occ. eigenvalues --  -10.27137 -10.27131 -10.26510 -10.26508 -10.26480
 Alpha  occ. eigenvalues --  -10.26248 -10.26222 -10.26094 -10.26027 -10.26023
 Alpha  occ. eigenvalues --  -10.25998 -10.25886 -10.25550 -10.25548 -10.25478
 Alpha  occ. eigenvalues --  -10.25378 -10.25232 -10.25200 -10.25041 -10.24046
 Alpha  occ. eigenvalues --  -10.23729  -3.17872  -3.16798  -1.92773  -1.92345
 Alpha  occ. eigenvalues --   -1.92157  -1.91663  -1.91267  -1.91131  -1.16494
 Alpha  occ. eigenvalues --   -1.14827  -1.12617  -1.11515  -1.09461  -1.08987
 Alpha  occ. eigenvalues --   -1.06643  -1.05905  -1.05792  -1.05573  -1.05211
 Alpha  occ. eigenvalues --   -1.04684  -1.04644  -1.04098  -1.03421  -1.02981
 Alpha  occ. eigenvalues --   -0.92353  -0.92325  -0.89615  -0.89178  -0.88755
 Alpha  occ. eigenvalues --   -0.88406  -0.88115  -0.88009  -0.87945  -0.87530
 Alpha  occ. eigenvalues --   -0.87452  -0.86912  -0.86543  -0.85597  -0.84379
 Alpha  occ. eigenvalues --   -0.84358  -0.83570  -0.83113  -0.82696  -0.82588
 Alpha  occ. eigenvalues --   -0.82389  -0.81948  -0.81048  -0.80737  -0.80511
 Alpha  occ. eigenvalues --   -0.80103  -0.79010  -0.78613  -0.77449  -0.76967
 Alpha  occ. eigenvalues --   -0.76846  -0.76644  -0.75720  -0.75687  -0.75270
 Alpha  occ. eigenvalues --   -0.75195  -0.72763  -0.72626  -0.71671  -0.71669
 Alpha  occ. eigenvalues --   -0.69669  -0.69628  -0.69013  -0.68769  -0.68135
 Alpha  occ. eigenvalues --   -0.67586  -0.67301  -0.66776  -0.65451  -0.65400
 Alpha  occ. eigenvalues --   -0.65078  -0.64959  -0.64731  -0.64674  -0.63746
 Alpha  occ. eigenvalues --   -0.63691  -0.61813  -0.61698  -0.61103  -0.60821
 Alpha  occ. eigenvalues --   -0.59513  -0.59303  -0.59269  -0.59249  -0.58414
 Alpha  occ. eigenvalues --   -0.57925  -0.57913  -0.57787  -0.57536  -0.57485
 Alpha  occ. eigenvalues --   -0.56545  -0.56290  -0.55485  -0.55301  -0.55195
 Alpha  occ. eigenvalues --   -0.55105  -0.54656  -0.54633  -0.54403  -0.54050
 Alpha  occ. eigenvalues --   -0.53792  -0.53621  -0.53617  -0.53191  -0.52965
 Alpha  occ. eigenvalues --   -0.52879  -0.52609  -0.52605  -0.52423  -0.52282
 Alpha  occ. eigenvalues --   -0.52280  -0.51682  -0.51616  -0.51299  -0.51244
 Alpha  occ. eigenvalues --   -0.51165  -0.50663  -0.50596  -0.50470  -0.50447
 Alpha  occ. eigenvalues --   -0.50217  -0.50043  -0.49717  -0.49485  -0.49319
 Alpha  occ. eigenvalues --   -0.49091  -0.49078  -0.48925  -0.48775  -0.48763
 Alpha  occ. eigenvalues --   -0.48619  -0.48559  -0.48303  -0.48048  -0.47998
 Alpha  occ. eigenvalues --   -0.47912  -0.47770  -0.47511  -0.47400  -0.47155
 Alpha  occ. eigenvalues --   -0.47055  -0.46784  -0.46741  -0.46641  -0.46498
 Alpha  occ. eigenvalues --   -0.46215  -0.45767  -0.45693  -0.45467  -0.45444
 Alpha  occ. eigenvalues --   -0.45235  -0.44942  -0.44813  -0.44654  -0.44495
 Alpha  occ. eigenvalues --   -0.44382  -0.44332  -0.44101  -0.44069  -0.43907
 Alpha  occ. eigenvalues --   -0.43896  -0.43817  -0.43812  -0.43450  -0.43315
 Alpha  occ. eigenvalues --   -0.43261  -0.43159  -0.42971  -0.42894  -0.42832
 Alpha  occ. eigenvalues --   -0.42665  -0.42486  -0.42423  -0.42265  -0.42124
 Alpha  occ. eigenvalues --   -0.42083  -0.41830  -0.41559  -0.41424  -0.41362
 Alpha  occ. eigenvalues --   -0.41236  -0.41046  -0.40733  -0.40505  -0.40411
 Alpha  occ. eigenvalues --   -0.39742  -0.39573  -0.39342  -0.39191  -0.38612
 Alpha  occ. eigenvalues --   -0.38453  -0.38260  -0.38181  -0.38090  -0.37456
 Alpha  occ. eigenvalues --   -0.36986  -0.36609  -0.36433  -0.36259  -0.35932
 Alpha  occ. eigenvalues --   -0.35657  -0.35137  -0.34343  -0.34180  -0.33732
 Alpha  occ. eigenvalues --   -0.33263  -0.32925  -0.32488  -0.32480  -0.31938
 Alpha  occ. eigenvalues --   -0.31532  -0.31349  -0.30701  -0.30616  -0.30375
 Alpha  occ. eigenvalues --   -0.30076  -0.29696  -0.29486  -0.23798  -0.23383
 Alpha  occ. eigenvalues --   -0.21374  -0.20593
 Alpha virt. eigenvalues --   -0.08264  -0.07814  -0.01737  -0.01087   0.00237
 Alpha virt. eigenvalues --    0.00558   0.02292   0.02415   0.02734   0.03039
 Alpha virt. eigenvalues --    0.04193   0.05039   0.05710   0.05873   0.06125

 Mulliken charges:
               1
     1  Mg   0.850560
     2  C    0.012143
     3  C   -0.109461
     4  C   -0.070322
     5  C   -0.108738
     6  N   -0.257949
     7  C   -0.051833
     8  C   -0.000859
     9  C   -0.101390
    10  C    0.045277
    11  C    0.094733
    12  C    0.048929
    13  C   -0.072546
    14  H    0.012976
    15  N   -0.419478
    16  C    0.163750
    17  C   -0.108897
    18  C   -0.091231
    19  C    0.161832
    20  C    0.094040
    21  C    0.026215
    22  O   -0.168448
    23  C    0.036212
    24  N   -0.251356
    25  C    0.003043
    26  C   -0.036977
    27  C    0.001978
    28  C   -0.034632
    29  C    0.070316
    30  C    0.035394
    31  C    0.008524
    32  N   -0.312639
    33  C    0.155298
    34  C   -0.183090
    35  C    0.078812
    36  C    0.062721
    37  C    0.144280
    38  C   -0.022480
    39  O   -0.177552
    40  C    0.001706
    41  C    0.195338
    42  O   -0.239454
    43  O   -0.323696
    44  C    0.190513
    45  H   -0.033056
    46  H   -0.010558
    47  H   -0.035043
    48  H    0.022031
    49  H    0.005891
    50  H    0.023416
    51  H    0.016543
    52  H    0.024991
    53  H    0.008962
    54  H    0.018151
    55  H    0.025963
    56  H    0.040073
    57  H    0.037354
    58  H    0.007418
    59  H    0.045243
    60  H    0.040713
    61  H    0.049161
    62  H    0.021276
    63  H    0.008520
    64  H    0.002528
    65  H    0.016656
    66  H    0.005051
    67  H    0.028202
    68  H    0.006565
    69  H    0.007644
    70  H    0.009861
    71  H    0.017922
    72  H    0.021362
    73  H    0.036295
    74  H    0.041588
    75  H   -0.001559
    76  H    0.044078
    77  H    0.042904
    78  H    0.040266
    79  H    0.012025
    80  Mg   0.824271
    81  C    0.010014
    82  C   -0.058322
    83  C   -0.077485
    84  C   -0.071138
    85  N   -0.187764
    86  C   -0.104820
    87  C   -0.021634
    88  C   -0.036004
    89  C   -0.028550
    90  C    0.088101
    91  C    0.049005
    92  C   -0.037966
    93  H    0.035284
    94  N   -0.382886
    95  C    0.143308
    96  C   -0.137992
    97  C   -0.053143
    98  C    0.096477
    99  C    0.105620
   100  C    0.029684
   101  O   -0.167262
   102  C    0.040801
   103  N   -0.248103
   104  C    0.043853
   105  C   -0.049642
   106  C   -0.064525
   107  C    0.033769
   108  C    0.074634
   109  C    0.034651
   110  C    0.005243
   111  N   -0.317532
   112  C    0.075638
   113  C   -0.206283
   114  C    0.001031
   115  C    0.122228
   116  C    0.136328
   117  C    0.060780
   118  O   -0.161568
   119  C   -0.025046
   120  C    0.186386
   121  O   -0.243551
   122  O   -0.299418
   123  C    0.194950
   124  H   -0.035361
   125  H   -0.014022
   126  H   -0.022076
   127  H    0.018006
   128  H   -0.009346
   129  H    0.017783
   130  H    0.020679
   131  H    0.014756
   132  H    0.007799
   133  H    0.024755
   134  H    0.015713
   135  H    0.014660
   136  H    0.021426
   137  H    0.041740
   138  H    0.018444
   139  H    0.065197
   140  H    0.023181
   141  H    0.024010
   142  H    0.019513
   143  H   -0.009338
   144  H    0.020103
   145  H    0.023934
   146  H    0.021301
   147  H    0.012422
   148  H    0.003381
   149  H    0.029279
   150  H    0.014356
   151  H    0.015704
   152  H    0.005789
   153  H    0.029832
   154  H    0.032440
   155  H    0.043041
   156  H    0.030132
   157  H    0.042710
   158  H    0.006634
 Sum of Mulliken charges =  -0.00000

 Dipole moment (field-independent basis, Debye):
    X=             -8.9175    Y=             -1.8284    Z=              6.7913  Tot=             11.3572
 Quadrupole moment (field-independent basis, Debye-Ang):
   XX=           -441.5478   YY=           -507.8336   ZZ=           -470.4948
   XY=            -31.3107   XZ=             19.5149   YZ=             32.1216

 Normal termination of Gaussian 16 at Tue Aug 31 16:15:22 2021.
