 Gaussian 16, Revision A.03,
 Gaussian 16:  ES64L-G16RevA.03 25-Dec-2016

 ----------------------------------------------------------
 #p cam-b3lyp/Def2SVP td=(nstates=5) density=(transition=1)
 ----------------------------------------------------------

 --------------------------------
 TDDFT excited states in gaussian
 --------------------------------
 Symbolic Z-matrix:
 Charge =  0 Multiplicity = 1

                         Standard orientation:
 ---------------------------------------------------------------------
 Center     Atomic      Atomic             Coordinates (Angstroms)
 Number     Number       Type             X           Y           Z
 ---------------------------------------------------------------------
      1         12           0      -27.129408   -0.398382    0.106615
      2          6           0      -23.723957   -0.114090   -0.774557
      3          6           0      -26.160072   -1.272502    3.341424
      4          6           0      -30.296197    0.341136    1.125901
      5          6           0      -27.864645    1.013830   -3.101958
      6          7           0      -25.198053   -0.683886    1.106051
      7          6           0      -23.972208   -0.490643    0.574748
      8          6           0      -22.858340   -0.646060    1.660716
      9          6           0      -23.687589   -1.375321    2.815373
     10          6           0      -25.174881   -1.135934    2.398540
     11          6           0      -23.534251   -2.893058    3.063718
     12          6           0      -22.321337    0.783545    2.048126
     13          6           0      -20.798967    0.826102    2.356759
     14          1           0      -20.374622    1.740897    3.576896
     15          7           0      -28.186254   -0.650782    1.977538
     16          6           0      -27.580041   -1.065969    3.133450
     17          6           0      -28.596619   -1.163004    4.110873
     18          6           0      -29.811594   -0.648006    3.568893
     19          6           0      -29.502524   -0.328263    2.134956
     20          6           0      -28.391788   -1.642642    5.528421
     21          6           0      -31.065437   -0.342564    4.315096
     22          8           0      -31.138932   -0.457272    5.528021
     23          6           0      -32.271920    0.172262    3.721649
     24          7           0      -28.813202    0.666146   -0.872903
     25          6           0      -30.065870    0.665516   -0.241672
     26          6           0      -31.129879    1.136066   -1.183352
     27          6           0      -30.371262    1.424291   -2.531449
     28          6           0      -28.946186    1.028058   -2.185930
     29          6           0      -32.217206    0.058859   -1.286347
     30          6           0      -30.675134    2.845442   -3.138931
     31          6           0      -31.223036    2.883094   -4.533341
     32          7           0      -26.045497    0.297713   -1.664080
     33          6           0      -26.507914    0.775958   -2.865493
     34          6           0      -25.394503    0.910646   -3.830329
     35          6           0      -24.292825    0.622304   -2.981787
     36          6           0      -24.742730    0.186421   -1.749590
     37          6           0      -25.409346    1.428988   -5.259833
     38          6           0      -22.856102    0.679955   -2.930073
     39          8           0      -22.042958    1.056285   -3.788579
     40          6           0      -22.389985    0.203632   -1.554567
     41          6           0      -21.446733   -0.924188   -1.670344
     42          8           0      -20.350626   -0.879537   -1.242395
     43          8           0      -22.020569   -2.072643   -2.133749
     44          6           0      -21.098431   -3.218438   -1.977783
     45          1           0      -25.895377   -1.623375    4.341524
     46          1           0      -31.315514    0.464575    1.495124
     47          1           0      -27.887913    1.469761   -4.094518
     48          1           0      -22.062081   -1.261638    1.241862
     49          1           0      -23.751046   -0.830731    3.757301
     50          1           0      -23.214412   -3.396516    2.150683
     51          1           0      -24.408220   -3.410451    3.459554
     52          1           0      -22.721225   -2.991186    3.782275
     53          1           0      -22.892666    1.199764    2.878339
     54          1           0      -22.534295    1.399553    1.174411
     55          1           0      -20.366786    1.204226    1.430125
     56          1           0      -20.546615   -0.230038    2.454101
     57          1           0      -29.277320   -2.009597    6.047499
     58          1           0      -27.991302   -0.765216    6.035477
     59          1           0      -27.541453   -2.302030    5.702426
     60          1           0      -32.609479   -0.573092    3.000371
     61          1           0      -32.103924    1.151711    3.272893
     62          1           0      -33.017362    0.294073    4.507566
     63          1           0      -31.503877    2.114081   -0.881459
     64          1           0      -30.463500    0.688310   -3.330454
     65          1           0      -32.157638   -0.690476   -0.496639
     66          1           0      -32.147150   -0.497364   -2.221124
     67          1           0      -33.184733    0.495268   -1.040059
     68          1           0      -29.721632    3.371195   -3.088618
     69          1           0      -31.470099    3.385033   -2.625470
     70          1           0      -30.566601    3.527639   -5.117320
     71          1           0      -32.212866    3.338551   -4.568586
     72          1           0      -31.390761    1.892490   -4.956147
     73          1           0      -25.384591    2.517585   -5.313272
     74          1           0      -26.230183    1.026873   -5.854993
     75          1           0      -24.428575    1.101985   -5.604948
     76          1           0      -21.776666    0.974114   -1.089115
     77          1           0      -21.605027   -4.104566   -2.361082
     78          1           0      -20.824015   -3.352775   -0.931572
     79          1           0      -20.213576   -3.172440   -2.611681
     80         12           0       26.241809    0.754854    0.495688
     81          6           0       26.608120   -2.669945   -0.305257
     82          6           0       23.810236    0.957091   -1.907566
     83          6           0       26.361767    4.051617    0.786877
     84          6           0       29.059896    0.474145    2.552638
     85          7           0       25.430498   -0.665804   -1.057262
     86          6           0       25.670942   -2.041895   -1.093365
     87          6           0       24.621088   -2.737079   -1.994901
     88          6           0       23.743428   -1.540271   -2.514324
     89          6           0       24.308392   -0.300736   -1.766758
     90          6           0       23.524400   -1.441044   -4.013886
     91          6           0       23.789372   -3.853329   -1.344145
     92          6           0       23.844121   -5.205853   -2.106226
     93          1           0       22.504601   -5.774714   -2.518606
     94          7           0       25.144319    2.274980   -0.392543
     95          6           0       24.209702    2.193191   -1.382605
     96          6           0       23.626456    3.503728   -1.544157
     97          6           0       24.479079    4.467415   -0.853515
     98          6           0       25.382021    3.574968   -0.142975
     99          6           0       22.431358    3.799061   -2.590603
    100          6           0       24.656068    5.915006   -1.021981
    101          8           0       25.382338    6.637939   -0.401374
    102          6           0       23.825950    6.563385   -2.125851
    103          7           0       27.692649    2.088281    1.383704
    104          6           0       27.460989    3.415221    1.411317
    105          6           0       28.400628    4.108298    2.400782
    106          6           0       28.983939    2.930213    3.197396
    107          6           0       28.539793    1.739990    2.376744
    108          6           0       29.530042    4.946541    1.643549
    109          6           0       28.283987    2.899186    4.650198
    110          6           0       26.803985    2.428877    4.675303
    111          7           0       27.553151   -0.764064    1.168962
    112          6           0       28.612895   -0.717698    1.992367
    113          6           0       29.148007   -2.047480    2.110116
    114          6           0       28.372692   -2.834377    1.279268
    115          6           0       27.432164   -2.010542    0.654854
    116          6           0       30.327931   -2.535736    2.928754
    117          6           0       28.281109   -4.215199    0.797352
    118          8           0       28.894868   -5.240818    0.888841
    119          6           0       27.084690   -4.187772   -0.190183
    120          6           0       27.630453   -4.653969   -1.489094
    121          8           0       28.585459   -4.122215   -1.997183
    122          8           0       26.996191   -5.782908   -1.982178
    123          6           0       27.675057   -6.483960   -3.122973
    124          1           0       22.904639    0.963042   -2.517942
    125          1           0       26.368498    5.120705    1.011020
    126          1           0       29.797827    0.250482    3.325908
    127          1           0       25.125920   -3.128831   -2.878195
    128          1           0       22.717913   -1.711762   -2.186619
    129          1           0       24.243694   -2.051143   -4.558229
    130          1           0       23.551965   -0.420041   -4.395369
    131          1           0       22.554987   -1.901730   -4.202235
    132          1           0       22.714840   -3.699570   -1.244805
    133          1           0       24.116723   -4.030560   -0.319930
    134          1           0       24.461653   -5.935064   -1.581917
    135          1           0       24.353200   -5.026763   -3.052400
    136          1           0       21.669179    4.378185   -2.069378
    137          1           0       21.901347    2.928730   -2.975681
    138          1           0       22.669616    4.294706   -3.531674
    139          1           0       22.799821    6.385469   -1.803278
    140          1           0       24.082155    6.006903   -3.026844
    141          1           0       23.949231    7.643182   -2.214746
    142          1           0       27.883783    4.742560    3.121763
    143          1           0       30.062858    2.821815    3.310434
    144          1           0       29.804400    5.771278    2.301828
    145          1           0       29.286441    5.402625    0.683397
    146          1           0       30.363743    4.249324    1.561745
    147          1           0       28.345832    3.855582    5.169042
    148          1           0       28.734183    2.110591    5.253300
    149          1           0       26.283488    2.570879    5.621822
    150          1           0       26.797761    1.359454    4.463991
    151          1           0       26.281782    2.948051    3.870984
    152          1           0       30.206617   -2.420139    4.005557
    153          1           0       31.146748   -1.895484    2.601592
    154          1           0       30.625272   -3.552906    2.673760
    155          1           0       26.412619   -4.944471    0.214177
    156          1           0       26.800351   -6.665013   -3.747638
    157          1           0       28.123229   -7.434542   -2.834369
    158          1           0       28.460439   -5.982254   -3.687724
 ---------------------------------------------------------------------

 SCF Done:  E(RCAM-B3LYP) =  -4069.79506640     A.U. after   19 cycles

 Excitation energies and oscillator strengths:

 Excited State   1:      Singlet-A      1.6804 eV  737.82 nm  f=0.4060  <S**2>=0.000
     309 -> 315       -0.17286
     311 -> 313        0.68698
     309 <- 315       -0.10657
 This state for optimization and/or second-order correction.
 Total Energy, E(TD-HF/TD-DFT) =  -4069.73331211
 Copying the excited state density for this state as the 1-particle RhoCI density.

 Excited State   2:      Singlet-A      1.7037 eV  727.75 nm  f=0.4046  <S**2>=0.000
     310 -> 316       -0.17555
     312 -> 314        0.68728
     310 <- 316       -0.10762

 Excited State   3:      Singlet-A      2.1918 eV  565.68 nm  f=0.1394  <S**2>=0.000
     310 -> 314        0.65688
     312 -> 316        0.24833

 Excited State   4:      Singlet-A      2.2017 eV  563.13 nm  f=0.1134  <S**2>=0.000
     309 -> 313        0.64206
     311 -> 315        0.28113

 Excited State   5:      Singlet-A      3.1346 eV  395.54 nm  f=0.0000  <S**2>=0.000
     312 -> 313        0.70710

 The electronic state is 1-A.
 Alpha  occ. eigenvalues --  -46.90870 -46.89543 -19.25148 -19.25143 -19.19953
 Alpha  occ. eigenvalues --  -19.19606 -19.19279 -19.18878 -19.18399 -19.17352
 Alpha  occ. eigenvalues --  -14.43008 -14.42735 -14.42111 -14.41921 -14.39939
 Alpha  occ. eigenvalues --  -14.39772 -14.39333 -14.39230 -10.38794 -10.38766
 Alpha  occ. eigenvalues --  -10.35155 -10.34806 -10.34374 -10.33536 -10.32277
 Alpha  occ. eigenvalues --  -10.32017 -10.31892 -10.31857 -10.31808 -10.31527
 Alpha  occ. eigenvalues --  -10.31096 -10.31022 -10.30775 -10.30759 -10.30754
 Alpha  occ. eigenvalues --  -10.30240 -10.30216 -10.29962 -10.29891 -10.29627
 Alpha  occ. eigenvalues --  -10.29352 -10.29341 -10.29160 -10.29116 -10.29067
 Alpha  occ. eigenvalues --  -10.28942 -10.28807 -10.28676 -10.28540 -10.28492
 Alpha  occ. eigenvalues --  -10.28456 -10.28202 -10.28187 -10.28183 -10.28030
 Alpha  occ. eigenvalues --  -10.28026 -10.27997 -10.27892 -10.27781 -10.27765
 Alpha  occ. eigenvalues --  -10.27573 -10.27512 -10.27507 -10.27391 -10.27073
 Alpha  occ. eigenvalues --  -10.27030 -10.26999 -10.26988 -10.26843 -10.26693
 Alpha  occ. eigenvalues --  -10.26647 -10.26553 -10.26548 -10.26509 -10.26426
 Alpha  occ. eigenvalues --  -10.26273 -10.26174 -10.25964 -10.25954 -10.25780
 Alpha  occ. eigenvalues --  -10.25609 -10.25483 -10.25321 -10.25292 -10.25061
 Alpha  occ. eigenvalues --  -10.25042  -3.19017  -3.17946  -1.93930  -1.93452
 Alpha  occ. eigenvalues --   -1.93312  -1.92829  -1.92415  -1.92239  -1.18008
 Alpha  occ. eigenvalues --   -1.15689  -1.11670  -1.11067  -1.09584  -1.09076
 Alpha  occ. eigenvalues --   -1.08989  -1.07622  -1.05187  -1.05148  -1.04290
 Alpha  occ. eigenvalues --   -1.03834  -1.03784  -1.03468  -1.02569  -1.01998
 Alpha  occ. eigenvalues --   -0.92663  -0.92361  -0.89455  -0.89053  -0.88879
 Alpha  occ. eigenvalues --   -0.88811  -0.88270  -0.88219  -0.88096  -0.87742
 Alpha  occ. eigenvalues --   -0.87049  -0.86544  -0.86330  -0.85857  -0.84915
 Alpha  occ. eigenvalues --   -0.84688  -0.84411  -0.83498  -0.82747  -0.82548
 Alpha  occ. eigenvalues --   -0.82507  -0.81210  -0.80962  -0.80864  -0.80587
 Alpha  occ. eigenvalues --   -0.80166  -0.78692  -0.78379  -0.77648  -0.77421
 Alpha  occ. eigenvalues --   -0.76903  -0.76763  -0.76532  -0.76165  -0.75466
 Alpha  occ. eigenvalues --   -0.75224  -0.73180  -0.73103  -0.72553  -0.71765
 Alpha  occ. eigenvalues --   -0.69407  -0.69367  -0.69299  -0.69198  -0.68077
 Alpha  occ. eigenvalues --   -0.67993  -0.67300  -0.66934  -0.66385  -0.65748
 Alpha  occ. eigenvalues --   -0.65484  -0.65322  -0.65157  -0.65031  -0.64684
 Alpha  occ. eigenvalues --   -0.64441  -0.63344  -0.62280  -0.60412  -0.60114
 Alpha  occ. eigenvalues --   -0.60058  -0.59720  -0.59285  -0.59028  -0.58923
 Alpha  occ. eigenvalues --   -0.58752  -0.58345  -0.58126  -0.57537  -0.57113
 Alpha  occ. eigenvalues --   -0.56545  -0.56116  -0.55987  -0.55591  -0.55370
 Alpha  occ. eigenvalues --   -0.55224  -0.55170  -0.54588  -0.54577  -0.54198
 Alpha  occ. eigenvalues --   -0.53542  -0.53426  -0.53417  -0.53230  -0.52943
 Alpha  occ. eigenvalues --   -0.52860  -0.52690  -0.52671  -0.52440  -0.52301
 Alpha  occ. eigenvalues --   -0.52127  -0.51886  -0.51793  -0.51505  -0.51494
 Alpha  occ. eigenvalues --   -0.51367  -0.51261  -0.50924  -0.50763  -0.50081
 Alpha  occ. eigenvalues --   -0.50031  -0.49891  -0.49798  -0.49600  -0.49507
 Alpha  occ. eigenvalues --   -0.49382  -0.49320  -0.49303  -0.49074  -0.49034
 Alpha  occ. eigenvalues --   -0.48654  -0.48433  -0.48406  -0.48288  -0.48240
 Alpha  occ. eigenvalues --   -0.47939  -0.47575  -0.47562  -0.47469  -0.47364
 Alpha  occ. eigenvalues --   -0.47008  -0.46996  -0.46829  -0.46716  -0.46432
 Alpha  occ. eigenvalues --   -0.46391  -0.46366  -0.46133  -0.46099  -0.45897
 Alpha  occ. eigenvalues --   -0.45792  -0.45595  -0.45307  -0.45171  -0.45123
 Alpha  occ. eigenvalues --   -0.45104  -0.44890  -0.44717  -0.44518  -0.44385
 Alpha  occ. eigenvalues --   -0.44055  -0.44049  -0.43686  -0.43628  -0.43385
 Alpha  occ. eigenvalues --   -0.43363  -0.43330  -0.43056  -0.43036  -0.42914
 Alpha  occ. eigenvalues --   -0.42899  -0.42681  -0.42436  -0.42332  -0.42309
 Alpha  occ. eigenvalues --   -0.42072  -0.41987  -0.41817  -0.41463  -0.41369
 Alpha  occ. eigenvalues --   -0.41311  -0.41060  -0.40922  -0.40826  -0.40316
 Alpha  occ. eigenvalues --   -0.40167  -0.39733  -0.39668  -0.39270  -0.39083
 Alpha  occ. eigenvalues --   -0.38709  -0.38326  -0.38065  -0.37934  -0.37838
 Alpha  occ. eigenvalues --   -0.37673  -0.37270  -0.37023  -0.36923  -0.36436
 Alpha  occ. eigenvalues --   -0.36363  -0.36235  -0.34957  -0.34403  -0.34167
 Alpha  occ. eigenvalues --   -0.34083  -0.33526  -0.33397  -0.31617  -0.31527
 Alpha  occ. eigenvalues --   -0.31221  -0.31008  -0.30424  -0.30390  -0.30300
 Alpha  occ. eigenvalues --   -0.30151  -0.30040  -0.29232  -0.24542  -0.24177
 Alpha  occ. eigenvalues --   -0.21607  -0.21581
 Alpha virt. eigenvalues --   -0.09417  -0.09172  -0.02286  -0.01429   0.00252
 Alpha virt. eigenvalues --    0.00558   0.01181   0.01687   0.02396   0.02511
 Alpha virt. eigenvalues --    0.04655   0.05309   0.05411   0.05672   0.06052

 Mulliken charges:
               1
     1  Mg  12.001651
     2  C    6.025524
     3  C    5.980106
     4  C    5.976722
     5  C    6.008881
     6  N    7.003729
     7  C    5.962603
     8  C    6.008353
     9  C    5.997554
    10  C    6.031287
    11  C    5.990902
    12  C    6.002022
    13  C    6.001154
    14  H    0.992107
    15  N    6.986289
    16  C    6.052318
    17  C    6.019325
    18  C    6.008107
    19  C    6.052721
    20  C    5.994802
    21  C    6.011287
    22  O    8.021842
    23  C    5.994549
    24  N    6.998882
    25  C    6.035197
    26  C    5.986511
    27  C    6.008149
    28  C    5.966607
    29  C    5.997058
    30  C    6.000565
    31  C    6.002373
    32  N    7.005054
    33  C    5.958197
    34  C    5.966952
    35  C    5.998653
    36  C    5.965851
    37  C    6.001420
    38  C    5.984083
    39  O    7.967768
    40  C    6.000985
    41  C    5.995255
    42  O    7.991487
    43  O    8.003974
    44  C    6.003147
    45  H    1.009783
    46  H    1.007261
    47  H    0.991964
    48  H    1.001760
    49  H    0.996693
    50  H    1.014675
    51  H    0.994574
    52  H    1.008494
    53  H    0.987589
    54  H    1.008381
    55  H    1.005003
    56  H    0.996614
    57  H    1.016181
    58  H    1.022111
    59  H    1.022120
    60  H    1.009745
    61  H    1.011631
    62  H    1.013363
    63  H    1.003065
    64  H    1.004264
    65  H    0.992085
    66  H    1.011112
    67  H    1.002502
    68  H    1.002952
    69  H    0.988313
    70  H    1.002176
    71  H    0.993631
    72  H    0.997650
    73  H    0.977760
    74  H    0.980800
    75  H    0.986851
    76  H    0.991065
    77  H    0.995658
    78  H    0.992467
    79  H    0.997704
    80  Mg  11.999991
    81  C    6.000513
    82  C    5.999922
    83  C    5.999607
    84  C    6.000022
    85  N    7.000133
    86  C    5.999445
    87  C    6.000187
    88  C    5.999880
    89  C    6.000272
    90  C    5.999949
    91  C    5.999991
    92  C    6.000023
    93  H    0.999949
    94  N    6.999937
    95  C    6.000405
    96  C    6.000292
    97  C    6.000240
    98  C    6.000416
    99  C    5.999922
   100  C    6.000111
   101  O    8.000339
   102  C    5.999968
   103  N    6.999927
   104  C    6.000465
   105  C    5.999900
   106  C    6.000081
   107  C    5.999716
   108  C    5.999937
   109  C    6.000063
   110  C    6.000030
   111  N    7.000086
   112  C    5.999581
   113  C    5.999576
   114  C    6.000077
   115  C    5.999383
   116  C    6.000054
   117  C    5.999788
   118  O    7.999689
   119  C    5.999963
   120  C    5.999928
   121  O    7.999974
   122  O    7.999981
   123  C    6.000036
   124  H    1.000166
   125  H    1.000073
   126  H    0.999837
   127  H    0.999968
   128  H    1.000056
   129  H    1.000128
   130  H    0.999941
   131  H    1.000103
   132  H    0.999924
   133  H    1.000051
   134  H    1.000031
   135  H    0.999980
   136  H    1.000238
   137  H    1.000261
   138  H    1.000273
   139  H    1.000095
   140  H    1.000062
   141  H    1.000192
   142  H    1.000007
   143  H    0.999985
   144  H    1.000028
   145  H    0.999933
   146  H    1.000138
   147  H    0.999851
   148  H    1.000009
   149  H    0.999929
   150  H    1.000136
   151  H    0.999799
   152  H    0.999723
   153  H    0.999769
   154  H    0.999802
   155  H    0.999903
   156  H    0.999948
   157  H    0.999954
   158  H    0.999958
 Sum of Mulliken charges = 624.00000

 Dipole moment (field-independent basis, Debye):
    X=             -5.6044    Y=             -2.4009    Z=              9.5002  Tot=             11.2884
 Quadrupole moment (field-independent basis, Debye-Ang):
   XX=            292.3605   YY=             -0.2101   ZZ=              3.9325
   XY=             69.8492   XZ=           -262.1497   YZ=             -0.9147

 Normal termination of Gaussian 16 at Wed Sep 22 02:02:10 2021.
