 Gaussian 16, Revision A.03,
 Gaussian 16:  ES64L-G16RevA.03 25-Dec-2016

 -----------------------------------
 #p cam-b3lyp/Def2SVP td=(nstates=5)
 -----------------------------------

 --------------------------------
 TDDFT excited states in gaussian
 --------------------------------
 Symbolic Z-matrix:
 Charge =  0 Multiplicity = 1

                         Standard orientation:
 ---------------------------------------------------------------------
 Center     Atomic      Atomic             Coordinates (Angstroms)
 Number     Number       Type             X           Y           Z
 ---------------------------------------------------------------------
      1         12           0       33.526492    0.050085    0.152942
      2          6           0       30.053151   -0.260042    0.560382
      3          6           0       33.675225   -3.306063   -0.353494
      4          6           0       36.660708    0.554050   -0.633886
      5          6           0       32.889069    3.583847   -0.116542
      6          7           0       32.045071   -1.555191    0.182267
      7          6           0       30.691605   -1.463678    0.345324
      8          6           0       30.068146   -2.809599   -0.053602
      9          6           0       31.211891   -3.778685    0.224626
     10          6           0       32.382782   -2.830039   -0.096349
     11          6           0       31.249969   -4.258998    1.693805
     12          6           0       29.632388   -2.815428   -1.565539
     13          6           0       28.064709   -2.904096   -1.908636
     14          1           0       27.403888   -1.753673   -2.687039
     15          7           0       34.957793   -1.191162   -0.471139
     16          6           0       34.837857   -2.555966   -0.598571
     17          6           0       36.133345   -3.092712   -0.876151
     18          6           0       37.097256   -2.030991   -0.856030
     19          6           0       36.272156   -0.804704   -0.654761
     20          6           0       36.400121   -4.618912   -1.111634
     21          6           0       38.650769   -2.223897   -0.997362
     22          8           0       39.115421   -3.321410   -1.038130
     23          6           0       39.511582   -1.065021   -0.794095
     24          7           0       34.558155    1.804810   -0.622756
     25          6           0       35.903010    1.730701   -0.481833
     26          6           0       36.551453    3.076835   -0.205483
     27          6           0       35.410108    4.060471   -0.413843
     28          6           0       34.175566    3.093585   -0.392014
     29          6           0       37.166294    3.176943    1.239444
     30          6           0       35.413955    5.014632   -1.699423
     31          6           0       35.686244    6.491345   -1.595738
     32          7           0       31.912190    1.416705    0.402519
     33          6           0       31.795428    2.805961    0.266163
     34          6           0       30.428580    3.246833    0.442170
     35          6           0       29.727004    2.075250    0.586955
     36          6           0       30.631511    0.963876    0.536803
     37          6           0       29.964188    4.642119    0.375603
     38          6           0       28.392659    1.528506    0.780069
     39          8           0       27.320285    2.115361    0.970730
     40          6           0       28.560253    0.026888    0.879411
     41          6           0       28.089693   -0.389725    2.268675
     42          8           0       28.611425    0.078684    3.277917
     43          8           0       26.960510   -1.220852    2.204493
     44          6           0       26.441601   -1.625116    3.483798
     45          1           0       33.709311   -4.397238   -0.354878
     46          1           0       37.746023    0.650446   -0.576632
     47          1           0       32.723593    4.663071   -0.089002
     48          1           0       29.140418   -2.903871    0.511342
     49          1           0       31.112388   -4.622153   -0.457435
     50          1           0       31.324341   -5.330470    1.511330
     51          1           0       30.291889   -3.946673    2.110250
     52          1           0       32.064686   -3.884606    2.313733
     53          1           0       30.071880   -3.701516   -2.023408
     54          1           0       30.107911   -1.962308   -2.048796
     55          1           0       27.560463   -2.897445   -0.942010
     56          1           0       27.757623   -3.828614   -2.396119
     57          1           0       36.974826   -4.908102   -1.990968
     58          1           0       35.414332   -5.079570   -1.183585
     59          1           0       36.906050   -5.092087   -0.269873
     60          1           0       39.316485   -0.234669   -1.473085
     61          1           0       40.547445   -1.382361   -0.913735
     62          1           0       39.526848   -0.789635    0.259541
     63          1           0       37.403203    3.273493   -0.857453
     64          1           0       35.294783    4.696338    0.463939
     65          1           0       38.241963    3.003267    1.263563
     66          1           0       36.588127    2.557242    1.924842
     67          1           0       37.017610    4.203523    1.577365
     68          1           0       34.617882    4.889843   -2.432660
     69          1           0       36.291256    4.558477   -2.158853
     70          1           0       36.619263    6.795677   -2.068983
     71          1           0       35.751235    6.777176   -0.545613
     72          1           0       34.825884    6.957385   -2.075488
     73          1           0       30.670595    5.197271   -0.242164
     74          1           0       30.041430    5.022824    1.394427
     75          1           0       28.926949    4.702089    0.049188
     76          1           0       27.861480   -0.336348    0.127051
     77          1           0       27.013053   -2.411452    3.977692
     78          1           0       25.417425   -1.988414    3.403883
     79          1           0       26.366186   -0.819227    4.213332
     80         12           0      -33.062504    0.521770    0.411561
     81          6           0      -30.841700   -2.066887   -0.132789
     82          6           0      -30.682512    2.691519   -0.804232
     83          6           0      -35.444498    2.996536    0.382532
     84          6           0      -35.428360   -1.725488    1.508714
     85          7           0      -31.097835    0.315911   -0.554525
     86          6           0      -30.373118   -0.859075   -0.590287
     87          6           0      -28.980808   -0.650960   -1.180179
     88          6           0      -28.834283    0.912163   -1.064848
     89          6           0      -30.281663    1.326493   -0.843460
     90          6           0      -27.784574    1.473854   -0.002378
     91          6           0      -28.734332   -1.242217   -2.604823
     92          6           0      -27.431761   -1.991755   -2.789395
     93          1           0      -26.463761   -1.245000   -3.693904
     94          7           0      -33.031070    2.522014   -0.150614
     95          6           0      -31.978450    3.222148   -0.588210
     96          6           0      -32.326828    4.621356   -0.764480
     97          6           0      -33.662444    4.825500   -0.460481
     98          6           0      -34.141541    3.422201   -0.100543
     99          6           0      -31.290929    5.702842   -1.334894
    100          6           0      -34.427363    6.191722   -0.431747
    101          8           0      -33.816576    7.235215   -0.798725
    102          6           0      -35.851689    6.285092   -0.037794
    103          7           0      -35.283305    0.591322    0.660155
    104          6           0      -35.961029    1.710833    0.768617
    105          6           0      -37.307098    1.520905    1.436046
    106          6           0      -37.434318   -0.006974    1.756949
    107          6           0      -35.941672   -0.443994    1.366965
    108          6           0      -37.790460    2.533582    2.522808
    109          6           0      -38.500194   -0.880900    1.034435
    110          6           0      -38.768307   -2.192805    1.742539
    111          7           0      -33.138862   -1.530663    0.639180
    112          6           0      -34.165820   -2.330902    1.191120
    113          6           0      -33.666682   -3.674602    1.299695
    114          6           0      -32.333772   -3.642633    0.822153
    115          6           0      -32.123008   -2.329387    0.411128
    116          6           0      -34.331492   -4.832032    2.029910
    117          6           0      -31.225848   -4.441844    0.640832
    118          8           0      -30.990380   -5.615428    0.737382
    119          6           0      -30.201215   -3.473130   -0.149427
    120          6           0      -30.325680   -3.918390   -1.605724
    121          8           0      -31.212363   -3.596439   -2.373007
    122          8           0      -29.255260   -4.761329   -1.857560
    123          6           0      -29.238202   -5.394525   -3.172251
    124          1           0      -29.916331    3.447475   -0.987612
    125          1           0      -36.146417    3.832429    0.361905
    126          1           0      -36.020634   -2.521840    1.964196
    127          1           0      -28.263974   -1.080451   -0.480931
    128          1           0      -28.659370    1.282018   -2.075807
    129          1           0      -28.180066    2.471630    0.187389
    130          1           0      -26.795729    1.677507   -0.413994
    131          1           0      -27.653609    0.896596    0.912791
    132          1           0      -28.752367   -0.359464   -3.244304
    133          1           0      -29.558921   -1.787976   -3.062943
    134          1           0      -27.677565   -2.968311   -3.207176
    135          1           0      -26.903256   -2.148670   -1.848890
    136          1           0      -30.313001    5.307993   -1.613521
    137          1           0      -31.135842    6.502966   -0.610349
    138          1           0      -31.597060    6.125232   -2.290954
    139          1           0      -35.971496    5.920784    0.982025
    140          1           0      -36.506927    5.851316   -0.793291
    141          1           0      -36.011362    7.352405    0.110221
    142          1           0      -38.172001    1.582130    0.775198
    143          1           0      -37.377168   -0.215180    2.825613
    144          1           0      -37.112392    3.385655    2.458010
    145          1           0      -37.896192    2.097188    3.516693
    146          1           0      -38.780582    2.950228    2.337403
    147          1           0      -38.148329   -0.996232    0.009346
    148          1           0      -39.376537   -0.235728    0.973031
    149          1           0      -39.810070   -2.456691    1.558638
    150          1           0      -38.626127   -2.177447    2.823767
    151          1           0      -38.199478   -2.982690    1.251945
    152          1           0      -33.686303   -5.700940    2.159952
    153          1           0      -35.235438   -5.091516    1.480390
    154          1           0      -34.659285   -4.534997    3.026178
    155          1           0      -29.207501   -3.494819    0.299025
    156          1           0      -30.085871   -6.074501   -3.258636
    157          1           0      -28.292152   -5.898324   -3.367466
    158          1           0      -29.394689   -4.637848   -3.940534
 ---------------------------------------------------------------------

 SCF Done:  E(RCAM-B3LYP) =  -4069.81446787     A.U. after   19 cycles

 Excitation energies and oscillator strengths:

 Excited State   1:      Singlet-A      1.7237 eV  719.29 nm  f=0.3626  <S**2>=0.000
     309 -> 315       -0.19172
     312 -> 314        0.68304
     309 <- 315       -0.11116
 This state for optimization and/or second-order correction.
 Total Energy, E(TD-HF/TD-DFT) =  -4069.75112301
 Copying the excited state density for this state as the 1-particle RhoCI density.

 Excited State   2:      Singlet-A      1.8652 eV  664.73 nm  f=0.3717  <S**2>=0.000
     310 -> 316        0.14281
     311 -> 313        0.68808

 Excited State   3:      Singlet-A      2.2638 eV  547.68 nm  f=0.1279  <S**2>=0.000
     310 -> 313        0.64676
     311 -> 316       -0.24681
     311 -> 317        0.10327

 Excited State   4:      Singlet-A      2.2830 eV  543.07 nm  f=0.0522  <S**2>=0.000
     309 -> 314        0.60481
     312 -> 315        0.35603

 Excited State   5:      Singlet-A      3.2756 eV  378.51 nm  f=0.0000  <S**2>=0.000
     312 -> 313        0.70711

 The electronic state is 1-A.
 Alpha  occ. eigenvalues --  -46.89398 -46.88697 -19.26034 -19.24517 -19.20589
 Alpha  occ. eigenvalues --  -19.20221 -19.19872 -19.19102 -19.18771 -19.17716
 Alpha  occ. eigenvalues --  -14.42309 -14.42147 -14.42088 -14.42046 -14.40549
 Alpha  occ. eigenvalues --  -14.39394 -14.39359 -14.38486 -10.40259 -10.39087
 Alpha  occ. eigenvalues --  -10.37027 -10.35064 -10.34576 -10.33398 -10.33073
 Alpha  occ. eigenvalues --  -10.32415 -10.31718 -10.31516 -10.31145 -10.31143
 Alpha  occ. eigenvalues --  -10.31138 -10.31078 -10.30845 -10.30666 -10.30560
 Alpha  occ. eigenvalues --  -10.30352 -10.29803 -10.29801 -10.29793 -10.29549
 Alpha  occ. eigenvalues --  -10.29302 -10.29162 -10.28624 -10.28421 -10.28411
 Alpha  occ. eigenvalues --  -10.28387 -10.28343 -10.28296 -10.28172 -10.28088
 Alpha  occ. eigenvalues --  -10.28061 -10.28056 -10.27897 -10.27885 -10.27828
 Alpha  occ. eigenvalues --  -10.27826 -10.27553 -10.27513 -10.27420 -10.27265
 Alpha  occ. eigenvalues --  -10.27230 -10.27188 -10.27151 -10.26952 -10.26938
 Alpha  occ. eigenvalues --  -10.26935 -10.26916 -10.26909 -10.26885 -10.26874
 Alpha  occ. eigenvalues --  -10.26862 -10.26855 -10.26779 -10.26754 -10.26445
 Alpha  occ. eigenvalues --  -10.26442 -10.26242 -10.26239 -10.26010 -10.25940
 Alpha  occ. eigenvalues --  -10.25799 -10.25705 -10.25518 -10.25292 -10.25146
 Alpha  occ. eigenvalues --  -10.23099  -3.17837  -3.17306  -1.92720  -1.92298
 Alpha  occ. eigenvalues --   -1.92181  -1.92140  -1.91777  -1.91606  -1.15974
 Alpha  occ. eigenvalues --   -1.15460  -1.11919  -1.09799  -1.09142  -1.09115
 Alpha  occ. eigenvalues --   -1.08232  -1.07904  -1.04793  -1.04583  -1.04285
 Alpha  occ. eigenvalues --   -1.03838  -1.03190  -1.02869  -1.02546  -1.02085
 Alpha  occ. eigenvalues --   -0.93057  -0.91560  -0.89179  -0.89163  -0.88981
 Alpha  occ. eigenvalues --   -0.88518  -0.88494  -0.87967  -0.87624  -0.87117
 Alpha  occ. eigenvalues --   -0.87055  -0.86630  -0.85823  -0.85008  -0.84618
 Alpha  occ. eigenvalues --   -0.84503  -0.84248  -0.83632  -0.83204  -0.82596
 Alpha  occ. eigenvalues --   -0.82531  -0.82057  -0.81047  -0.80867  -0.80706
 Alpha  occ. eigenvalues --   -0.80218  -0.78014  -0.77641  -0.77237  -0.77160
 Alpha  occ. eigenvalues --   -0.76739  -0.76410  -0.76322  -0.75328  -0.75140
 Alpha  occ. eigenvalues --   -0.75117  -0.72898  -0.72391  -0.72133  -0.71693
 Alpha  occ. eigenvalues --   -0.69722  -0.69113  -0.69041  -0.68628  -0.68166
 Alpha  occ. eigenvalues --   -0.67903  -0.67353  -0.66786  -0.65882  -0.65612
 Alpha  occ. eigenvalues --   -0.65609  -0.65477  -0.64876  -0.64676  -0.64467
 Alpha  occ. eigenvalues --   -0.64040  -0.62730  -0.61702  -0.60260  -0.60058
 Alpha  occ. eigenvalues --   -0.59969  -0.59471  -0.59129  -0.59026  -0.58899
 Alpha  occ. eigenvalues --   -0.58509  -0.58460  -0.57840  -0.57690  -0.57388
 Alpha  occ. eigenvalues --   -0.56436  -0.56248  -0.56084  -0.55488  -0.55300
 Alpha  occ. eigenvalues --   -0.55039  -0.54986  -0.54182  -0.53961  -0.53923
 Alpha  occ. eigenvalues --   -0.53728  -0.53550  -0.53333  -0.53207  -0.53158
 Alpha  occ. eigenvalues --   -0.53008  -0.52794  -0.52714  -0.52690  -0.52200
 Alpha  occ. eigenvalues --   -0.52008  -0.51757  -0.51587  -0.51027  -0.51023
 Alpha  occ. eigenvalues --   -0.50903  -0.50801  -0.50527  -0.50469  -0.50153
 Alpha  occ. eigenvalues --   -0.50149  -0.50007  -0.49836  -0.49810  -0.49656
 Alpha  occ. eigenvalues --   -0.49450  -0.49307  -0.49093  -0.49026  -0.48704
 Alpha  occ. eigenvalues --   -0.48692  -0.48539  -0.48346  -0.48217  -0.48099
 Alpha  occ. eigenvalues --   -0.47582  -0.47525  -0.47362  -0.47176  -0.47136
 Alpha  occ. eigenvalues --   -0.46602  -0.46545  -0.46358  -0.46302  -0.46187
 Alpha  occ. eigenvalues --   -0.46146  -0.46131  -0.45977  -0.45958  -0.45435
 Alpha  occ. eigenvalues --   -0.45350  -0.45217  -0.45189  -0.45043  -0.44878
 Alpha  occ. eigenvalues --   -0.44664  -0.44450  -0.44317  -0.44276  -0.44165
 Alpha  occ. eigenvalues --   -0.43942  -0.43866  -0.43586  -0.43570  -0.43408
 Alpha  occ. eigenvalues --   -0.43304  -0.43082  -0.43074  -0.42705  -0.42587
 Alpha  occ. eigenvalues --   -0.42552  -0.42473  -0.42414  -0.42175  -0.42145
 Alpha  occ. eigenvalues --   -0.42037  -0.41977  -0.41738  -0.41603  -0.41600
 Alpha  occ. eigenvalues --   -0.41087  -0.40877  -0.40770  -0.40728  -0.40407
 Alpha  occ. eigenvalues --   -0.40383  -0.40153  -0.40044  -0.39862  -0.39268
 Alpha  occ. eigenvalues --   -0.38976  -0.38972  -0.38057  -0.37999  -0.37474
 Alpha  occ. eigenvalues --   -0.37335  -0.37152  -0.36694  -0.36535  -0.36484
 Alpha  occ. eigenvalues --   -0.36325  -0.35333  -0.34855  -0.34720  -0.34417
 Alpha  occ. eigenvalues --   -0.34286  -0.33491  -0.33077  -0.32439  -0.31878
 Alpha  occ. eigenvalues --   -0.31414  -0.31221  -0.30955  -0.30855  -0.30157
 Alpha  occ. eigenvalues --   -0.29661  -0.29657  -0.29098  -0.24402  -0.24065
 Alpha  occ. eigenvalues --   -0.21482  -0.21003
 Alpha virt. eigenvalues --   -0.08447  -0.08328  -0.02236  -0.01788   0.00119
 Alpha virt. eigenvalues --    0.00490   0.01810   0.01817   0.01996   0.02732
 Alpha virt. eigenvalues --    0.04193   0.05005   0.05178   0.05837   0.05867

 Mulliken charges:
               1
     1  Mg   0.819027
     2  C   -0.027570
     3  C   -0.090338
     4  C   -0.046284
     5  C   -0.087365
     6  N   -0.261353
     7  C   -0.073405
     8  C   -0.067257
     9  C   -0.064298
    10  C    0.017945
    11  C    0.108032
    12  C    0.065020
    13  C   -0.081529
    14  H    0.029391
    15  N   -0.432471
    16  C    0.196336
    17  C   -0.155244
    18  C   -0.066220
    19  C    0.129230
    20  C    0.128361
    21  C    0.011629
    22  O   -0.165214
    23  C    0.046956
    24  N   -0.260886
    25  C    0.045596
    26  C   -0.043761
    27  C   -0.029965
    28  C    0.049935
    29  C    0.066779
    30  C    0.022709
    31  C    0.021382
    32  N   -0.342422
    33  C    0.111596
    34  C   -0.193842
    35  C    0.033654
    36  C    0.152512
    37  C    0.142364
    38  C    0.016941
    39  O   -0.185154
    40  C    0.043557
    41  C    0.222864
    42  O   -0.215995
    43  O   -0.330695
    44  C    0.180773
    45  H   -0.024257
    46  H   -0.052561
    47  H   -0.027320
    48  H   -0.005476
    49  H   -0.002404
    50  H    0.020561
    51  H    0.016880
    52  H    0.032972
    53  H    0.008335
    54  H    0.031375
    55  H    0.028588
    56  H    0.035479
    57  H    0.032231
    58  H   -0.009169
    59  H    0.027819
    60  H    0.050343
    61  H    0.014682
    62  H    0.046901
    63  H    0.006564
    64  H    0.001280
    65  H    0.023837
    66  H    0.019671
    67  H    0.008313
    68  H    0.019314
    69  H   -0.007797
    70  H    0.021964
    71  H    0.005691
    72  H    0.020188
    73  H    0.016089
    74  H    0.034082
    75  H    0.041576
    76  H    0.030812
    77  H    0.024051
    78  H    0.031508
    79  H    0.036553
    80  Mg   0.828961
    81  C   -0.030262
    82  C   -0.118210
    83  C   -0.095994
    84  C   -0.030486
    85  N   -0.261085
    86  C   -0.046107
    87  C   -0.037669
    88  C   -0.022705
    89  C    0.032254
    90  C    0.082820
    91  C    0.069533
    92  C   -0.053101
    93  H    0.008477
    94  N   -0.381675
    95  C    0.167550
    96  C   -0.137029
    97  C   -0.024676
    98  C    0.115524
    99  C    0.116997
   100  C    0.007372
   101  O   -0.226560
   102  C    0.070464
   103  N   -0.264383
   104  C    0.101578
   105  C   -0.027370
   106  C   -0.054111
   107  C    0.007695
   108  C    0.065018
   109  C    0.060313
   110  C    0.025638
   111  N   -0.347634
   112  C    0.034466
   113  C   -0.140311
   114  C    0.052345
   115  C    0.114924
   116  C    0.104364
   117  C   -0.012331
   118  O   -0.157322
   119  C   -0.046272
   120  C    0.232210
   121  O   -0.211955
   122  O   -0.335440
   123  C    0.185504
   124  H   -0.025994
   125  H   -0.042731
   126  H   -0.041112
   127  H   -0.000715
   128  H    0.006114
   129  H    0.004929
   130  H    0.021634
   131  H    0.031781
   132  H   -0.004018
   133  H    0.028901
   134  H    0.025651
   135  H    0.027223
   136  H   -0.002838
   137  H    0.041086
   138  H    0.035883
   139  H    0.040802
   140  H    0.068736
   141  H    0.028200
   142  H    0.010229
   143  H    0.006684
   144  H    0.011349
   145  H    0.019367
   146  H    0.006930
   147  H    0.016833
   148  H    0.001343
   149  H    0.007777
   150  H    0.022105
   151  H    0.031323
   152  H    0.034196
   153  H    0.016134
   154  H    0.019406
   155  H    0.024852
   156  H    0.038229
   157  H    0.041673
   158  H    0.026719
 Sum of Mulliken charges =  -0.00000

 Dipole moment (field-independent basis, Debye):
    X=              0.0286    Y=              3.8245    Z=              2.1461  Tot=              4.3855
 Quadrupole moment (field-independent basis, Debye-Ang):
   XX=           -221.1177   YY=           -531.9517   ZZ=           -511.3902
   XY=            -42.1382   XZ=            -47.6853   YZ=              1.6361

 Normal termination of Gaussian 16 at Fri Sep  3 00:57:36 2021.
