 Gaussian 16, Revision A.03,
 Gaussian 16:  ES64L-G16RevA.03 25-Dec-2016

 ----------------------------------------------------------
 #p cam-b3lyp/Def2SVP td=(nstates=5) density=(transition=1)
 ----------------------------------------------------------

 --------------------------------
 TDDFT excited states in gaussian
 --------------------------------
 Symbolic Z-matrix:
 Charge =  0 Multiplicity = 1

                         Standard orientation:
 ---------------------------------------------------------------------
 Center     Atomic      Atomic             Coordinates (Angstroms)
 Number     Number       Type             X           Y           Z
 ---------------------------------------------------------------------
      1         12           0       19.466482    0.179451    0.548659
      2          6           0       17.294754   -1.281799   -1.684266
      3          6           0       20.467960    2.354895   -2.005373
      4          6           0       21.690799    1.609263    2.646858
      5          6           0       18.722262   -2.192842    2.858553
      6          7           0       19.101173    0.303039   -1.699725
      7          6           0       17.975693   -0.269304   -2.305514
      8          6           0       17.649894    0.388863   -3.660830
      9          6           0       18.785504    1.474833   -3.736403
     10          6           0       19.496257    1.448004   -2.400328
     11          6           0       19.740597    1.260659   -4.903824
     12          6           0       16.225389    1.002799   -3.901517
     13          6           0       15.280459    0.271486   -5.001504
     14          1           0       14.895986    1.233429   -6.129930
     15          7           0       20.929460    1.657932    0.341958
     16          6           0       21.087787    2.520779   -0.754570
     17          6           0       21.969867    3.645476   -0.425976
     18          6           0       22.449739    3.429248    0.976669
     19          6           0       21.648395    2.225299    1.435796
     20          6           0       22.310519    4.744223   -1.408459
     21          6           0       23.398195    4.168917    1.796679
     22          8           0       23.714082    3.735220    2.914443
     23          6           0       24.090965    5.435177    1.324483
     24          7           0       20.127424   -0.299206    2.380632
     25          6           0       20.976904    0.512421    3.155125
     26          6           0       21.128763    0.070677    4.666697
     27          6           0       20.144856   -1.210080    4.655982
     28          6           0       19.618309   -1.220026    3.203020
     29          6           0       22.633245   -0.280114    5.112482
     30          6           0       19.007736   -1.076879    5.726533
     31          6           0       18.584514   -2.311984    6.458216
     32          7           0       18.303652   -1.504563    0.532270
     33          6           0       18.048500   -2.371371    1.598793
     34          6           0       17.007607   -3.285561    1.273504
     35          6           0       16.598997   -2.815007   -0.029036
     36          6           0       17.480192   -1.799060   -0.420330
     37          6           0       16.370460   -4.352699    2.060442
     38          6           0       15.743446   -3.117297   -1.133548
     39          8           0       14.828896   -3.923525   -1.336515
     40          6           0       16.281532   -2.201050   -2.324318
     41          6           0       16.800211   -3.079317   -3.406233
     42          8           0       17.906330   -3.373353   -3.638934
     43          8           0       15.764163   -3.456020   -4.257665
     44          6           0       16.170220   -3.789795   -5.607054
     45          1           0       20.710041    3.085460   -2.780090
     46          1           0       22.319508    2.020910    3.439067
     47          1           0       18.371885   -2.862480    3.646715
     48          1           0       17.830915   -0.338695   -4.451293
     49          1           0       18.382709    2.466303   -3.945249
     50          1           0       20.726535    1.017731   -4.508479
     51          1           0       19.757946    2.240883   -5.378697
     52          1           0       19.413885    0.547721   -5.660548
     53          1           0       16.357704    2.042879   -4.200603
     54          1           0       15.625388    0.978314   -2.991739
     55          1           0       14.379971    0.063381   -4.423380
     56          1           0       15.776224   -0.612849   -5.401221
     57          1           0       22.995009    4.307816   -2.136921
     58          1           0       22.811034    5.540868   -0.860207
     59          1           0       21.458885    5.074589   -2.003559
     60          1           0       24.947637    5.560983    1.986908
     61          1           0       23.448178    6.316094    1.326382
     62          1           0       24.612487    5.393300    0.368464
     63          1           0       20.659699    0.809588    5.315572
     64          1           0       20.619424   -2.156467    4.916288
     65          1           0       22.601246   -1.143842    5.776926
     66          1           0       23.140584    0.449656    5.742294
     67          1           0       23.291351   -0.485663    4.268004
     68          1           0       18.104406   -0.593851    5.354359
     69          1           0       19.301700   -0.454173    6.571256
     70          1           0       17.568003   -2.498658    6.112233
     71          1           0       18.395720   -2.282142    7.531331
     72          1           0       19.239275   -3.141750    6.189987
     73          1           0       16.456686   -4.097327    3.116950
     74          1           0       16.983111   -5.230823    1.856699
     75          1           0       15.384079   -4.552463    1.641385
     76          1           0       15.469208   -1.595621   -2.725642
     77          1           0       16.598227   -4.786971   -5.510145
     78          1           0       16.945128   -3.068352   -5.865669
     79          1           0       15.318405   -3.818960   -6.287114
     80         12           0      -19.493659   -0.516389   -0.619785
     81          6           0      -18.769397    2.969378   -0.574949
     82          6           0      -16.258225   -1.151187   -1.548088
     83          6           0      -19.917840   -3.848810    0.361082
     84          6           0      -22.591018    0.176510    0.888433
     85          7           0      -17.631688    0.885523   -0.759731
     86          6           0      -17.626155    2.216402   -0.939943
     87          6           0      -16.363714    2.617899   -1.680623
     88          6           0      -15.496162    1.294935   -1.945305
     89          6           0      -16.641216    0.252217   -1.497914
     90          6           0      -15.141143    1.224908   -3.447582
     91          6           0      -15.586625    3.664529   -0.898457
     92          6           0      -15.557709    3.507547    0.640475
     93          1           0      -14.220705    3.031612    1.271495
     94          7           0      -18.268566   -2.319119   -0.676038
     95          6           0      -16.954787   -2.299537   -1.091119
     96          6           0      -16.548209   -3.668322   -1.155121
     97          6           0      -17.537594   -4.511928   -0.520234
     98          6           0      -18.680158   -3.595420   -0.276639
     99          6           0      -15.159705   -4.086298   -1.580631
    100          6           0      -17.382247   -5.964267   -0.066393
    101          8           0      -16.314974   -6.531906   -0.197637
    102          6           0      -18.438849   -6.720168    0.536592
    103          7           0      -20.980902   -1.664029    0.558345
    104          6           0      -20.979178   -2.984530    0.665478
    105          6           0      -22.171932   -3.528719    1.434711
    106          6           0      -22.826901   -2.160894    1.909768
    107          6           0      -22.163180   -1.151644    1.043985
    108          6           0      -23.161012   -4.431315    0.547409
    109          6           0      -22.640559   -1.969013    3.485100
    110          6           0      -23.826429   -2.024787    4.406033
    111          7           0      -20.567582    1.131743   -0.207764
    112          6           0      -21.878657    1.261567    0.293952
    113          6           0      -22.302560    2.674083    0.281971
    114          6           0      -21.116633    3.316964   -0.072485
    115          6           0      -20.027883    2.393400   -0.249805
    116          6           0      -23.728604    3.291694    0.489138
    117          6           0      -20.560781    4.656621   -0.288640
    118          8           0      -21.051900    5.796803   -0.247491
    119          6           0      -19.043329    4.502235   -0.636079
    120          6           0      -18.446386    5.222995    0.523056
    121          8           0      -18.615503    4.939078    1.681151
    122          8           0      -17.801006    6.307107    0.102457
    123          6           0      -17.043316    7.146668    1.094916
    124          1           0      -15.349911   -1.351289   -2.120000
    125          1           0      -20.212858   -4.858158    0.654768
    126          1           0      -23.513387    0.282635    1.464184
    127          1           0      -16.832567    3.057572   -2.560974
    128          1           0      -14.604624    1.246862   -1.319480
    129          1           0      -14.055176    1.222449   -3.539067
    130          1           0      -15.490435    2.074091   -4.035501
    131          1           0      -15.530991    0.270241   -3.799733
    132          1           0      -15.996298    4.652917   -1.106863
    133          1           0      -14.534034    3.650671   -1.182724
    134          1           0      -16.192354    2.740529    1.084118
    135          1           0      -15.826448    4.494529    1.017144
    136          1           0      -14.522105   -3.226052   -1.786053
    137          1           0      -15.266967   -4.787502   -2.408933
    138          1           0      -14.755210   -4.714764   -0.787985
    139          1           0      -18.785717   -6.351888    1.502312
    140          1           0      -18.103062   -7.744962    0.694013
    141          1           0      -19.247031   -6.620529   -0.188796
    142          1           0      -21.907090   -4.051075    2.353658
    143          1           0      -23.886942   -2.384786    1.788894
    144          1           0      -22.747122   -4.546195   -0.454815
    145          1           0      -24.099619   -3.884260    0.456798
    146          1           0      -23.426111   -5.403759    0.965207
    147          1           0      -22.287112   -0.965230    3.721168
    148          1           0      -21.922148   -2.684258    3.883260
    149          1           0      -24.182605   -1.045917    4.727150
    150          1           0      -23.375996   -2.557889    5.243946
    151          1           0      -24.610624   -2.718641    4.102753
    152          1           0      -23.949750    3.260090    1.555651
    153          1           0      -24.416652    2.722797   -0.136413
    154          1           0      -23.687848    4.346253    0.217077
    155          1           0      -18.913181    4.961008   -1.616915
    156          1           0      -17.674628    7.879396    1.598080
    157          1           0      -16.228515    7.687753    0.612128
    158          1           0      -16.622325    6.428457    1.798484
 ---------------------------------------------------------------------

 SCF Done:  E(RCAM-B3LYP) =  -4069.75836322     A.U. after   19 cycles

 Excitation energies and oscillator strengths:

 Excited State   1:      Singlet-A      1.6720 eV  741.55 nm  f=0.3984  <S**2>=0.000
     309 -> 316       -0.15708
     311 -> 313        0.68770
 This state for optimization and/or second-order correction.
 Total Energy, E(TD-HF/TD-DFT) =  -4069.69691944
 Copying the excited state density for this state as the 1-particle RhoCI density.

 Excited State   2:      Singlet-A      1.6891 eV  734.03 nm  f=0.3634  <S**2>=0.000
     310 -> 315       -0.20053
     312 -> 314        0.67969
     310 <- 315       -0.11478

 Excited State   3:      Singlet-A      2.1913 eV  565.81 nm  f=0.1262  <S**2>=0.000
     309 -> 313        0.64540
     311 -> 316        0.25763

 Excited State   4:      Singlet-A      2.1999 eV  563.59 nm  f=0.0722  <S**2>=0.000
     310 -> 314        0.61851
     312 -> 315        0.32993

 Excited State   5:      Singlet-A      3.0312 eV  409.02 nm  f=0.0000  <S**2>=0.000
     312 -> 313        0.70710

 The electronic state is 1-A.
 Alpha  occ. eigenvalues --  -46.90208 -46.87936 -19.25079 -19.22178 -19.19594
 Alpha  occ. eigenvalues --  -19.18866 -19.18857 -19.18852 -19.18060 -19.17959
 Alpha  occ. eigenvalues --  -14.42568 -14.42427 -14.42005 -14.41970 -14.40279
 Alpha  occ. eigenvalues --  -14.40135 -14.39534 -14.38591 -10.38727 -10.38115
 Alpha  occ. eigenvalues --  -10.35342 -10.34967 -10.34313 -10.34212 -10.32463
 Alpha  occ. eigenvalues --  -10.32004 -10.31836 -10.31386 -10.31295 -10.31057
 Alpha  occ. eigenvalues --  -10.31040 -10.30974 -10.30924 -10.30768 -10.30733
 Alpha  occ. eigenvalues --  -10.30701 -10.30626 -10.30476 -10.30287 -10.29951
 Alpha  occ. eigenvalues --  -10.29845 -10.29540 -10.29296 -10.29245 -10.28851
 Alpha  occ. eigenvalues --  -10.28815 -10.28724 -10.28566 -10.28400 -10.28382
 Alpha  occ. eigenvalues --  -10.28264 -10.28257 -10.28150 -10.28093 -10.28058
 Alpha  occ. eigenvalues --  -10.27869 -10.27847 -10.27760 -10.27721 -10.27666
 Alpha  occ. eigenvalues --  -10.27620 -10.27479 -10.27436 -10.27319 -10.27170
 Alpha  occ. eigenvalues --  -10.27008 -10.26987 -10.26907 -10.26793 -10.26591
 Alpha  occ. eigenvalues --  -10.26546 -10.26498 -10.26489 -10.26468 -10.26411
 Alpha  occ. eigenvalues --  -10.26193 -10.26186 -10.25987 -10.25889 -10.25831
 Alpha  occ. eigenvalues --  -10.25782 -10.25628 -10.25515 -10.25329 -10.25039
 Alpha  occ. eigenvalues --  -10.24496  -3.18514  -3.16697  -1.93378  -1.93002
 Alpha  occ. eigenvalues --   -1.92791  -1.91567  -1.91163  -1.91015  -1.17064
 Alpha  occ. eigenvalues --   -1.16785  -1.10205  -1.09571  -1.08816  -1.08124
 Alpha  occ. eigenvalues --   -1.07726  -1.07704  -1.04642  -1.04597  -1.03673
 Alpha  occ. eigenvalues --   -1.03442  -1.02393  -1.02074  -1.01597  -1.00635
 Alpha  occ. eigenvalues --   -0.92599  -0.91942  -0.89196  -0.88947  -0.88815
 Alpha  occ. eigenvalues --   -0.88628  -0.88510  -0.88249  -0.87359  -0.87211
 Alpha  occ. eigenvalues --   -0.87083  -0.86686  -0.86115  -0.85350  -0.84682
 Alpha  occ. eigenvalues --   -0.84235  -0.84040  -0.83472  -0.82847  -0.82614
 Alpha  occ. eigenvalues --   -0.82416  -0.81904  -0.81092  -0.80877  -0.80250
 Alpha  occ. eigenvalues --   -0.80235  -0.78787  -0.77897  -0.77413  -0.77345
 Alpha  occ. eigenvalues --   -0.76704  -0.76384  -0.76295  -0.75272  -0.75243
 Alpha  occ. eigenvalues --   -0.74959  -0.73077  -0.72851  -0.71717  -0.71699
 Alpha  occ. eigenvalues --   -0.69339  -0.68896  -0.68700  -0.68522  -0.68116
 Alpha  occ. eigenvalues --   -0.67956  -0.67562  -0.66676  -0.65681  -0.65578
 Alpha  occ. eigenvalues --   -0.65315  -0.65189  -0.65007  -0.64751  -0.64026
 Alpha  occ. eigenvalues --   -0.63897  -0.62417  -0.60868  -0.60280  -0.60198
 Alpha  occ. eigenvalues --   -0.59412  -0.59267  -0.59010  -0.58973  -0.58689
 Alpha  occ. eigenvalues --   -0.58470  -0.58305  -0.57797  -0.57706  -0.57257
 Alpha  occ. eigenvalues --   -0.56515  -0.56314  -0.55835  -0.55585  -0.55297
 Alpha  occ. eigenvalues --   -0.55031  -0.54905  -0.54505  -0.53937  -0.53860
 Alpha  occ. eigenvalues --   -0.53638  -0.53528  -0.53276  -0.53050  -0.53005
 Alpha  occ. eigenvalues --   -0.52681  -0.52609  -0.52486  -0.52291  -0.52163
 Alpha  occ. eigenvalues --   -0.52014  -0.51746  -0.51612  -0.51523  -0.51374
 Alpha  occ. eigenvalues --   -0.51198  -0.50765  -0.50668  -0.50569  -0.50153
 Alpha  occ. eigenvalues --   -0.50138  -0.50014  -0.49798  -0.49797  -0.49684
 Alpha  occ. eigenvalues --   -0.49634  -0.49479  -0.49208  -0.48977  -0.48940
 Alpha  occ. eigenvalues --   -0.48598  -0.48546  -0.48500  -0.48253  -0.48088
 Alpha  occ. eigenvalues --   -0.48029  -0.47791  -0.47294  -0.47288  -0.46961
 Alpha  occ. eigenvalues --   -0.46945  -0.46893  -0.46841  -0.46588  -0.46500
 Alpha  occ. eigenvalues --   -0.46284  -0.46152  -0.46004  -0.45797  -0.45592
 Alpha  occ. eigenvalues --   -0.45412  -0.45301  -0.45285  -0.45174  -0.45091
 Alpha  occ. eigenvalues --   -0.44984  -0.44886  -0.44645  -0.44348  -0.44169
 Alpha  occ. eigenvalues --   -0.43940  -0.43674  -0.43669  -0.43565  -0.43523
 Alpha  occ. eigenvalues --   -0.43342  -0.43206  -0.43070  -0.42919  -0.42881
 Alpha  occ. eigenvalues --   -0.42520  -0.42381  -0.41993  -0.41988  -0.41661
 Alpha  occ. eigenvalues --   -0.41485  -0.41427  -0.41396  -0.41278  -0.41185
 Alpha  occ. eigenvalues --   -0.41033  -0.40852  -0.40644  -0.40141  -0.40112
 Alpha  occ. eigenvalues --   -0.40016  -0.39901  -0.39795  -0.39073  -0.38720
 Alpha  occ. eigenvalues --   -0.38635  -0.37983  -0.37830  -0.37695  -0.37411
 Alpha  occ. eigenvalues --   -0.37105  -0.37082  -0.36741  -0.36375  -0.36128
 Alpha  occ. eigenvalues --   -0.35704  -0.34928  -0.34466  -0.34247  -0.34096
 Alpha  occ. eigenvalues --   -0.34093  -0.33340  -0.33193  -0.31556  -0.31442
 Alpha  occ. eigenvalues --   -0.31374  -0.30737  -0.30665  -0.30267  -0.30039
 Alpha  occ. eigenvalues --   -0.29786  -0.29282  -0.28913  -0.24387  -0.24274
 Alpha  occ. eigenvalues --   -0.21473  -0.21309
 Alpha virt. eigenvalues --   -0.09293  -0.08759  -0.02547  -0.02182  -0.00246
 Alpha virt. eigenvalues --    0.00273   0.01038   0.01932   0.02407   0.02437
 Alpha virt. eigenvalues --    0.04794   0.05109   0.05195   0.05343   0.06338

 Mulliken charges:
               1
     1  Mg  12.003361
     2  C    5.985777
     3  C    6.017424
     4  C    6.021906
     5  C    5.988329
     6  N    6.994920
     7  C    6.027347
     8  C    5.986795
     9  C    6.009571
    10  C    5.972024
    11  C    6.001548
    12  C    5.998718
    13  C    5.996309
    14  H    1.009034
    15  N    7.005319
    16  C    5.958161
    17  C    5.971510
    18  C    5.985933
    19  C    5.963891
    20  C    6.003870
    21  C    5.989045
    22  O    7.970067
    23  C    6.007325
    24  N    7.001951
    25  C    5.960826
    26  C    6.016015
    27  C    5.986354
    28  C    6.032362
    29  C    6.003009
    30  C    5.993635
    31  C    6.000673
    32  N    6.998021
    33  C    6.042241
    34  C    6.028297
    35  C    6.006496
    36  C    6.029085
    37  C    5.997890
    38  C    6.015688
    39  O    8.034450
    40  C    5.999916
    41  C    6.000721
    42  O    8.008126
    43  O    7.999509
    44  C    5.997421
    45  H    0.991754
    46  H    0.993310
    47  H    1.010227
    48  H    1.003067
    49  H    0.999715
    50  H    1.002901
    51  H    0.999670
    52  H    0.986218
    53  H    1.010101
    54  H    0.997016
    55  H    0.996867
    56  H    0.997834
    57  H    0.978693
    58  H    0.984310
    59  H    0.978910
    60  H    0.985561
    61  H    0.989574
    62  H    0.991932
    63  H    0.995936
    64  H    1.003319
    65  H    0.987868
    66  H    1.001072
    67  H    1.001152
    68  H    1.000464
    69  H    1.012275
    70  H    0.994383
    71  H    1.005331
    72  H    1.000035
    73  H    1.019691
    74  H    1.020050
    75  H    1.014612
    76  H    1.011621
    77  H    1.002245
    78  H    1.006458
    79  H    1.004958
    80  Mg  11.999777
    81  C    5.999103
    82  C    6.001548
    83  C    6.000932
    84  C    5.998789
    85  N    6.999659
    86  C    6.001518
    87  C    5.999921
    88  C    6.000727
    89  C    5.997821
    90  C    6.000087
    91  C    5.999884
    92  C    5.999656
    93  H    1.000535
    94  N    7.000710
    95  C    5.997497
    96  C    5.999270
    97  C    5.999414
    98  C    5.997875
    99  C    6.000240
   100  C    5.999431
   101  O    7.999016
   102  C    6.000222
   103  N    6.999790
   104  C    5.998597
   105  C    6.000647
   106  C    5.999192
   107  C    6.002000
   108  C    6.000126
   109  C    5.999954
   110  C    5.999897
   111  N    6.999589
   112  C    6.002377
   113  C    6.001239
   114  C    6.000145
   115  C    6.001799
   116  C    6.000182
   117  C    6.000771
   118  O    8.001674
   119  C    6.000076
   120  C    6.000293
   121  O    8.000106
   122  O    8.000077
   123  C    5.999888
   124  H    0.999626
   125  H    0.999537
   126  H    1.000515
   127  H    0.999752
   128  H    0.999580
   129  H    0.999663
   130  H    0.999495
   131  H    1.000188
   132  H    0.999813
   133  H    1.000338
   134  H    0.999993
   135  H    0.999868
   136  H    0.998952
   137  H    0.998993
   138  H    0.999060
   139  H    0.999462
   140  H    0.999335
   141  H    0.999727
   142  H    0.999880
   143  H    1.000316
   144  H    1.000165
   145  H    0.999438
   146  H    0.999929
   147  H    0.999833
   148  H    1.000636
   149  H    0.999923
   150  H    1.000253
   151  H    1.000267
   152  H    1.000872
   153  H    1.000784
   154  H    1.000605
   155  H    1.000515
   156  H    1.000160
   157  H    1.000304
   158  H    1.000174
 Sum of Mulliken charges = 624.00000

 Dipole moment (field-independent basis, Debye):
    X=             -7.5927    Y=             -8.2422    Z=              0.3014  Tot=             11.2105
 Quadrupole moment (field-independent basis, Debye-Ang):
   XX=           -273.5373   YY=             -4.1377   ZZ=              2.2346
   XY=           -179.6296   XZ=              0.5485   YZ=             -3.2444

 Normal termination of Gaussian 16 at Thu Sep 23 07:56:52 2021.
