 Gaussian 16, Revision A.03,
 Gaussian 16:  ES64L-G16RevA.03 25-Dec-2016

 -----------------------------------
 #p cam-b3lyp/Def2SVP td=(nstates=5)
 -----------------------------------

 --------------------------------
 TDDFT excited states in gaussian
 --------------------------------
 Symbolic Z-matrix:
 Charge =  0 Multiplicity = 1

                         Standard orientation:
 ---------------------------------------------------------------------
 Center     Atomic      Atomic             Coordinates (Angstroms)
 Number     Number       Type             X           Y           Z
 ---------------------------------------------------------------------
      1         12           0       25.040951   -0.400909   -0.257221
      2          6           0       21.407024   -0.418425   -0.500561
      3          6           0       25.062975    1.714929   -2.961350
      4          6           0       27.984152    0.788133    0.794522
      5          6           0       24.834493   -2.607118    2.318893
      6          7           0       23.360786    0.690661   -1.454103
      7          6           0       21.938938    0.456708   -1.414815
      8          6           0       21.277332    1.147548   -2.610556
      9          6           0       22.460273    1.489856   -3.563614
     10          6           0       23.753183    1.292931   -2.656146
     11          6           0       22.536533    0.547524   -4.856628
     12          6           0       20.300563    2.247814   -2.314410
     13          6           0       20.337308    2.874159   -0.900397
     14          1           0       19.487057    4.052470   -0.391366
     15          7           0       26.429058    0.974542   -1.071271
     16          6           0       26.230340    1.757026   -2.187251
     17          6           0       27.496736    2.505492   -2.460658
     18          6           0       28.258481    2.306727   -1.312003
     19          6           0       27.578590    1.372848   -0.417467
     20          6           0       27.645454    3.334851   -3.686713
     21          6           0       29.624395    2.998178   -1.031205
     22          8           0       30.013978    3.832435   -1.828904
     23          6           0       30.421964    2.824802    0.218696
     24          7           0       26.124998   -0.780895    1.444388
     25          6           0       27.404667   -0.236205    1.545181
     26          6           0       28.167072   -0.842685    2.723232
     27          6           0       27.326170   -2.129850    3.049359
     28          6           0       26.068473   -1.865529    2.218538
     29          6           0       29.672451   -1.166476    2.542448
     30          6           0       27.040921   -2.400612    4.561439
     31          6           0       27.855967   -3.604936    5.221457
     32          7           0       23.478394   -1.417912    0.697193
     33          6           0       23.577717   -2.367889    1.703298
     34          6           0       22.285781   -2.976412    1.905204
     35          6           0       21.446448   -2.174256    1.120197
     36          6           0       22.248011   -1.259762    0.393234
     37          6           0       22.019762   -4.098247    2.923898
     38          6           0       20.100201   -1.968278    0.681561
     39          8           0       19.118694   -2.656293    1.027524
     40          6           0       19.993693   -0.912008   -0.505916
     41          6           0       18.946431    0.030498   -0.064266
     42          8           0       18.867775    0.584016    1.037523
     43          8           0       18.161488    0.267132   -1.143777
     44          6           0       16.910456    1.050008   -0.895366
     45          1           0       25.066855    2.401159   -3.810221
     46          1           0       28.952470    1.176621    1.117651
     47          1           0       24.820084   -3.403775    3.065113
     48          1           0       20.751213    0.275175   -2.998274
     49          1           0       22.511836    2.549479   -3.814520
     50          1           0       22.308368    1.230811   -5.673691
     51          1           0       21.834151   -0.278817   -4.744838
     52          1           0       23.576161    0.224328   -4.920530
     53          1           0       19.319709    1.860243   -2.589154
     54          1           0       20.581321    2.976933   -3.075188
     55          1           0       21.380255    3.156114   -0.752548
     56          1           0       20.081452    2.116207   -0.159757
     57          1           0       27.661319    4.369581   -3.345642
     58          1           0       26.799555    3.127166   -4.341321
     59          1           0       28.545307    3.029715   -4.221959
     60          1           0       29.994682    3.179858    1.155722
     61          1           0       31.342845    3.407204    0.213587
     62          1           0       30.645592    1.759557    0.162573
     63          1           0       28.017221   -0.015133    3.417598
     64          1           0       27.879952   -2.941926    2.577711
     65          1           0       30.334181   -0.414553    2.973555
     66          1           0       29.916936   -1.178327    1.480810
     67          1           0       29.841846   -2.164298    2.948589
     68          1           0       25.989494   -2.569052    4.795978
     69          1           0       27.271452   -1.450647    5.043808
     70          1           0       28.161925   -3.171669    6.173371
     71          1           0       28.724203   -3.939458    4.653487
     72          1           0       27.182647   -4.460990    5.246867
     73          1           0       21.204882   -4.775937    2.668368
     74          1           0       21.730239   -3.513354    3.796253
     75          1           0       22.872294   -4.775581    2.968931
     76          1           0       19.741566   -1.434953   -1.429618
     77          1           0       16.374353    1.177997   -1.836384
     78          1           0       17.137131    2.043579   -0.508200
     79          1           0       16.384422    0.412567   -0.186084
     80         12           0      -24.775630    0.315554    0.385813
     81          6           0      -21.725568   -1.279890   -0.243730
     82          6           0      -26.438981   -2.345491   -0.967963
     83          6           0      -27.588026    2.028338    0.698857
     84          6           0      -22.901992    3.107621    1.598359
     85          7           0      -24.113828   -1.581624   -0.549341
     86          6           0      -22.839264   -2.092409   -0.655550
     87          6           0      -22.884523   -3.556266   -1.053080
     88          6           0      -24.375996   -3.746277   -1.538138
     89          6           0      -25.023804   -2.481628   -0.878016
     90          6           0      -24.529507   -3.751429   -3.053766
     91          6           0      -22.325093   -4.447547    0.115051
     92          6           0      -22.530105   -5.970284   -0.117249
     93          1           0      -22.541854   -6.443070   -1.556096
     94          7           0      -26.676363   -0.095948   -0.041247
     95          6           0      -27.185276   -1.208154   -0.699906
     96          6           0      -28.639417   -1.098970   -0.911415
     97          6           0      -28.962319    0.185193   -0.374438
     98          6           0      -27.711971    0.760397    0.114363
     99          6           0      -29.457768   -2.182501   -1.507225
    100          6           0      -30.330781    0.815482   -0.342606
    101          8           0      -30.536326    1.939423    0.193877
    102          6           0      -31.536198    0.093566   -0.881013
    103          7           0      -25.185697    2.290951    1.116059
    104          6           0      -26.450537    2.712448    1.122934
    105          6           0      -26.521966    4.242111    1.557852
    106          6           0      -24.958149    4.618157    1.818644
    107          6           0      -24.302298    3.278351    1.481744
    108          6           0      -27.213741    5.063741    0.394122
    109          6           0      -24.619065    5.017112    3.318313
    110          6           0      -24.834856    6.513115    3.686625
    111          7           0      -22.786549    0.884867    0.585745
    112          6           0      -22.144207    1.993239    1.198233
    113          6           0      -20.632324    1.770816    1.198799
    114          6           0      -20.412495    0.543332    0.581981
    115          6           0      -21.769835    0.009801    0.301196
    116          6           0      -19.575539    2.654244    1.784179
    117          6           0      -19.433559   -0.443695    0.190645
    118          8           0      -18.200836   -0.462934    0.264258
    119          6           0      -20.257181   -1.768344   -0.203175
    120          6           0      -19.792003   -2.381321   -1.504210
    121          8           0      -20.200371   -2.054683   -2.585793
    122          8           0      -19.006691   -3.533251   -1.272819
    123          6           0      -18.858542   -4.482349   -2.386367
    124          1           0      -26.815507   -3.241251   -1.466986
    125          1           0      -28.517922    2.594550    0.785235
    126          1           0      -22.266781    3.957743    1.856135
    127          1           0      -22.198621   -3.688478   -1.888869
    128          1           0      -24.895897   -4.615020   -1.133002
    129          1           0      -25.017704   -4.695451   -3.295340
    130          1           0      -23.549039   -3.586364   -3.499869
    131          1           0      -25.283144   -3.046576   -3.404117
    132          1           0      -22.722610   -3.928422    0.986613
    133          1           0      -21.256409   -4.238081    0.146852
    134          1           0      -23.484219   -6.165798    0.372263
    135          1           0      -21.725896   -6.499323    0.393890
    136          1           0      -29.814322   -1.723886   -2.429367
    137          1           0      -30.253073   -2.532661   -0.849754
    138          1           0      -28.973145   -3.103840   -1.832826
    139          1           0      -31.705603   -0.802795   -0.285985
    140          1           0      -31.183777   -0.062218   -1.901397
    141          1           0      -32.455555    0.673530   -0.956909
    142          1           0      -27.088498    4.146026    2.484904
    143          1           0      -24.460726    5.246073    1.078239
    144          1           0      -27.486669    4.470378   -0.478367
    145          1           0      -26.540178    5.845958    0.043023
    146          1           0      -28.156081    5.417824    0.811075
    147          1           0      -23.664306    4.609562    3.649408
    148          1           0      -25.334642    4.472681    3.933614
    149          1           0      -25.508085    6.529009    4.542990
    150          1           0      -25.197049    7.037612    2.802323
    151          1           0      -23.907532    6.996575    3.994853
    152          1           0      -19.224212    2.148966    2.684088
    153          1           0      -19.986999    3.639945    2.004767
    154          1           0      -18.672524    2.824424    1.198287
    155          1           0      -20.129594   -2.458431    0.630350
    156          1           0      -18.110052   -4.030888   -3.037012
    157          1           0      -19.828111   -4.717721   -2.825735
    158          1           0      -18.510176   -5.415004   -1.943445
 ---------------------------------------------------------------------

 SCF Done:  E(RCAM-B3LYP) =  -4069.78837843     A.U. after   19 cycles

 Excitation energies and oscillator strengths:

 Excited State   1:      Singlet-A      1.6561 eV  748.64 nm  f=0.3614  <S**2>=0.000
     309 -> 316        0.15661
     311 -> 313        0.69070
     309 <- 316        0.10158
 This state for optimization and/or second-order correction.
 Total Energy, E(TD-HF/TD-DFT) =  -4069.72751683
 Copying the excited state density for this state as the 1-particle RhoCI density.

 Excited State   2:      Singlet-A      1.7141 eV  723.32 nm  f=0.3826  <S**2>=0.000
     310 -> 315        0.19945
     312 -> 314        0.68036
     310 <- 315        0.11163

 Excited State   3:      Singlet-A      2.2759 eV  544.77 nm  f=0.0764  <S**2>=0.000
     309 -> 313        0.61914
     311 -> 316       -0.32529

 Excited State   4:      Singlet-A      2.2903 eV  541.35 nm  f=0.0345  <S**2>=0.000
     310 -> 314        0.58797
     312 -> 315       -0.38618

 Excited State   5:      Singlet-A      3.0291 eV  409.31 nm  f=0.0000  <S**2>=0.000
     312 -> 313        0.70710

 The electronic state is 1-A.
 Alpha  occ. eigenvalues --  -46.89293 -46.88046 -19.25344 -19.23950 -19.20274
 Alpha  occ. eigenvalues --  -19.19406 -19.19157 -19.19066 -19.18368 -19.17060
 Alpha  occ. eigenvalues --  -14.42457 -14.42125 -14.41535 -14.41533 -14.39926
 Alpha  occ. eigenvalues --  -14.39852 -14.39714 -14.38729 -10.39394 -10.39118
 Alpha  occ. eigenvalues --  -10.35508 -10.35492 -10.35223 -10.33520 -10.32108
 Alpha  occ. eigenvalues --  -10.31921 -10.31732 -10.31641 -10.30993 -10.30891
 Alpha  occ. eigenvalues --  -10.30862 -10.30799 -10.30730 -10.30586 -10.30488
 Alpha  occ. eigenvalues --  -10.30341 -10.30331 -10.30290 -10.30088 -10.29595
 Alpha  occ. eigenvalues --  -10.29452 -10.29201 -10.29079 -10.28995 -10.28823
 Alpha  occ. eigenvalues --  -10.28702 -10.28515 -10.28506 -10.28465 -10.28381
 Alpha  occ. eigenvalues --  -10.28273 -10.28167 -10.28115 -10.27863 -10.27845
 Alpha  occ. eigenvalues --  -10.27713 -10.27683 -10.27661 -10.27622 -10.27597
 Alpha  occ. eigenvalues --  -10.27589 -10.27551 -10.27541 -10.27287 -10.27224
 Alpha  occ. eigenvalues --  -10.27156 -10.27136 -10.27109 -10.26912 -10.26880
 Alpha  occ. eigenvalues --  -10.26879 -10.26777 -10.26595 -10.26417 -10.26413
 Alpha  occ. eigenvalues --  -10.26382 -10.26247 -10.26194 -10.26020 -10.25961
 Alpha  occ. eigenvalues --  -10.25926 -10.25741 -10.25545 -10.25374 -10.25126
 Alpha  occ. eigenvalues --  -10.23964  -3.17780  -3.16728  -1.92653  -1.92258
 Alpha  occ. eigenvalues --   -1.92062  -1.91633  -1.91169  -1.91059  -1.16064
 Alpha  occ. eigenvalues --   -1.15449  -1.10675  -1.09088  -1.07783  -1.07748
 Alpha  occ. eigenvalues --   -1.07464  -1.06663  -1.04826  -1.04304  -1.04009
 Alpha  occ. eigenvalues --   -1.03443  -1.02809  -1.02773  -1.01351  -1.00338
 Alpha  occ. eigenvalues --   -0.91922  -0.91581  -0.89335  -0.88960  -0.88889
 Alpha  occ. eigenvalues --   -0.88593  -0.88552  -0.87804  -0.87539  -0.86810
 Alpha  occ. eigenvalues --   -0.86701  -0.86636  -0.86297  -0.86072  -0.84362
 Alpha  occ. eigenvalues --   -0.84223  -0.83686  -0.82913  -0.82719  -0.82339
 Alpha  occ. eigenvalues --   -0.82168  -0.81906  -0.80951  -0.80730  -0.80154
 Alpha  occ. eigenvalues --   -0.79976  -0.78939  -0.78010  -0.77744  -0.77393
 Alpha  occ. eigenvalues --   -0.76951  -0.76475  -0.75985  -0.75736  -0.75235
 Alpha  occ. eigenvalues --   -0.74519  -0.73018  -0.72042  -0.71668  -0.71445
 Alpha  occ. eigenvalues --   -0.69625  -0.69386  -0.68998  -0.68591  -0.68250
 Alpha  occ. eigenvalues --   -0.67593  -0.67040  -0.66897  -0.66174  -0.65487
 Alpha  occ. eigenvalues --   -0.65354  -0.65103  -0.64650  -0.63918  -0.63739
 Alpha  occ. eigenvalues --   -0.63527  -0.62103  -0.61239  -0.60613  -0.59613
 Alpha  occ. eigenvalues --   -0.59469  -0.59104  -0.59032  -0.58671  -0.58009
 Alpha  occ. eigenvalues --   -0.57769  -0.57486  -0.57486  -0.57184  -0.56758
 Alpha  occ. eigenvalues --   -0.56748  -0.56265  -0.56126  -0.55921  -0.55160
 Alpha  occ. eigenvalues --   -0.54555  -0.54497  -0.54227  -0.54212  -0.53928
 Alpha  occ. eigenvalues --   -0.53658  -0.53653  -0.53445  -0.53218  -0.52845
 Alpha  occ. eigenvalues --   -0.52535  -0.52486  -0.52279  -0.52184  -0.51875
 Alpha  occ. eigenvalues --   -0.51820  -0.51723  -0.51413  -0.51366  -0.51193
 Alpha  occ. eigenvalues --   -0.51129  -0.51030  -0.50807  -0.50636  -0.50456
 Alpha  occ. eigenvalues --   -0.50039  -0.49962  -0.49647  -0.49521  -0.49508
 Alpha  occ. eigenvalues --   -0.49401  -0.49294  -0.48979  -0.48931  -0.48857
 Alpha  occ. eigenvalues --   -0.48764  -0.48478  -0.48333  -0.48100  -0.48081
 Alpha  occ. eigenvalues --   -0.48028  -0.47741  -0.47591  -0.47360  -0.47138
 Alpha  occ. eigenvalues --   -0.46894  -0.46851  -0.46779  -0.46531  -0.46222
 Alpha  occ. eigenvalues --   -0.46154  -0.46049  -0.45704  -0.45700  -0.45569
 Alpha  occ. eigenvalues --   -0.45446  -0.45179  -0.45173  -0.45133  -0.44938
 Alpha  occ. eigenvalues --   -0.44830  -0.44622  -0.44430  -0.44151  -0.43974
 Alpha  occ. eigenvalues --   -0.43965  -0.43928  -0.43464  -0.43440  -0.43402
 Alpha  occ. eigenvalues --   -0.43096  -0.43044  -0.42867  -0.42810  -0.42717
 Alpha  occ. eigenvalues --   -0.42543  -0.42524  -0.42316  -0.42266  -0.42107
 Alpha  occ. eigenvalues --   -0.42073  -0.41910  -0.41730  -0.41487  -0.41258
 Alpha  occ. eigenvalues --   -0.41060  -0.40884  -0.40749  -0.40305  -0.40159
 Alpha  occ. eigenvalues --   -0.39905  -0.39335  -0.39198  -0.39071  -0.39048
 Alpha  occ. eigenvalues --   -0.38488  -0.38471  -0.38195  -0.37960  -0.37392
 Alpha  occ. eigenvalues --   -0.37082  -0.36624  -0.36565  -0.36329  -0.36245
 Alpha  occ. eigenvalues --   -0.35865  -0.35820  -0.34507  -0.34361  -0.34117
 Alpha  occ. eigenvalues --   -0.33811  -0.33149  -0.32678  -0.31513  -0.31287
 Alpha  occ. eigenvalues --   -0.31160  -0.30903  -0.30488  -0.30461  -0.30091
 Alpha  occ. eigenvalues --   -0.30002  -0.29418  -0.29217  -0.24440  -0.23957
 Alpha  occ. eigenvalues --   -0.20741  -0.20400
 Alpha virt. eigenvalues --   -0.08571  -0.07859  -0.02111  -0.01779  -0.00183
 Alpha virt. eigenvalues --    0.00939   0.01484   0.02197   0.02512   0.03288
 Alpha virt. eigenvalues --    0.04519   0.04903   0.04984   0.05422   0.05905

 Mulliken charges:
               1
     1  Mg   0.820353
     2  C   -0.030359
     3  C   -0.063592
     4  C   -0.071140
     5  C   -0.075661
     6  N   -0.309273
     7  C   -0.098343
     8  C    0.032383
     9  C   -0.088982
    10  C    0.018016
    11  C    0.083158
    12  C    0.077574
    13  C   -0.047014
    14  H    0.019815
    15  N   -0.391663
    16  C    0.125447
    17  C   -0.145355
    18  C   -0.034506
    19  C    0.142952
    20  C    0.154408
    21  C   -0.013505
    22  O   -0.198129
    23  C    0.066668
    24  N   -0.314485
    25  C    0.069837
    26  C   -0.078977
    27  C    0.038558
    28  C   -0.001186
    29  C    0.080946
    30  C    0.022900
    31  C   -0.006878
    32  N   -0.284804
    33  C    0.084275
    34  C   -0.172570
    35  C    0.043306
    36  C    0.082303
    37  C    0.114721
    38  C    0.003065
    39  O   -0.216375
    40  C    0.045272
    41  C    0.197768
    42  O   -0.231852
    43  O   -0.339277
    44  C    0.180667
    45  H   -0.019397
    46  H   -0.063800
    47  H   -0.033493
    48  H    0.001494
    49  H    0.014766
    50  H    0.026239
    51  H    0.029011
    52  H    0.019929
    53  H    0.006738
    54  H   -0.008003
    55  H    0.024282
    56  H    0.048674
    57  H    0.049564
    58  H   -0.000642
    59  H    0.036226
    60  H    0.054903
    61  H    0.021092
    62  H    0.037891
    63  H    0.025845
    64  H    0.005545
    65  H    0.018943
    66  H    0.015427
    67  H    0.020802
    68  H    0.021159
    69  H   -0.000060
    70  H    0.029346
    71  H    0.015071
    72  H    0.025944
    73  H    0.027730
    74  H    0.049119
    75  H    0.018915
    76  H    0.043787
    77  H    0.041327
    78  H    0.050543
    79  H    0.054620
    80  Mg   0.842073
    81  C   -0.020553
    82  C   -0.090090
    83  C   -0.079634
    84  C   -0.078333
    85  N   -0.250711
    86  C   -0.044697
    87  C   -0.012998
    88  C   -0.082152
    89  C   -0.014496
    90  C    0.091569
    91  C    0.015920
    92  C   -0.044477
    93  H    0.032150
    94  N   -0.411440
    95  C    0.200960
    96  C   -0.144022
    97  C   -0.033971
    98  C    0.153122
    99  C    0.122203
   100  C   -0.007228
   101  O   -0.241940
   102  C    0.080573
   103  N   -0.275380
   104  C    0.019543
   105  C   -0.035733
   106  C    0.002853
   107  C    0.012025
   108  C    0.060822
   109  C    0.002621
   110  C    0.023780
   111  N   -0.368226
   112  C    0.111831
   113  C   -0.177361
   114  C    0.032713
   115  C    0.112097
   116  C    0.110957
   117  C    0.072037
   118  O   -0.179389
   119  C   -0.071632
   120  C    0.225343
   121  O   -0.190699
   122  O   -0.375616
   123  C    0.183820
   124  H   -0.034872
   125  H   -0.005907
   126  H   -0.023952
   127  H    0.008538
   128  H    0.003671
   129  H    0.006430
   130  H    0.036708
   131  H    0.014631
   132  H    0.016678
   133  H    0.015058
   134  H    0.036663
   135  H    0.035945
   136  H    0.032145
   137  H    0.035678
   138  H    0.012018
   139  H    0.044589
   140  H    0.019927
   141  H    0.028080
   142  H    0.024688
   143  H    0.018534
   144  H    0.031723
   145  H    0.016253
   146  H    0.027655
   147  H    0.011377
   148  H   -0.004943
   149  H    0.019968
   150  H    0.018621
   151  H    0.014675
   152  H    0.037908
   153  H    0.005623
   154  H    0.037491
   155  H    0.063029
   156  H    0.049891
   157  H    0.033254
   158  H    0.033991
 Sum of Mulliken charges =  -0.00000

 Dipole moment (field-independent basis, Debye):
    X=              0.6486    Y=             -4.3464    Z=             -1.1740  Tot=              4.5486
 Quadrupole moment (field-independent basis, Debye-Ang):
   XX=           -195.2958   YY=           -489.0437   ZZ=           -494.2208
   XY=             30.5697   XZ=             -0.3265   YZ=             10.5328

 Normal termination of Gaussian 16 at Tue Aug 31 18:38:49 2021.
