 Gaussian 16, Revision A.03,
 Gaussian 16:  ES64L-G16RevA.03 25-Dec-2016

 ----------------------------------------------------------
 #p cam-b3lyp/Def2SVP td=(nstates=5) density=(transition=1)
 ----------------------------------------------------------

 --------------------------------
 TDDFT excited states in gaussian
 --------------------------------
 Symbolic Z-matrix:
 Charge =  0 Multiplicity = 1

                         Standard orientation:
 ---------------------------------------------------------------------
 Center     Atomic      Atomic             Coordinates (Angstroms)
 Number     Number       Type             X           Y           Z
 ---------------------------------------------------------------------
      1         12           0       23.984210   -0.870884   -0.048887
      2          6           0       25.250526    2.378243   -0.572133
      3          6           0       22.541824    0.247858    2.863047
      4          6           0       22.807435   -3.956556    0.562958
      5          6           0       25.934359   -2.082242   -2.689477
      6          7           0       23.847185    1.112111    0.862287
      7          6           0       24.373937    2.296313    0.563979
      8          6           0       24.027736    3.463561    1.511738
      9          6           0       23.414038    2.573015    2.697704
     10          6           0       23.298046    1.186516    2.113050
     11          6           0       24.245097    2.583576    3.957690
     12          6           0       22.956455    4.526877    0.902409
     13          6           0       23.092717    5.928590    1.504140
     14          1           0       23.442794    7.030791    0.471440
     15          7           0       22.675444   -1.740511    1.429223
     16          6           0       22.233750   -1.072735    2.598228
     17          6           0       21.230210   -1.917946    3.205070
     18          6           0       21.264659   -3.143149    2.545308
     19          6           0       22.260890   -3.003918    1.437187
     20          6           0       20.488133   -1.567173    4.480891
     21          6           0       20.466177   -4.411404    2.742070
     22          8           0       20.614583   -5.329450    1.989412
     23          6           0       19.428111   -4.539420    3.811915
     24          7           0       24.457131   -2.782152   -0.789480
     25          6           0       23.778637   -3.909397   -0.427974
     26          6           0       24.286696   -5.043024   -1.361528
     27          6           0       24.763858   -4.361580   -2.631518
     28          6           0       25.116561   -2.974845   -2.043865
     29          6           0       25.464090   -5.755335   -0.697301
     30          6           0       23.767977   -4.329315   -3.731149
     31          6           0       22.350436   -3.913269   -3.425258
     32          7           0       25.305619   -0.069730   -1.410783
     33          6           0       26.039957   -0.656342   -2.424249
     34          6           0       26.820021    0.386342   -3.108663
     35          6           0       26.510068    1.574299   -2.424000
     36          6           0       25.617398    1.253679   -1.437936
     37          6           0       27.752966    0.186447   -4.223832
     38          6           0       26.640878    3.006691   -2.430300
     39          8           0       27.268270    3.777839   -3.214314
     40          6           0       25.771465    3.568019   -1.207974
     41          6           0       26.735137    4.276505   -0.291618
     42          8           0       27.772094    3.795401    0.057612
     43          8           0       26.305761    5.543494    0.188279
     44          6           0       27.096220    6.089900    1.333023
     45          1           0       22.119974    0.570447    3.816604
     46          1           0       22.529509   -4.989254    0.785380
     47          1           0       26.427642   -2.355642   -3.624843
     48          1           0       24.925481    4.040906    1.736202
     49          1           0       22.440896    3.027975    2.886468
     50          1           0       23.786759    3.322031    4.615300
     51          1           0       25.306985    2.736360    3.763783
     52          1           0       24.010276    1.630295    4.431090
     53          1           0       21.940795    4.183732    1.101780
     54          1           0       23.034228    4.569832   -0.184152
     55          1           0       23.858423    5.763558    2.262417
     56          1           0       22.210765    6.217942    2.075255
     57          1           0       20.597407   -0.486518    4.564027
     58          1           0       21.107686   -2.024768    5.251637
     59          1           0       19.432764   -1.836947    4.436925
     60          1           0       18.662689   -3.885124    3.394278
     61          1           0       19.728879   -4.153636    4.785609
     62          1           0       19.095458   -5.574607    3.895623
     63          1           0       23.564530   -5.831243   -1.571502
     64          1           0       25.628394   -4.820173   -3.110340
     65          1           0       26.481893   -5.533753   -1.018524
     66          1           0       25.303734   -6.826610   -0.818340
     67          1           0       25.410019   -5.562681    0.374781
     68          1           0       23.726865   -5.275896   -4.270552
     69          1           0       24.177051   -3.599970   -4.430055
     70          1           0       22.213532   -2.952051   -3.921486
     71          1           0       21.965307   -3.774450   -2.414622
     72          1           0       21.679320   -4.609806   -3.927544
     73          1           0       28.628073   -0.339638   -3.842504
     74          1           0       27.946016    1.197429   -4.582468
     75          1           0       27.326015   -0.461082   -4.990857
     76          1           0       25.009956    4.189518   -1.679445
     77          1           0       28.038087    6.507159    0.976956
     78          1           0       27.309320    5.346021    2.102055
     79          1           0       26.660463    6.945177    1.848676
     80         12           0      -24.418375   -0.625799   -0.052281
     81          6           0      -23.528679    2.790330   -0.792768
     82          6           0      -24.428891    0.301386    3.329663
     83          6           0      -25.345060   -3.699468    0.635984
     84          6           0      -24.048024   -1.408586   -3.439198
     85          7           0      -23.980600    1.386282    1.103913
     86          6           0      -23.860578    2.640061    0.593145
     87          6           0      -24.018126    3.708205    1.663049
     88          6           0      -23.958279    2.874527    3.061809
     89          6           0      -24.104641    1.437781    2.482432
     90          6           0      -22.706667    3.147131    3.933216
     91          6           0      -25.329831    4.546555    1.492228
     92          6           0      -25.090255    6.073682    1.369097
     93          1           0      -25.729168    6.941680    2.599896
     94          7           0      -24.823231   -1.536681    1.681395
     95          6           0      -24.760008   -1.046968    3.029853
     96          6           0      -25.145127   -2.058469    4.042310
     97          6           0      -25.458823   -3.186696    3.215741
     98          6           0      -25.217625   -2.833176    1.806758
     99          6           0      -25.143830   -1.831464    5.555400
    100          6           0      -25.858012   -4.550851    3.632824
    101          8           0      -26.337933   -5.409845    2.901002
    102          6           0      -25.799966   -4.890854    5.135068
    103          7           0      -24.816537   -2.222823   -1.248533
    104          6           0      -25.163541   -3.421814   -0.727439
    105          6           0      -25.112611   -4.536757   -1.734730
    106          6           0      -24.746499   -3.835105   -3.065766
    107          6           0      -24.571659   -2.371994   -2.600134
    108          6           0      -24.231205   -5.704508   -1.344071
    109          6           0      -25.974202   -3.966947   -4.145779
    110          6           0      -25.574832   -4.584348   -5.594085
    111          7           0      -23.637579    0.380122   -1.755119
    112          6           0      -23.640112   -0.084020   -3.092583
    113          6           0      -23.217489    1.028574   -3.950876
    114          6           0      -23.310587    2.156607   -3.093813
    115          6           0      -23.443047    1.701071   -1.781215
    116          6           0      -22.838202    1.036464   -5.428683
    117          6           0      -22.999595    3.613811   -3.069068
    118          8           0      -22.595521    4.461654   -3.912473
    119          6           0      -23.264767    4.059929   -1.579251
    120          6           0      -22.057490    4.799637   -1.083113
    121          8           0      -20.926881    4.443910   -1.260794
    122          8           0      -22.446842    5.980512   -0.514445
    123          6           0      -21.310954    6.914553   -0.309795
    124          1           0      -24.286738    0.605887    4.368468
    125          1           0      -25.647256   -4.736400    0.798757
    126          1           0      -23.962906   -1.620532   -4.506818
    127          1           0      -23.121803    4.325664    1.603765
    128          1           0      -24.842974    3.031318    3.679509
    129          1           0      -22.083923    2.255217    4.008314
    130          1           0      -23.001105    3.478918    4.929719
    131          1           0      -22.077332    3.978397    3.615266
    132          1           0      -26.007372    4.412206    2.335828
    133          1           0      -25.874549    4.261479    0.591770
    134          1           0      -25.637328    6.527455    0.542307
    135          1           0      -24.057192    6.368825    1.188030
    136          1           0      -25.137103   -0.797580    5.902008
    137          1           0      -24.366846   -2.359114    6.108467
    138          1           0      -26.084993   -2.260415    5.900845
    139          1           0      -24.777225   -4.810014    5.503159
    140          1           0      -26.221881   -5.872114    5.354975
    141          1           0      -26.416930   -4.164471    5.664027
    142          1           0      -26.100260   -4.998302   -1.772891
    143          1           0      -23.801787   -4.206307   -3.461952
    144          1           0      -24.791018   -6.597308   -1.064124
    145          1           0      -23.613329   -5.542486   -0.460925
    146          1           0      -23.560313   -5.910161   -2.178422
    147          1           0      -26.476370   -3.024675   -4.362550
    148          1           0      -26.776214   -4.612288   -3.788401
    149          1           0      -24.649003   -5.135568   -5.428295
    150          1           0      -25.442481   -3.804810   -6.345485
    151          1           0      -26.277325   -5.357783   -5.903474
    152          1           0      -23.098199    1.976257   -5.915418
    153          1           0      -23.481294    0.313103   -5.931313
    154          1           0      -21.804588    0.690142   -5.425065
    155          1           0      -24.061098    4.801745   -1.634241
    156          1           0      -20.551598    6.380745    0.261310
    157          1           0      -21.725477    7.672788    0.354368
    158          1           0      -20.796814    7.326572   -1.178084
 ---------------------------------------------------------------------

 SCF Done:  E(RCAM-B3LYP) =  -4069.79705685     A.U. after   18 cycles

 Excitation energies and oscillator strengths:

 Excited State   1:      Singlet-A      1.6722 eV  741.47 nm  f=0.3664  <S**2>=0.000
     310 -> 315        0.18801
     312 -> 313        0.68426
     310 <- 315        0.11183
 This state for optimization and/or second-order correction.
 Total Energy, E(TD-HF/TD-DFT) =  -4069.73560646
 Copying the excited state density for this state as the 1-particle RhoCI density.

 Excited State   2:      Singlet-A      1.6958 eV  731.14 nm  f=0.3745  <S**2>=0.000
     309 -> 316       -0.17411
     311 -> 314        0.68767
     309 <- 316       -0.10610

 Excited State   3:      Singlet-A      2.1740 eV  570.29 nm  f=0.1320  <S**2>=0.000
     310 -> 313        0.64727
     312 -> 315       -0.27759

 Excited State   4:      Singlet-A      2.1842 eV  567.65 nm  f=0.1203  <S**2>=0.000
     309 -> 314        0.64717
     311 -> 316        0.27033

 Excited State   5:      Singlet-A      3.1704 eV  391.07 nm  f=0.0000  <S**2>=0.000
     312 -> 314        0.70711

 The electronic state is 1-A.
 Alpha  occ. eigenvalues --  -46.88624 -46.88553 -19.25670 -19.24499 -19.20044
 Alpha  occ. eigenvalues --  -19.19769 -19.19083 -19.18975 -19.18707 -19.18241
 Alpha  occ. eigenvalues --  -14.43415 -14.42630 -14.41958 -14.41341 -14.40739
 Alpha  occ. eigenvalues --  -14.39707 -14.39273 -14.39057 -10.39398 -10.38842
 Alpha  occ. eigenvalues --  -10.35188 -10.35164 -10.35146 -10.34741 -10.31949
 Alpha  occ. eigenvalues --  -10.31851 -10.31851 -10.31683 -10.31600 -10.31511
 Alpha  occ. eigenvalues --  -10.31312 -10.31272 -10.31121 -10.30949 -10.30889
 Alpha  occ. eigenvalues --  -10.30821 -10.30690 -10.30609 -10.30519 -10.30002
 Alpha  occ. eigenvalues --  -10.29438 -10.29390 -10.29122 -10.29063 -10.29017
 Alpha  occ. eigenvalues --  -10.28928 -10.28857 -10.28804 -10.28652 -10.28554
 Alpha  occ. eigenvalues --  -10.28473 -10.28387 -10.28367 -10.28310 -10.28262
 Alpha  occ. eigenvalues --  -10.28244 -10.28201 -10.28128 -10.28105 -10.27984
 Alpha  occ. eigenvalues --  -10.27853 -10.27529 -10.27350 -10.27260 -10.27225
 Alpha  occ. eigenvalues --  -10.27166 -10.27127 -10.27120 -10.26780 -10.26694
 Alpha  occ. eigenvalues --  -10.26651 -10.26619 -10.26591 -10.26418 -10.26147
 Alpha  occ. eigenvalues --  -10.26133 -10.26078 -10.25934 -10.25621 -10.25513
 Alpha  occ. eigenvalues --  -10.25396 -10.25211 -10.25117 -10.25107 -10.24461
 Alpha  occ. eigenvalues --  -10.24426  -3.17197  -3.17119  -1.92094  -1.92041
 Alpha  occ. eigenvalues --   -1.91651  -1.91550  -1.91518  -1.91435  -1.16986
 Alpha  occ. eigenvalues --   -1.15614  -1.12118  -1.09991  -1.08709  -1.07381
 Alpha  occ. eigenvalues --   -1.07087  -1.06655  -1.05298  -1.04022  -1.03539
 Alpha  occ. eigenvalues --   -1.03290  -1.02936  -1.02606  -1.02038  -1.01769
 Alpha  occ. eigenvalues --   -0.92952  -0.91598  -0.90049  -0.89440  -0.88834
 Alpha  occ. eigenvalues --   -0.88664  -0.88519  -0.88150  -0.87849  -0.87435
 Alpha  occ. eigenvalues --   -0.87017  -0.86936  -0.86221  -0.85658  -0.84708
 Alpha  occ. eigenvalues --   -0.84045  -0.83573  -0.83193  -0.82631  -0.82475
 Alpha  occ. eigenvalues --   -0.81838  -0.81416  -0.81114  -0.80698  -0.79924
 Alpha  occ. eigenvalues --   -0.79782  -0.79118  -0.78914  -0.77348  -0.77120
 Alpha  occ. eigenvalues --   -0.77108  -0.76808  -0.76286  -0.76058  -0.75249
 Alpha  occ. eigenvalues --   -0.74991  -0.72579  -0.72459  -0.71442  -0.71334
 Alpha  occ. eigenvalues --   -0.69705  -0.69198  -0.68851  -0.68768  -0.67844
 Alpha  occ. eigenvalues --   -0.67616  -0.67125  -0.67113  -0.65942  -0.65831
 Alpha  occ. eigenvalues --   -0.65657  -0.64941  -0.64409  -0.64205  -0.64019
 Alpha  occ. eigenvalues --   -0.63410  -0.62390  -0.61770  -0.60824  -0.60386
 Alpha  occ. eigenvalues --   -0.59941  -0.59285  -0.59148  -0.58983  -0.58760
 Alpha  occ. eigenvalues --   -0.58610  -0.58370  -0.57980  -0.57596  -0.57161
 Alpha  occ. eigenvalues --   -0.56397  -0.56161  -0.55763  -0.55299  -0.55086
 Alpha  occ. eigenvalues --   -0.54788  -0.54543  -0.54520  -0.54092  -0.53983
 Alpha  occ. eigenvalues --   -0.53801  -0.53720  -0.53618  -0.53417  -0.53046
 Alpha  occ. eigenvalues --   -0.52690  -0.52586  -0.52437  -0.52177  -0.51884
 Alpha  occ. eigenvalues --   -0.51676  -0.51635  -0.51531  -0.51471  -0.51399
 Alpha  occ. eigenvalues --   -0.50870  -0.50843  -0.50735  -0.50483  -0.50205
 Alpha  occ. eigenvalues --   -0.50086  -0.50012  -0.49991  -0.49825  -0.49694
 Alpha  occ. eigenvalues --   -0.49588  -0.49450  -0.49232  -0.49211  -0.49077
 Alpha  occ. eigenvalues --   -0.48807  -0.48303  -0.48267  -0.48224  -0.48137
 Alpha  occ. eigenvalues --   -0.48028  -0.47736  -0.47652  -0.47587  -0.47490
 Alpha  occ. eigenvalues --   -0.47178  -0.47069  -0.46864  -0.46711  -0.46590
 Alpha  occ. eigenvalues --   -0.46357  -0.46224  -0.45967  -0.45880  -0.45596
 Alpha  occ. eigenvalues --   -0.45560  -0.45407  -0.45222  -0.45010  -0.44960
 Alpha  occ. eigenvalues --   -0.44836  -0.44797  -0.44397  -0.44322  -0.44172
 Alpha  occ. eigenvalues --   -0.44121  -0.43904  -0.43809  -0.43734  -0.43505
 Alpha  occ. eigenvalues --   -0.43341  -0.43158  -0.43109  -0.42883  -0.42853
 Alpha  occ. eigenvalues --   -0.42631  -0.42527  -0.42468  -0.42239  -0.42057
 Alpha  occ. eigenvalues --   -0.41825  -0.41566  -0.41560  -0.41334  -0.41045
 Alpha  occ. eigenvalues --   -0.40932  -0.40815  -0.40716  -0.40456  -0.40381
 Alpha  occ. eigenvalues --   -0.40274  -0.40200  -0.39749  -0.39525  -0.39399
 Alpha  occ. eigenvalues --   -0.38622  -0.38346  -0.38255  -0.37718  -0.37511
 Alpha  occ. eigenvalues --   -0.37364  -0.37287  -0.37131  -0.36432  -0.36401
 Alpha  occ. eigenvalues --   -0.36196  -0.35524  -0.34685  -0.34662  -0.34521
 Alpha  occ. eigenvalues --   -0.34443  -0.33208  -0.33041  -0.31715  -0.31656
 Alpha  occ. eigenvalues --   -0.31371  -0.31014  -0.30618  -0.30316  -0.30294
 Alpha  occ. eigenvalues --   -0.30012  -0.29406  -0.29331  -0.24145  -0.23928
 Alpha  occ. eigenvalues --   -0.21389  -0.21328
 Alpha virt. eigenvalues --   -0.09003  -0.08963  -0.01857  -0.01741   0.00109
 Alpha virt. eigenvalues --    0.00434   0.02034   0.02171   0.03260   0.03534
 Alpha virt. eigenvalues --    0.04206   0.04651   0.05192   0.05297   0.05616

 Mulliken charges:
               1
     1  Mg  11.999960
     2  C    6.000165
     3  C    5.999791
     4  C    5.999865
     5  C    6.000183
     6  N    7.000071
     7  C    5.999696
     8  C    6.000084
     9  C    5.999874
    10  C    6.000323
    11  C    5.999959
    12  C    6.000032
    13  C    5.999994
    14  H    1.000000
    15  N    6.999933
    16  C    6.000419
    17  C    6.000067
    18  C    6.000176
    19  C    6.000194
    20  C    5.999990
    21  C    6.000101
    22  O    8.000214
    23  C    5.999976
    24  N    7.000004
    25  C    6.000198
    26  C    5.999980
    27  C    6.000044
    28  C    5.999757
    29  C    6.000004
    30  C    6.000036
    31  C    6.000016
    32  N    6.999959
    33  C    5.999652
    34  C    5.999797
    35  C    5.999989
    36  C    5.999778
    37  C    6.000043
    38  C    5.999840
    39  O    7.999753
    40  C    6.000004
    41  C    5.999949
    42  O    7.999994
    43  O    7.999969
    44  C    6.000019
    45  H    1.000105
    46  H    1.000058
    47  H    0.999916
    48  H    1.000024
    49  H    1.000052
    50  H    1.000078
    51  H    1.000124
    52  H    0.999978
    53  H    0.999896
    54  H    1.000028
    55  H    0.999999
    56  H    0.999957
    57  H    1.000111
    58  H    1.000144
    59  H    1.000122
    60  H    1.000042
    61  H    1.000085
    62  H    1.000130
    63  H    0.999992
    64  H    0.999998
    65  H    1.000100
    66  H    1.000027
    67  H    0.999971
    68  H    0.999936
    69  H    1.000038
    70  H    1.000024
    71  H    0.999883
    72  H    0.999963
    73  H    0.999837
    74  H    0.999876
    75  H    0.999822
    76  H    0.999920
    77  H    0.999990
    78  H    0.999972
    79  H    0.999953
    80  Mg  12.004474
    81  C    5.971496
    82  C    6.006714
    83  C    6.034376
    84  C    5.988836
    85  N    6.982972
    86  C    6.036053
    87  C    5.989432
    88  C    6.012662
    89  C    5.968364
    90  C    6.002940
    91  C    5.998165
    92  C    5.997893
    93  H    1.007333
    94  N    7.006909
    95  C    5.960279
    96  C    5.975728
    97  C    5.985453
    98  C    5.967578
    99  C    6.004960
   100  C    5.988525
   101  O    7.968076
   102  C    6.004415
   103  N    7.007931
   104  C    5.959603
   105  C    6.010597
   106  C    5.987687
   107  C    6.031739
   108  C    6.000820
   109  C    5.994909
   110  C    5.999061
   111  N    6.995229
   112  C    6.046561
   113  C    6.030312
   114  C    6.004747
   115  C    6.033539
   116  C    6.000196
   117  C    6.009571
   118  O    8.031091
   119  C    6.004770
   120  C    6.006796
   121  O    8.000271
   122  O    8.001913
   123  C    5.997817
   124  H    0.986457
   125  H    0.998926
   126  H    1.012794
   127  H    0.997624
   128  H    0.998747
   129  H    1.000493
   130  H    0.996011
   131  H    0.985636
   132  H    1.009293
   133  H    0.994987
   134  H    0.996940
   135  H    0.998016
   136  H    0.983184
   137  H    0.979639
   138  H    0.983278
   139  H    0.992205
   140  H    0.984953
   141  H    0.994675
   142  H    1.001121
   143  H    1.003976
   144  H    1.002355
   145  H    1.005375
   146  H    0.989914
   147  H    0.998958
   148  H    1.012782
   149  H    1.004049
   150  H    0.997101
   151  H    1.006505
   152  H    1.015831
   153  H    1.017051
   154  H    1.017528
   155  H    1.004767
   156  H    1.004665
   157  H    1.005238
   158  H    1.000133
 Sum of Mulliken charges = 624.00000

 Dipole moment (field-independent basis, Debye):
    X=              2.1172    Y=              4.2015    Z=             -9.6658  Tot=             10.7500
 Quadrupole moment (field-independent basis, Debye-Ang):
   XX=           -107.1637   YY=             -2.5866   ZZ=             -1.1495
   XY=           -105.0471   XZ=            237.1937   YZ=              6.9605

 Normal termination of Gaussian 16 at Tue Sep 21 18:46:04 2021.
