 Gaussian 16, Revision A.03,
 Gaussian 16:  ES64L-G16RevA.03 25-Dec-2016

 -----------------------------------
 #p cam-b3lyp/Def2SVP td=(nstates=5)
 -----------------------------------

 --------------------------------
 TDDFT excited states in gaussian
 --------------------------------
 Symbolic Z-matrix:
 Charge =  0 Multiplicity = 1

                         Standard orientation:
 ---------------------------------------------------------------------
 Center     Atomic      Atomic             Coordinates (Angstroms)
 Number     Number       Type             X           Y           Z
 ---------------------------------------------------------------------
      1         12           0       30.454591    0.617350   -0.254728
      2          6           0       28.646152   -2.312790   -0.244216
      3          6           0       27.618378    2.289200    0.653629
      4          6           0       32.412394    3.009162    0.911015
      5          6           0       33.280476   -1.265536   -1.147250
      6          7           0       28.494691   -0.089472    0.596303
      7          6           0       27.912192   -1.271965    0.270085
      8          6           0       26.446055   -1.303436    0.586105
      9          6           0       26.109373    0.216158    0.442840
     10          6           0       27.489011    0.855992    0.490824
     11          6           0       25.270102    0.537587   -0.826931
     12          6           0       26.155711   -1.833747    2.078892
     13          6           0       24.821419   -2.697414    2.252785
     14          1           0       23.932466   -1.984468    3.241477
     15          7           0       30.042782    2.485753    0.475156
     16          6           0       28.858430    2.999843    0.873376
     17          6           0       29.036519    4.337591    1.423741
     18          6           0       30.426246    4.571023    1.472681
     19          6           0       31.022613    3.314114    0.939385
     20          6           0       27.824809    5.179265    1.892373
     21          6           0       31.030098    5.760881    2.165131
     22          8           0       30.309393    6.603034    2.633752
     23          6           0       32.540687    5.978196    2.376061
     24          7           0       32.585435    0.939621   -0.234386
     25          6           0       33.103019    1.956406    0.296715
     26          6           0       34.583334    1.891810    0.379178
     27          6           0       34.901143    0.503762   -0.303662
     28          6           0       33.546333    0.015452   -0.582566
     29          6           0       35.255094    3.161072   -0.245748
     30          6           0       35.718334   -0.469818    0.665882
     31          6           0       36.484876   -1.671420    0.007181
     32          7           0       30.918471   -1.341821   -0.708423
     33          6           0       32.088611   -1.929155   -1.154206
     34          6           0       31.855542   -3.294414   -1.535922
     35          6           0       30.461646   -3.487756   -1.235915
     36          6           0       29.990852   -2.327725   -0.651716
     37          6           0       32.835627   -4.267285   -2.108029
     38          6           0       29.401191   -4.432674   -1.308195
     39          8           0       29.297868   -5.605768   -1.689283
     40          6           0       28.234384   -3.781545   -0.494184
     41          6           0       26.988703   -3.998986   -1.286762
     42          8           0       26.204789   -4.945183   -1.127385
     43          8           0       26.876898   -3.031942   -2.247301
     44          6           0       25.654530   -3.293916   -3.057888
     45          1           0       26.754882    2.939787    0.809580
     46          1           0       33.031885    3.789074    1.357457
     47          1           0       34.177353   -1.872561   -1.292523
     48          1           0       26.014341   -1.876385   -0.233564
     49          1           0       25.476705    0.519414    1.277190
     50          1           0       24.295037    0.919758   -0.526166
     51          1           0       25.078967   -0.409941   -1.331740
     52          1           0       25.862845    1.206875   -1.449692
     53          1           0       26.194119   -1.087173    2.872003
     54          1           0       26.962044   -2.487225    2.410343
     55          1           0       25.163727   -3.619848    2.722109
     56          1           0       24.267905   -3.022521    1.371786
     57          1           0       27.849586    5.476139    2.940807
     58          1           0       26.857672    4.719007    1.687087
     59          1           0       27.800417    6.068789    1.263767
     60          1           0       33.091859    6.102914    1.444563
     61          1           0       33.015466    5.202606    2.977540
     62          1           0       32.600244    6.830139    3.054054
     63          1           0       34.769296    1.827995    1.451217
     64          1           0       35.380474    0.504513   -1.282318
     65          1           0       35.851601    3.621061    0.541786
     66          1           0       34.517199    3.860465   -0.639175
     67          1           0       36.050862    2.940099   -0.956933
     68          1           0       35.050762   -0.897756    1.414055
     69          1           0       36.426020    0.174848    1.185061
     70          1           0       37.565519   -1.771452    0.104927
     71          1           0       36.360728   -1.655989   -1.074753
     72          1           0       36.078438   -2.617680    0.364291
     73          1           0       33.805598   -3.867866   -2.403558
     74          1           0       32.248537   -4.627466   -2.951873
     75          1           0       32.827403   -5.021848   -1.321369
     76          1           0       28.116315   -4.176797    0.515309
     77          1           0       25.807059   -4.188010   -3.661557
     78          1           0       25.499681   -2.550104   -3.839498
     79          1           0       24.809632   -3.346241   -2.370905
     80         12           0      -29.998241   -0.541608    0.497022
     81          6           0      -29.956841    2.065309   -2.015078
     82          6           0      -29.679315   -2.618827   -1.956716
     83          6           0      -30.334744   -2.769723    2.902187
     84          6           0      -31.154732    1.863173    2.964652
     85          7           0      -29.711045   -0.252101   -1.763839
     86          6           0      -29.728858    0.849183   -2.594323
     87          6           0      -29.574513    0.429865   -4.011794
     88          6           0      -29.978498   -1.066822   -3.993059
     89          6           0      -29.829270   -1.349008   -2.479422
     90          6           0      -31.423105   -1.343354   -4.464160
     91          6           0      -28.079051    0.551342   -4.435781
     92          6           0      -27.799870    1.188058   -5.852205
     93          1           0      -26.374028    1.783664   -6.184250
     94          7           0      -29.950420   -2.532618    0.437106
     95          6           0      -29.699083   -3.235667   -0.634920
     96          6           0      -29.588181   -4.629035   -0.246452
     97          6           0      -29.658109   -4.605053    1.166425
     98          6           0      -30.017432   -3.264957    1.543633
     99          6           0      -29.260918   -5.716805   -1.285519
    100          6           0      -29.463790   -5.776358    2.088537
    101          8           0      -29.579169   -5.637153    3.269500
    102          6           0      -29.025939   -7.086816    1.520322
    103          7           0      -30.954547   -0.446532    2.620971
    104          6           0      -30.766654   -1.535075    3.364211
    105          6           0      -30.969439   -1.266630    4.808134
    106          6           0      -31.434697    0.223295    4.762687
    107          6           0      -31.182767    0.631951    3.335363
    108          6           0      -31.890271   -2.249354    5.617189
    109          6           0      -30.667737    1.092369    5.834312
    110          6           0      -31.406069    1.557386    7.120416
    111          7           0      -30.461702    1.440442    0.559262
    112          6           0      -30.835599    2.322743    1.597432
    113          6           0      -30.922944    3.698194    1.064931
    114          6           0      -30.577710    3.609395   -0.276994
    115          6           0      -30.353686    2.275373   -0.572455
    116          6           0      -31.456758    4.924482    1.844256
    117          6           0      -30.400038    4.456648   -1.499927
    118          8           0      -30.468283    5.644005   -1.713679
    119          6           0      -30.153428    3.452860   -2.734565
    120          6           0      -29.109655    3.904377   -3.579597
    121          8           0      -27.934802    3.542968   -3.424211
    122          8           0      -29.456890    4.812997   -4.574504
    123          6           0      -28.444264    5.168833   -5.615385
    124          1           0      -29.528883   -3.420583   -2.681815
    125          1           0      -30.383605   -3.499037    3.713344
    126          1           0      -31.491945    2.599247    3.696048
    127          1           0      -30.308583    0.943848   -4.632879
    128          1           0      -29.366887   -1.743211   -4.589844
    129          1           0      -31.421582   -1.996313   -5.337445
    130          1           0      -31.862459   -0.379271   -4.718616
    131          1           0      -32.074398   -1.776565   -3.704531
    132          1           0      -27.710585   -0.474635   -4.442205
    133          1           0      -27.585943    1.092882   -3.628769
    134          1           0      -28.561145    1.948079   -6.025971
    135          1           0      -27.988285    0.346895   -6.520385
    136          1           0      -28.277464   -6.127939   -1.054057
    137          1           0      -29.316436   -5.411760   -2.329927
    138          1           0      -29.902459   -6.584436   -1.134112
    139          1           0      -28.046663   -7.029207    1.045860
    140          1           0      -29.613981   -7.485013    0.693506
    141          1           0      -28.910684   -7.800132    2.336792
    142          1           0      -29.991177   -1.298655    5.287816
    143          1           0      -32.518632    0.264587    4.871998
    144          1           0      -32.137227   -3.063476    4.936571
    145          1           0      -32.762644   -1.823722    6.114329
    146          1           0      -31.317758   -2.639025    6.459075
    147          1           0      -30.334698    2.017889    5.363843
    148          1           0      -29.708153    0.590102    5.956829
    149          1           0      -30.775147    1.384305    7.992090
    150          1           0      -32.352474    1.023612    7.208701
    151          1           0      -31.605012    2.629101    7.083160
    152          1           0      -31.191538    4.790677    2.892620
    153          1           0      -32.546712    4.914026    1.821148
    154          1           0      -31.052752    5.861863    1.461199
    155          1           0      -31.078403    3.396648   -3.307712
    156          1           0      -28.166895    4.295701   -6.207674
    157          1           0      -27.649330    5.790023   -5.204455
    158          1           0      -28.977893    5.726522   -6.384907
 ---------------------------------------------------------------------

 SCF Done:  E(RCAM-B3LYP) =  -4069.76982806     A.U. after   19 cycles

 Excitation energies and oscillator strengths:

 Excited State   1:      Singlet-A      1.6891 eV  734.05 nm  f=0.3574  <S**2>=0.000
     309 -> 315       -0.16437
     312 -> 314        0.68793
     309 <- 315       -0.10172
 This state for optimization and/or second-order correction.
 Total Energy, E(TD-HF/TD-DFT) =  -4069.70775651
 Copying the excited state density for this state as the 1-particle RhoCI density.

 Excited State   2:      Singlet-A      1.7382 eV  713.30 nm  f=0.3819  <S**2>=0.000
     310 -> 316       -0.16387
     311 -> 313        0.68894
     310 <- 316       -0.10278

 Excited State   3:      Singlet-A      2.1720 eV  570.82 nm  f=0.2264  <S**2>=0.000
     310 -> 313        0.67444
     311 -> 316        0.20201

 Excited State   4:      Singlet-A      2.2121 eV  560.47 nm  f=0.1067  <S**2>=0.000
     309 -> 314        0.64120
     312 -> 315        0.27964

 Excited State   5:      Singlet-A      3.1364 eV  395.30 nm  f=0.0000  <S**2>=0.000
     312 -> 313        0.70711

 The electronic state is 1-A.
 Alpha  occ. eigenvalues --  -46.89444 -46.89222 -19.25560 -19.23975 -19.19645
 Alpha  occ. eigenvalues --  -19.19522 -19.19261 -19.19042 -19.18533 -19.17899
 Alpha  occ. eigenvalues --  -14.42112 -14.41907 -14.41764 -14.40310 -14.40175
 Alpha  occ. eigenvalues --  -14.39826 -14.39776 -14.38589 -10.38661 -10.38521
 Alpha  occ. eigenvalues --  -10.35960 -10.35755 -10.35134 -10.34071 -10.32315
 Alpha  occ. eigenvalues --  -10.31713 -10.31709 -10.31623 -10.31143 -10.31026
 Alpha  occ. eigenvalues --  -10.30982 -10.30681 -10.30600 -10.30252 -10.30042
 Alpha  occ. eigenvalues --  -10.30027 -10.29968 -10.29842 -10.29376 -10.29372
 Alpha  occ. eigenvalues --  -10.29319 -10.28948 -10.28784 -10.28715 -10.28390
 Alpha  occ. eigenvalues --  -10.28389 -10.28249 -10.28211 -10.28190 -10.28160
 Alpha  occ. eigenvalues --  -10.28110 -10.28037 -10.28006 -10.27911 -10.27849
 Alpha  occ. eigenvalues --  -10.27778 -10.27687 -10.27584 -10.27571 -10.27434
 Alpha  occ. eigenvalues --  -10.27267 -10.27260 -10.27167 -10.27166 -10.27144
 Alpha  occ. eigenvalues --  -10.26995 -10.26807 -10.26669 -10.26654 -10.26613
 Alpha  occ. eigenvalues --  -10.26582 -10.26527 -10.26357 -10.26295 -10.26285
 Alpha  occ. eigenvalues --  -10.26278 -10.26220 -10.26217 -10.26052 -10.25924
 Alpha  occ. eigenvalues --  -10.25732 -10.25711 -10.25536 -10.25445 -10.25105
 Alpha  occ. eigenvalues --  -10.24432  -3.17967  -3.17795  -1.92854  -1.92683
 Alpha  occ. eigenvalues --   -1.92430  -1.92267  -1.92265  -1.92086  -1.15948
 Alpha  occ. eigenvalues --   -1.14188  -1.12170  -1.11956  -1.10853  -1.08105
 Alpha  occ. eigenvalues --   -1.07051  -1.06427  -1.06413  -1.05660  -1.04959
 Alpha  occ. eigenvalues --   -1.04886  -1.04591  -1.03936  -1.02828  -1.00989
 Alpha  occ. eigenvalues --   -0.92497  -0.91260  -0.89730  -0.89261  -0.88873
 Alpha  occ. eigenvalues --   -0.88689  -0.88259  -0.87995  -0.87800  -0.87640
 Alpha  occ. eigenvalues --   -0.87299  -0.86877  -0.86628  -0.85197  -0.84347
 Alpha  occ. eigenvalues --   -0.84299  -0.83804  -0.83059  -0.82276  -0.82143
 Alpha  occ. eigenvalues --   -0.82018  -0.81828  -0.80958  -0.80914  -0.80406
 Alpha  occ. eigenvalues --   -0.80345  -0.78772  -0.78424  -0.77841  -0.77127
 Alpha  occ. eigenvalues --   -0.76807  -0.76702  -0.76224  -0.75972  -0.75491
 Alpha  occ. eigenvalues --   -0.75409  -0.72778  -0.72690  -0.72222  -0.71104
 Alpha  occ. eigenvalues --   -0.70487  -0.69313  -0.69219  -0.68786  -0.68151
 Alpha  occ. eigenvalues --   -0.67939  -0.67748  -0.67341  -0.66823  -0.66113
 Alpha  occ. eigenvalues --   -0.65625  -0.65358  -0.64977  -0.64851  -0.64460
 Alpha  occ. eigenvalues --   -0.64225  -0.62420  -0.61440  -0.61046  -0.60515
 Alpha  occ. eigenvalues --   -0.60108  -0.59622  -0.59183  -0.59065  -0.58802
 Alpha  occ. eigenvalues --   -0.58055  -0.57976  -0.57571  -0.57183  -0.56996
 Alpha  occ. eigenvalues --   -0.56691  -0.56552  -0.56209  -0.55747  -0.55670
 Alpha  occ. eigenvalues --   -0.55509  -0.55041  -0.54141  -0.54011  -0.53876
 Alpha  occ. eigenvalues --   -0.53589  -0.53393  -0.53036  -0.52946  -0.52661
 Alpha  occ. eigenvalues --   -0.52641  -0.52433  -0.52390  -0.51985  -0.51975
 Alpha  occ. eigenvalues --   -0.51853  -0.51701  -0.51316  -0.51233  -0.51184
 Alpha  occ. eigenvalues --   -0.50650  -0.50550  -0.50409  -0.50241  -0.50211
 Alpha  occ. eigenvalues --   -0.50088  -0.49916  -0.49858  -0.49705  -0.49689
 Alpha  occ. eigenvalues --   -0.49560  -0.49276  -0.49140  -0.48939  -0.48837
 Alpha  occ. eigenvalues --   -0.48742  -0.48624  -0.48339  -0.48310  -0.47942
 Alpha  occ. eigenvalues --   -0.47779  -0.47770  -0.47679  -0.47557  -0.47443
 Alpha  occ. eigenvalues --   -0.47406  -0.46923  -0.46813  -0.46433  -0.46284
 Alpha  occ. eigenvalues --   -0.46235  -0.46222  -0.45828  -0.45810  -0.45787
 Alpha  occ. eigenvalues --   -0.45532  -0.45405  -0.45376  -0.45103  -0.44922
 Alpha  occ. eigenvalues --   -0.44781  -0.44665  -0.44553  -0.44466  -0.44415
 Alpha  occ. eigenvalues --   -0.44297  -0.44208  -0.44020  -0.43981  -0.43441
 Alpha  occ. eigenvalues --   -0.43376  -0.43335  -0.43162  -0.42993  -0.42916
 Alpha  occ. eigenvalues --   -0.42750  -0.42666  -0.42606  -0.42218  -0.42185
 Alpha  occ. eigenvalues --   -0.41961  -0.41896  -0.41877  -0.41452  -0.41302
 Alpha  occ. eigenvalues --   -0.41160  -0.41044  -0.40764  -0.40635  -0.40368
 Alpha  occ. eigenvalues --   -0.40197  -0.40070  -0.39896  -0.39855  -0.39618
 Alpha  occ. eigenvalues --   -0.38620  -0.38327  -0.38283  -0.37707  -0.37665
 Alpha  occ. eigenvalues --   -0.37040  -0.36812  -0.36704  -0.36523  -0.36486
 Alpha  occ. eigenvalues --   -0.36062  -0.35731  -0.34964  -0.33596  -0.33595
 Alpha  occ. eigenvalues --   -0.33383  -0.33056  -0.32609  -0.31907  -0.31846
 Alpha  occ. eigenvalues --   -0.31528  -0.31378  -0.31100  -0.30744  -0.30596
 Alpha  occ. eigenvalues --   -0.30050  -0.29681  -0.28956  -0.24182  -0.23536
 Alpha  occ. eigenvalues --   -0.21624  -0.21161
 Alpha virt. eigenvalues --   -0.09072  -0.08796  -0.01798  -0.00354   0.00207
 Alpha virt. eigenvalues --    0.00937   0.01665   0.02320   0.02362   0.02660
 Alpha virt. eigenvalues --    0.04531   0.04625   0.05154   0.05808   0.06005

 Mulliken charges:
               1
     1  Mg   0.827966
     2  C    0.029829
     3  C   -0.080503
     4  C   -0.070065
     5  C   -0.085120
     6  N   -0.279636
     7  C   -0.085668
     8  C    0.013230
     9  C   -0.095866
    10  C    0.097095
    11  C    0.091211
    12  C    0.062622
    13  C   -0.075220
    14  H    0.013428
    15  N   -0.375453
    16  C    0.100332
    17  C   -0.121980
    18  C   -0.020092
    19  C    0.147701
    20  C    0.133011
    21  C   -0.028648
    22  O   -0.181287
    23  C    0.044386
    24  N   -0.219560
    25  C   -0.003959
    26  C   -0.028902
    27  C    0.001882
    28  C   -0.020742
    29  C    0.065829
    30  C    0.026749
    31  C   -0.008598
    32  N   -0.362093
    33  C    0.142922
    34  C   -0.189891
    35  C    0.039472
    36  C    0.070797
    37  C    0.143852
    38  C    0.011179
    39  O   -0.189849
    40  C    0.005494
    41  C    0.179203
    42  O   -0.228216
    43  O   -0.342852
    44  C    0.180407
    45  H   -0.022450
    46  H   -0.067113
    47  H   -0.047006
    48  H    0.007618
    49  H    0.015470
    50  H    0.019117
    51  H    0.006652
    52  H    0.019689
    53  H    0.017318
    54  H    0.008054
    55  H    0.035230
    56  H    0.040852
    57  H    0.046022
    58  H   -0.003626
    59  H    0.028841
    60  H    0.045403
    61  H    0.039472
    62  H    0.024614
    63  H    0.020015
    64  H    0.015941
    65  H    0.008872
    66  H    0.036932
    67  H    0.015502
    68  H    0.016341
    69  H    0.011565
    70  H    0.016009
    71  H    0.015039
    72  H    0.022406
    73  H    0.021520
    74  H    0.042219
    75  H    0.041814
    76  H    0.048093
    77  H    0.046354
    78  H    0.028327
    79  H    0.044498
    80  Mg   0.836536
    81  C   -0.017213
    82  C   -0.043214
    83  C   -0.045035
    84  C   -0.101701
    85  N   -0.239098
    86  C   -0.040149
    87  C   -0.024288
    88  C   -0.084509
    89  C    0.050310
    90  C    0.081899
    91  C    0.071401
    92  C   -0.043343
    93  H    0.034244
    94  N   -0.366961
    95  C    0.065582
    96  C   -0.128884
    97  C   -0.029958
    98  C    0.104891
    99  C    0.110682
   100  C    0.002119
   101  O   -0.168068
   102  C    0.040321
   103  N   -0.199801
   104  C   -0.011558
   105  C   -0.045215
   106  C    0.011777
   107  C    0.027143
   108  C    0.070632
   109  C    0.014212
   110  C    0.026940
   111  N   -0.397680
   112  C    0.109376
   113  C   -0.209690
   114  C   -0.008117
   115  C    0.122778
   116  C    0.119311
   117  C    0.086579
   118  O   -0.138076
   119  C   -0.010451
   120  C    0.199182
   121  O   -0.246416
   122  O   -0.357443
   123  C    0.195820
   124  H   -0.050850
   125  H   -0.004294
   126  H   -0.024479
   127  H   -0.003112
   128  H    0.009585
   129  H    0.019449
   130  H    0.006402
   131  H    0.023220
   132  H    0.001096
   133  H    0.050119
   134  H    0.026199
   135  H    0.014076
   136  H    0.026317
   137  H    0.029683
   138  H    0.019828
   139  H    0.028400
   140  H    0.022316
   141  H    0.029405
   142  H    0.020281
   143  H    0.004792
   144  H    0.028999
   145  H    0.015507
   146  H    0.009558
   147  H   -0.002224
   148  H   -0.009395
   149  H    0.017903
   150  H    0.014468
   151  H    0.016683
   152  H    0.008489
   153  H    0.029954
   154  H    0.038352
   155  H    0.050220
   156  H    0.028688
   157  H    0.055455
   158  H    0.024042
 Sum of Mulliken charges =  -0.00000

 Dipole moment (field-independent basis, Debye):
    X=              2.8708    Y=              0.0467    Z=             -2.3362  Tot=              3.7016
 Quadrupole moment (field-independent basis, Debye-Ang):
   XX=           -229.8248   YY=           -581.4124   ZZ=           -481.5034
   XY=            269.7579   XZ=             36.0031   YZ=              6.6715

 Normal termination of Gaussian 16 at Thu Sep 16 03:45:15 2021.
