 Gaussian 16, Revision A.03,
 Gaussian 16:  ES64L-G16RevA.03 25-Dec-2016

 -----------------------------------
 #p cam-b3lyp/Def2SVP td=(nstates=5)
 -----------------------------------

 --------------------------------
 TDDFT excited states in gaussian
 --------------------------------
 Symbolic Z-matrix:
 Charge =  0 Multiplicity = 1

                         Standard orientation:
 ---------------------------------------------------------------------
 Center     Atomic      Atomic             Coordinates (Angstroms)
 Number     Number       Type             X           Y           Z
 ---------------------------------------------------------------------
      1         12           0      -28.325877    0.042400   -0.269491
      2          6           0      -25.008353   -0.975344   -0.104046
      3          6           0      -28.846075   -1.966926    2.646594
      4          6           0      -31.354795    1.290814   -0.000420
      5          6           0      -27.389166    2.454473   -2.649028
      6          7           0      -27.032967   -1.203895    1.158949
      7          6           0      -25.714554   -1.522000    0.921516
      8          6           0      -25.185569   -2.436545    2.029691
      9          6           0      -26.503658   -2.925604    2.691273
     10          6           0      -27.539459   -1.958989    2.180316
     11          6           0      -26.973046   -4.410530    2.429659
     12          6           0      -24.240558   -1.716978    3.006005
     13          6           0      -23.562742   -2.582877    3.997939
     14          1           0      -22.235258   -2.031150    4.644837
     15          7           0      -29.917085   -0.272841    1.145345
     16          6           0      -29.941846   -1.148995    2.241630
     17          6           0      -31.233629   -1.049036    2.861636
     18          6           0      -31.943115    0.007749    2.180498
     19          6           0      -31.063317    0.377541    1.018350
     20          6           0      -31.622680   -1.846362    4.137100
     21          6           0      -33.334548    0.482105    2.611651
     22          8           0      -33.981506   -0.105941    3.462332
     23          6           0      -33.913693    1.684792    1.970070
     24          7           0      -29.287542    1.506781   -1.364318
     25          6           0      -30.559795    1.801615   -1.076360
     26          6           0      -31.020273    3.059044   -1.919322
     27          6           0      -29.757471    3.507760   -2.750698
     28          6           0      -28.681830    2.431849   -2.178550
     29          6           0      -32.320665    2.925439   -2.754657
     30          6           0      -29.366514    4.956571   -2.388619
     31          6           0      -28.685096    5.749063   -3.510814
     32          7           0      -26.577593    0.680961   -1.241748
     33          6           0      -26.363161    1.567404   -2.259769
     34          6           0      -24.975616    1.422862   -2.716170
     35          6           0      -24.463524    0.394661   -1.971223
     36          6           0      -25.414129    0.011685   -1.052351
     37          6           0      -24.327439    2.172276   -3.884758
     38          6           0      -23.278211   -0.370496   -1.725868
     39          8           0      -22.195101   -0.377627   -2.257097
     40          6           0      -23.588702   -1.305008   -0.509182
     41          6           0      -23.519301   -2.710779   -0.994399
     42          8           0      -24.052502   -3.170504   -1.965893
     43          8           0      -22.828026   -3.478197   -0.040912
     44          6           0      -22.741203   -4.883372   -0.319998
     45          1           0      -28.926459   -2.678254    3.470657
     46          1           0      -32.329784    1.781222   -0.048052
     47          1           0      -27.080537    3.143224   -3.438380
     48          1           0      -24.731848   -3.285941    1.520840
     49          1           0      -26.565187   -2.809609    3.772771
     50          1           0      -27.157452   -4.806081    3.428250
     51          1           0      -26.448988   -4.983380    1.664135
     52          1           0      -27.967396   -4.342447    1.988616
     53          1           0      -24.712801   -0.995621    3.673440
     54          1           0      -23.490957   -1.155628    2.448146
     55          1           0      -23.357808   -3.528714    3.496447
     56          1           0      -24.268782   -2.827690    4.791270
     57          1           0      -31.549117   -1.015596    4.839619
     58          1           0      -30.881394   -2.558405    4.500422
     59          1           0      -32.573575   -2.366187    4.255511
     60          1           0      -33.123350    2.433060    2.029553
     61          1           0      -34.745572    2.033427    2.582273
     62          1           0      -34.139677    1.346436    0.958560
     63          1           0      -31.257795    3.827605   -1.183253
     64          1           0      -29.846763    3.390271   -3.830195
     65          1           0      -33.102354    3.496846   -2.253090
     66          1           0      -32.534591    1.866430   -2.895138
     67          1           0      -32.196671    3.433038   -3.711228
     68          1           0      -28.706646    4.858349   -1.527004
     69          1           0      -30.187932    5.552874   -1.990878
     70          1           0      -29.335487    6.617195   -3.623139
     71          1           0      -28.527259    5.187853   -4.431894
     72          1           0      -27.718597    6.124829   -3.174766
     73          1           0      -23.323243    2.559141   -3.714664
     74          1           0      -25.054114    2.963502   -4.070678
     75          1           0      -24.457496    1.532775   -4.757955
     76          1           0      -22.818338   -1.102256    0.234913
     77          1           0      -21.700570   -5.080699   -0.577544
     78          1           0      -23.380218   -5.317457   -1.089353
     79          1           0      -23.012633   -5.410998    0.593952
     80         12           0       27.262423    0.646826    0.530635
     81          6           0       27.765164   -2.731428   -0.557601
     82          6           0       24.845036    0.945990   -1.671255
     83          6           0       27.504957    3.903818    1.094205
     84          6           0       30.242292    0.145281    2.627674
     85          7           0       26.383071   -0.763564   -0.909442
     86          6           0       26.741156   -2.087371   -1.233258
     87          6           0       25.858512   -2.724349   -2.372264
     88          6           0       24.859952   -1.438027   -2.636615
     89          6           0       25.345624   -0.339157   -1.696610
     90          6           0       24.899996   -0.943732   -4.146094
     91          6           0       25.149327   -4.076134   -2.012138
     92          6           0       23.995327   -4.481649   -2.921256
     93          1           0       24.251259   -5.747930   -3.758879
     94          7           0       26.229628    2.200043   -0.125325
     95          6           0       25.206848    2.195504   -1.044463
     96          6           0       24.641449    3.512660   -1.247599
     97          6           0       25.447587    4.370325   -0.398967
     98          6           0       26.417054    3.452503    0.298699
     99          6           0       23.483264    3.849900   -2.063232
    100          6           0       25.358396    5.867251   -0.157855
    101          8           0       26.006807    6.455994    0.661085
    102          6           0       24.440931    6.602575   -1.098336
    103          7           0       28.718831    1.868746    1.651313
    104          6           0       28.537950    3.210907    1.734898
    105          6           0       29.582587    3.854262    2.685655
    106          6           0       30.339409    2.601474    3.248929
    107          6           0       29.702887    1.442433    2.506331
    108          6           0       30.559057    4.927301    2.094308
    109          6           0       30.247163    2.376976    4.799514
    110          6           0       31.173673    3.310794    5.609309
    111          7           0       28.732230   -0.884733    0.971960
    112          6           0       29.782057   -0.968473    1.857316
    113          6           0       30.283730   -2.284926    1.849843
    114          6           0       29.612557   -2.994267    0.925774
    115          6           0       28.650638   -2.104643    0.358250
    116          6           0       31.361347   -2.724353    2.832483
    117          6           0       29.446515   -4.251813    0.190052
    118          8           0       30.049763   -5.290768    0.269284
    119          6           0       28.223468   -4.089591   -0.833057
    120          6           0       28.796417   -4.106657   -2.214289
    121          8           0       29.251125   -3.226747   -2.910016
    122          8           0       28.668783   -5.417622   -2.628663
    123          6           0       29.142692   -5.741039   -3.995432
    124          1           0       24.066641    1.157970   -2.407043
    125          1           0       27.625343    4.989533    1.119283
    126          1           0       31.037798    0.134097    3.376362
    127          1           0       26.481351   -2.810794   -3.262754
    128          1           0       23.838022   -1.762986   -2.439875
    129          1           0       23.883710   -0.751514   -4.489713
    130          1           0       25.411079   -1.554095   -4.890164
    131          1           0       25.352959    0.045374   -4.206535
    132          1           0       24.876056   -3.870169   -0.976426
    133          1           0       25.762890   -4.970300   -1.899928
    134          1           0       23.781179   -3.664223   -3.609198
    135          1           0       23.153635   -4.785364   -2.299445
    136          1           0       22.803229    4.174746   -1.275782
    137          1           0       23.143463    2.989065   -2.639282
    138          1           0       23.577718    4.673023   -2.771213
    139          1           0       23.455225    6.693045   -0.642136
    140          1           0       24.587472    6.340705   -2.146617
    141          1           0       24.955984    7.551702   -1.243893
    142          1           0       29.010112    4.169041    3.558682
    143          1           0       31.363095    2.608991    2.873958
    144          1           0       31.624060    4.706684    2.172006
    145          1           0       30.452539    5.795946    2.743704
    146          1           0       30.390457    5.187474    1.049333
    147          1           0       30.545881    1.355699    5.033194
    148          1           0       29.189157    2.497794    5.036288
    149          1           0       31.983817    3.681407    4.980986
    150          1           0       31.519373    2.721369    6.458445
    151          1           0       30.688112    4.217330    5.971824
    152          1           0       31.302840   -3.794953    3.028988
    153          1           0       31.261513   -2.138685    3.746393
    154          1           0       32.347689   -2.438796    2.466179
    155          1           0       27.470449   -4.864564   -0.687992
    156          1           0       29.631243   -6.711680   -3.911051
    157          1           0       29.839460   -5.014345   -4.412935
    158          1           0       28.180804   -5.783709   -4.507305
 ---------------------------------------------------------------------

 SCF Done:  E(RCAM-B3LYP) =  -4069.82294307     A.U. after   18 cycles

 Excitation energies and oscillator strengths:

 Excited State   1:      Singlet-A      1.6973 eV  730.49 nm  f=0.3981  <S**2>=0.000
     310 -> 316        0.17775
     312 -> 314        0.68636
     310 <- 316        0.10765
 This state for optimization and/or second-order correction.
 Total Energy, E(TD-HF/TD-DFT) =  -4069.76056935
 Copying the excited state density for this state as the 1-particle RhoCI density.

 Excited State   2:      Singlet-A      1.7656 eV  702.24 nm  f=0.3954  <S**2>=0.000
     309 -> 315        0.17238
     311 -> 313        0.68748
     309 <- 315        0.10344

 Excited State   3:      Singlet-A      2.2114 eV  560.66 nm  f=0.1388  <S**2>=0.000
     310 -> 314        0.65083
     312 -> 316       -0.26495

 Excited State   4:      Singlet-A      2.2943 eV  540.41 nm  f=0.1178  <S**2>=0.000
     309 -> 313        0.63735
     311 -> 315       -0.29069

 Excited State   5:      Singlet-A      3.0701 eV  403.85 nm  f=0.0000  <S**2>=0.000
     312 -> 313        0.70710

 The electronic state is 1-A.
 Alpha  occ. eigenvalues --  -46.89682 -46.88560 -19.24967 -19.23831 -19.20519
 Alpha  occ. eigenvalues --  -19.19911 -19.19098 -19.18937 -19.18711 -19.18549
 Alpha  occ. eigenvalues --  -14.42678 -14.42366 -14.42179 -14.41310 -14.40247
 Alpha  occ. eigenvalues --  -14.39616 -14.39116 -14.38838 -10.39528 -10.38964
 Alpha  occ. eigenvalues --  -10.35256 -10.34879 -10.34759 -10.34176 -10.32381
 Alpha  occ. eigenvalues --  -10.31614 -10.31247 -10.31198 -10.31193 -10.31140
 Alpha  occ. eigenvalues --  -10.31097 -10.30900 -10.30854 -10.30583 -10.30357
 Alpha  occ. eigenvalues --  -10.30177 -10.30095 -10.30093 -10.29563 -10.29367
 Alpha  occ. eigenvalues --  -10.29254 -10.29078 -10.28895 -10.28847 -10.28752
 Alpha  occ. eigenvalues --  -10.28610 -10.28476 -10.28369 -10.28270 -10.28250
 Alpha  occ. eigenvalues --  -10.28206 -10.28190 -10.27924 -10.27808 -10.27766
 Alpha  occ. eigenvalues --  -10.27765 -10.27738 -10.27657 -10.27545 -10.27433
 Alpha  occ. eigenvalues --  -10.27171 -10.26983 -10.26942 -10.26931 -10.26820
 Alpha  occ. eigenvalues --  -10.26811 -10.26768 -10.26757 -10.26741 -10.26728
 Alpha  occ. eigenvalues --  -10.26695 -10.26555 -10.26518 -10.26427 -10.26261
 Alpha  occ. eigenvalues --  -10.26142 -10.26095 -10.26080 -10.25871 -10.25700
 Alpha  occ. eigenvalues --  -10.25646 -10.25589 -10.25555 -10.25538 -10.24696
 Alpha  occ. eigenvalues --  -10.24005  -3.18103  -3.17102  -1.93009  -1.92561
 Alpha  occ. eigenvalues --   -1.92390  -1.91999  -1.91539  -1.91427  -1.16641
 Alpha  occ. eigenvalues --   -1.15694  -1.11356  -1.10780  -1.10359  -1.10137
 Alpha  occ. eigenvalues --   -1.08851  -1.07455  -1.04615  -1.03811  -1.03797
 Alpha  occ. eigenvalues --   -1.03743  -1.03286  -1.02845  -1.02492  -1.01581
 Alpha  occ. eigenvalues --   -0.93287  -0.93004  -0.89437  -0.89254  -0.88920
 Alpha  occ. eigenvalues --   -0.88859  -0.88238  -0.88114  -0.88110  -0.87136
 Alpha  occ. eigenvalues --   -0.86834  -0.86480  -0.86011  -0.85969  -0.85235
 Alpha  occ. eigenvalues --   -0.84069  -0.83883  -0.83185  -0.83181  -0.82608
 Alpha  occ. eigenvalues --   -0.82166  -0.82038  -0.81322  -0.80874  -0.80699
 Alpha  occ. eigenvalues --   -0.80065  -0.78102  -0.77782  -0.77373  -0.77133
 Alpha  occ. eigenvalues --   -0.76964  -0.76631  -0.76227  -0.75548  -0.75532
 Alpha  occ. eigenvalues --   -0.74808  -0.73269  -0.72759  -0.72068  -0.71311
 Alpha  occ. eigenvalues --   -0.69632  -0.69358  -0.69093  -0.68740  -0.67810
 Alpha  occ. eigenvalues --   -0.67710  -0.66946  -0.66787  -0.66119  -0.65602
 Alpha  occ. eigenvalues --   -0.65033  -0.65002  -0.64637  -0.64598  -0.64403
 Alpha  occ. eigenvalues --   -0.63878  -0.62720  -0.61449  -0.60261  -0.60069
 Alpha  occ. eigenvalues --   -0.59920  -0.59463  -0.59335  -0.58878  -0.58808
 Alpha  occ. eigenvalues --   -0.58480  -0.58321  -0.57832  -0.57594  -0.56862
 Alpha  occ. eigenvalues --   -0.56526  -0.56118  -0.55925  -0.55758  -0.55499
 Alpha  occ. eigenvalues --   -0.54990  -0.54952  -0.54454  -0.54411  -0.54269
 Alpha  occ. eigenvalues --   -0.54119  -0.54048  -0.53648  -0.53595  -0.53340
 Alpha  occ. eigenvalues --   -0.53171  -0.52668  -0.52647  -0.52367  -0.51938
 Alpha  occ. eigenvalues --   -0.51929  -0.51745  -0.51678  -0.51610  -0.51326
 Alpha  occ. eigenvalues --   -0.50985  -0.50863  -0.50759  -0.50530  -0.50388
 Alpha  occ. eigenvalues --   -0.50309  -0.50179  -0.49899  -0.49790  -0.49663
 Alpha  occ. eigenvalues --   -0.49472  -0.49339  -0.49144  -0.49069  -0.48880
 Alpha  occ. eigenvalues --   -0.48817  -0.48395  -0.48320  -0.48124  -0.47958
 Alpha  occ. eigenvalues --   -0.47801  -0.47738  -0.47562  -0.47401  -0.47177
 Alpha  occ. eigenvalues --   -0.47117  -0.47043  -0.46745  -0.46488  -0.46425
 Alpha  occ. eigenvalues --   -0.46327  -0.46171  -0.45882  -0.45830  -0.45733
 Alpha  occ. eigenvalues --   -0.45436  -0.45349  -0.45289  -0.45164  -0.45154
 Alpha  occ. eigenvalues --   -0.45030  -0.44833  -0.44707  -0.44696  -0.44190
 Alpha  occ. eigenvalues --   -0.43969  -0.43936  -0.43801  -0.43715  -0.43465
 Alpha  occ. eigenvalues --   -0.43341  -0.43258  -0.43174  -0.42978  -0.42748
 Alpha  occ. eigenvalues --   -0.42738  -0.42538  -0.42405  -0.42317  -0.42060
 Alpha  occ. eigenvalues --   -0.42054  -0.41884  -0.41805  -0.41608  -0.41562
 Alpha  occ. eigenvalues --   -0.41105  -0.40936  -0.40765  -0.40631  -0.40463
 Alpha  occ. eigenvalues --   -0.40286  -0.39942  -0.39736  -0.39330  -0.38840
 Alpha  occ. eigenvalues --   -0.38777  -0.38092  -0.38068  -0.37742  -0.37697
 Alpha  occ. eigenvalues --   -0.36998  -0.36930  -0.36543  -0.36530  -0.36331
 Alpha  occ. eigenvalues --   -0.36112  -0.35722  -0.35271  -0.34627  -0.34268
 Alpha  occ. eigenvalues --   -0.33926  -0.33745  -0.32580  -0.31786  -0.31301
 Alpha  occ. eigenvalues --   -0.31056  -0.30820  -0.30678  -0.30558  -0.30145
 Alpha  occ. eigenvalues --   -0.30099  -0.29969  -0.29730  -0.24690  -0.23578
 Alpha  occ. eigenvalues --   -0.21684  -0.20950
 Alpha virt. eigenvalues --   -0.09053  -0.08522  -0.01961  -0.01119   0.00892
 Alpha virt. eigenvalues --    0.00897   0.02010   0.02477   0.02686   0.02707
 Alpha virt. eigenvalues --    0.04392   0.04957   0.05377   0.05802   0.05863

 Mulliken charges:
               1
     1  Mg   0.819424
     2  C    0.006833
     3  C   -0.062997
     4  C   -0.089726
     5  C   -0.063108
     6  N   -0.264020
     7  C   -0.106189
     8  C    0.076807
     9  C   -0.101770
    10  C    0.006178
    11  C    0.083465
    12  C    0.079423
    13  C   -0.054108
    14  H    0.025120
    15  N   -0.352383
    16  C    0.164000
    17  C   -0.119927
    18  C   -0.079697
    19  C    0.210345
    20  C    0.108907
    21  C   -0.024732
    22  O   -0.198822
    23  C    0.067341
    24  N   -0.318211
    25  C    0.038798
    26  C   -0.072154
    27  C   -0.045991
    28  C    0.073381
    29  C    0.071527
    30  C    0.009601
    31  C    0.015624
    32  N   -0.337726
    33  C    0.071522
    34  C   -0.219931
    35  C    0.070806
    36  C    0.099110
    37  C    0.148639
    38  C    0.009753
    39  O   -0.147676
    40  C   -0.000613
    41  C    0.189457
    42  O   -0.181727
    43  O   -0.348342
    44  C    0.164114
    45  H   -0.031011
    46  H   -0.042626
    47  H   -0.031356
    48  H   -0.002956
    49  H    0.005809
    50  H    0.021138
    51  H    0.026170
    52  H    0.008161
    53  H    0.004405
    54  H    0.011764
    55  H    0.014315
    56  H    0.017999
    57  H    0.035813
    58  H   -0.003332
    59  H    0.050489
    60  H    0.031107
    61  H    0.030886
    62  H    0.058554
    63  H    0.015113
    64  H    0.017523
    65  H    0.014332
    66  H    0.028273
    67  H    0.012883
    68  H    0.008923
    69  H    0.006512
    70  H    0.015389
    71  H    0.022921
    72  H    0.016379
    73  H    0.047898
    74  H   -0.016024
    75  H    0.035043
    76  H    0.042133
    77  H    0.038388
    78  H    0.044918
    79  H    0.023746
    80  Mg   0.840114
    81  C   -0.023605
    82  C   -0.059936
    83  C   -0.059493
    84  C   -0.088251
    85  N   -0.312909
    86  C   -0.052851
    87  C    0.013271
    88  C   -0.070179
    89  C    0.084886
    90  C    0.032869
    91  C    0.022274
    92  C   -0.067097
    93  H    0.013117
    94  N   -0.403464
    95  C    0.093551
    96  C   -0.114426
    97  C   -0.089667
    98  C    0.139389
    99  C    0.129798
   100  C   -0.007909
   101  O   -0.175147
   102  C    0.037071
   103  N   -0.268504
   104  C    0.008199
   105  C    0.022476
   106  C   -0.064389
   107  C   -0.003224
   108  C    0.067815
   109  C    0.012963
   110  C    0.024894
   111  N   -0.316140
   112  C    0.150947
   113  C   -0.226525
   114  C    0.063320
   115  C    0.099518
   116  C    0.138228
   117  C    0.034459
   118  O   -0.135693
   119  C   -0.039652
   120  C    0.217444
   121  O   -0.203414
   122  O   -0.356816
   123  C    0.167131
   124  H   -0.052213
   125  H   -0.001831
   126  H   -0.022111
   127  H    0.024662
   128  H    0.022147
   129  H    0.009530
   130  H    0.028692
   131  H    0.021733
   132  H    0.009442
   133  H    0.037182
   134  H    0.040133
   135  H    0.040347
   136  H    0.035127
   137  H    0.015726
   138  H    0.025414
   139  H    0.055359
   140  H    0.027326
   141  H    0.014939
   142  H    0.011965
   143  H    0.007775
   144  H    0.012399
   145  H    0.017592
   146  H    0.029880
   147  H    0.004772
   148  H    0.008086
   149  H    0.011337
   150  H    0.020279
   151  H    0.015880
   152  H    0.034516
   153  H    0.007368
   154  H    0.021756
   155  H    0.051808
   156  H    0.045610
   157  H    0.055974
   158  H    0.036958
 Sum of Mulliken charges =  -0.00000

 Dipole moment (field-independent basis, Debye):
    X=             -5.8761    Y=              2.2499    Z=             -0.1418  Tot=              6.2937
 Quadrupole moment (field-independent basis, Debye-Ang):
   XX=           -571.3515   YY=           -504.2533   ZZ=           -496.5643
   XY=              6.3615   XZ=             11.9148   YZ=            -13.8556

 Normal termination of Gaussian 16 at Thu Sep 16 11:49:45 2021.
