 Gaussian 16, Revision A.03,
 Gaussian 16:  ES64L-G16RevA.03 25-Dec-2016

 -----------------------------------
 #p cam-b3lyp/Def2SVP td=(nstates=5)
 -----------------------------------

 --------------------------------
 TDDFT excited states in gaussian
 --------------------------------
 Symbolic Z-matrix:
 Charge =  0 Multiplicity = 1

                         Standard orientation:
 ---------------------------------------------------------------------
 Center     Atomic      Atomic             Coordinates (Angstroms)
 Number     Number       Type             X           Y           Z
 ---------------------------------------------------------------------
      1         12           0       28.942696   -0.400346   -0.682980
      2          6           0       29.415911    1.830843    2.075658
      3          6           0       28.234697   -2.835245    1.600234
      4          6           0       28.964713   -2.490917   -3.067440
      5          6           0       30.758315    1.852439   -2.625697
      6          7           0       28.865481   -0.381365    1.529332
      7          6           0       29.008900    0.552606    2.464372
      8          6           0       28.612459    0.065425    3.890157
      9          6           0       28.820688   -1.502234    3.687467
     10          6           0       28.592232   -1.585812    2.188552
     11          6           0       30.238359   -1.973371    3.995269
     12          6           0       27.125028    0.404978    4.242268
     13          6           0       26.754061    0.259580    5.720982
     14          1           0       25.800957    1.194845    6.299101
     15          7           0       28.188275   -2.222678   -0.796128
     16          6           0       27.952024   -3.066942    0.236679
     17          6           0       27.389084   -4.296169   -0.362303
     18          6           0       27.494012   -4.170286   -1.842585
     19          6           0       28.253518   -2.951993   -1.962127
     20          6           0       26.786872   -5.404134    0.446094
     21          6           0       26.998817   -5.019596   -2.970232
     22          8           0       27.397608   -4.852698   -4.173430
     23          6           0       26.090255   -6.123559   -2.611314
     24          7           0       29.928581   -0.445991   -2.522432
     25          6           0       29.717674   -1.438448   -3.393943
     26          6           0       30.302124   -1.118422   -4.737796
     27          6           0       30.748860    0.413203   -4.672187
     28          6           0       30.397306    0.698330   -3.191180
     29          6           0       31.496239   -1.980218   -5.170703
     30          6           0       30.180826    1.358607   -5.760290
     31          6           0       28.688812    1.519160   -5.572627
     32          7           0       29.772682    1.586933   -0.412995
     33          6           0       30.510761    2.326611   -1.348296
     34          6           0       30.948592    3.562239   -0.673317
     35          6           0       30.445563    3.447109    0.621114
     36          6           0       29.760717    2.205535    0.754430
     37          6           0       31.762186    4.580312   -1.244305
     38          6           0       30.348377    4.073017    1.929797
     39          8           0       30.656363    5.173523    2.389714
     40          6           0       29.782639    2.997468    2.958856
     41          6           0       28.682942    3.656297    3.746207
     42          8           0       27.616381    3.996131    3.194549
     43          8           0       28.959520    3.567497    5.056230
     44          6           0       27.893083    4.176232    5.895461
     45          1           0       28.227079   -3.730150    2.225557
     46          1           0       28.904018   -3.133129   -3.948528
     47          1           0       31.256239    2.640610   -3.193421
     48          1           0       29.259186    0.426535    4.690012
     49          1           0       28.068117   -2.084744    4.218543
     50          1           0       30.906608   -1.132220    4.179196
     51          1           0       30.558633   -2.528219    3.113191
     52          1           0       30.238495   -2.690376    4.816658
     53          1           0       26.471538   -0.353657    3.811587
     54          1           0       26.867816    1.409031    3.903083
     55          1           0       27.642085    0.182114    6.348932
     56          1           0       26.244763   -0.695077    5.853067
     57          1           0       27.003424   -5.288926    1.507403
     58          1           0       27.301604   -6.321732    0.161887
     59          1           0       25.717469   -5.510871    0.263565
     60          1           0       26.593314   -6.790334   -1.910678
     61          1           0       25.768399   -6.566419   -3.553192
     62          1           0       25.229730   -5.714457   -2.081144
     63          1           0       29.560362   -1.240705   -5.525999
     64          1           0       31.829654    0.528054   -4.758020
     65          1           0       31.344465   -2.493167   -6.120731
     66          1           0       31.706231   -2.690802   -4.371788
     67          1           0       32.443676   -1.446457   -5.240555
     68          1           0       30.335483    0.932625   -6.751030
     69          1           0       30.636178    2.348963   -5.750324
     70          1           0       28.284067    0.644493   -6.080535
     71          1           0       28.342939    2.439465   -6.044455
     72          1           0       28.409414    1.443952   -4.521549
     73          1           0       31.315986    5.529495   -0.947783
     74          1           0       31.810283    4.486917   -2.329002
     75          1           0       32.717407    4.368429   -0.764185
     76          1           0       30.617844    2.699941    3.592126
     77          1           0       28.370304    4.925377    6.527343
     78          1           0       27.378519    3.351548    6.388943
     79          1           0       27.157351    4.787397    5.371520
     80         12           0      -29.599965    0.471833    0.216474
     81          6           0      -26.599179   -1.356790    0.541747
     82          6           0      -27.771967    3.122379   -1.125431
     83          6           0      -32.530188    1.721651   -0.994364
     84          6           0      -31.297622   -2.549456    1.121808
     85          7           0      -27.472609    0.820124   -0.187963
     86          6           0      -26.458207   -0.052168   -0.007919
     87          6           0      -25.116434    0.523343   -0.567040
     88          6           0      -25.510143    2.064312   -0.719080
     89          6           0      -27.071266    2.047651   -0.643501
     90          6           0      -25.026376    3.111263    0.309791
     91          6           0      -24.778658   -0.199640   -1.925506
     92          6           0      -23.260849   -0.442462   -2.153475
     93          1           0      -22.745137   -0.203489   -3.630833
     94          7           0      -30.135446    2.329204   -0.755338
     95          6           0      -29.214892    3.261371   -1.154903
     96          6           0      -29.944994    4.347478   -1.689246
     97          6           0      -31.325387    3.992713   -1.750789
     98          6           0      -31.417094    2.641009   -1.103936
     99          6           0      -29.336315    5.631372   -2.201669
    100          6           0      -32.409517    4.735630   -2.454334
    101          8           0      -32.181089    5.730680   -3.123244
    102          6           0      -33.793535    4.340074   -2.483567
    103          7           0      -31.630069   -0.399815    0.000267
    104          6           0      -32.682832    0.439841   -0.392540
    105          6           0      -34.002161   -0.230959   -0.169620
    106          6           0      -33.638736   -1.631981    0.447629
    107          6           0      -32.124416   -1.556523    0.539111
    108          6           0      -34.865970    0.655499    0.736630
    109          6           0      -34.330698   -2.844898   -0.281112
    110          6           0      -35.180333   -3.746588    0.562137
    111          7           0      -29.097658   -1.583802    0.779344
    112          6           0      -29.902832   -2.629872    1.157990
    113          6           0      -29.084254   -3.757559    1.654967
    114          6           0      -27.783891   -3.276180    1.348064
    115          6           0      -27.851488   -1.964185    0.918161
    116          6           0      -29.521230   -5.129361    2.144447
    117          6           0      -26.409507   -3.694511    1.269081
    118          8           0      -25.898238   -4.798943    1.511347
    119          6           0      -25.561324   -2.520795    0.780060
    120          6           0      -24.477900   -2.210727    1.731458
    121          8           0      -23.340599   -2.240440    1.427732
    122          8           0      -24.920208   -1.701579    2.918098
    123          6           0      -23.791478   -1.171828    3.713611
    124          1           0      -27.225358    4.000301   -1.477351
    125          1           0      -33.442778    2.223094   -1.320409
    126          1           0      -31.631161   -3.555510    1.386754
    127          1           0      -24.337474    0.344488    0.174336
    128          1           0      -25.455919    2.460340   -1.733011
    129          1           0      -24.836540    2.636827    1.273261
    130          1           0      -25.675564    3.972681    0.467005
    131          1           0      -24.066780    3.466901   -0.063925
    132          1           0      -25.211694    0.339076   -2.768816
    133          1           0      -25.295885   -1.156888   -1.859575
    134          1           0      -23.129618   -1.486771   -1.869565
    135          1           0      -22.802268    0.186940   -1.390489
    136          1           0      -29.996155    6.498257   -2.238905
    137          1           0      -28.999636    5.367689   -3.203911
    138          1           0      -28.361948    5.905095   -1.796917
    139          1           0      -34.143477    4.346526   -1.450494
    140          1           0      -33.916577    3.370713   -2.967434
    141          1           0      -34.348730    5.072832   -3.069238
    142          1           0      -34.471244   -0.480064   -1.121164
    143          1           0      -33.773715   -1.761254    1.521712
    144          1           0      -34.489938    1.674833    0.827451
    145          1           0      -34.910101    0.269816    1.755159
    146          1           0      -35.815003    0.863016    0.243181
    147          1           0      -33.504971   -3.401847   -0.723941
    148          1           0      -35.072739   -2.550444   -1.022355
    149          1           0      -34.805593   -4.760372    0.423609
    150          1           0      -36.218608   -3.753933    0.229908
    151          1           0      -35.254358   -3.420876    1.599743
    152          1           0      -29.710909   -5.826883    1.328360
    153          1           0      -30.367643   -5.091775    2.831365
    154          1           0      -28.602360   -5.479866    2.614309
    155          1           0      -25.010981   -2.814207   -0.112958
    156          1           0      -24.199656   -0.779415    4.645374
    157          1           0      -23.265034   -0.391731    3.163871
    158          1           0      -23.099258   -1.932424    4.073107
 ---------------------------------------------------------------------

 SCF Done:  E(RCAM-B3LYP) =  -4069.78893570     A.U. after   19 cycles

 Excitation energies and oscillator strengths:

 Excited State   1:      Singlet-A      1.6798 eV  738.08 nm  f=0.2299  <S**2>=0.000
     310 -> 316        0.16797
     311 -> 313        0.19962
     312 -> 314        0.65612
     310 <- 316        0.10060
 This state for optimization and/or second-order correction.
 Total Energy, E(TD-HF/TD-DFT) =  -4069.72720350
 Copying the excited state density for this state as the 1-particle RhoCI density.

 Excited State   2:      Singlet-A      1.6805 eV  737.79 nm  f=0.5659  <S**2>=0.000
     309 -> 315        0.16543
     311 -> 313        0.65738
     312 -> 314       -0.19921
     309 <- 315        0.10198

 Excited State   3:      Singlet-A      2.1926 eV  565.48 nm  f=0.0987  <S**2>=0.000
     310 -> 314        0.64071
     312 -> 316       -0.27831

 Excited State   4:      Singlet-A      2.2017 eV  563.14 nm  f=0.1137  <S**2>=0.000
     309 -> 313        0.64207
     311 -> 315       -0.28113

 Excited State   5:      Singlet-A      3.0229 eV  410.15 nm  f=0.0000  <S**2>=0.000
     312 -> 313        0.70711

 The electronic state is 1-A.
 Alpha  occ. eigenvalues --  -46.90857 -46.87766 -19.26254 -19.25133 -19.19938
 Alpha  occ. eigenvalues --  -19.18989 -19.18864 -19.18783 -19.18140 -19.17340
 Alpha  occ. eigenvalues --  -14.42995 -14.42722 -14.42420 -14.41419 -14.39926
 Alpha  occ. eigenvalues --  -14.39372 -14.39320 -14.38556 -10.39049 -10.38751
 Alpha  occ. eigenvalues --  -10.35417 -10.34793 -10.34360 -10.33523 -10.32263
 Alpha  occ. eigenvalues --  -10.32004 -10.31880 -10.31843 -10.31649 -10.31375
 Alpha  occ. eigenvalues --  -10.31083 -10.31008 -10.30878 -10.30540 -10.30477
 Alpha  occ. eigenvalues --  -10.30203 -10.30176 -10.29891 -10.29878 -10.29600
 Alpha  occ. eigenvalues --  -10.29328 -10.29224 -10.29103 -10.29053 -10.28929
 Alpha  occ. eigenvalues --  -10.28792 -10.28718 -10.28526 -10.28506 -10.28480
 Alpha  occ. eigenvalues --  -10.28444 -10.28334 -10.28189 -10.28168 -10.28086
 Alpha  occ. eigenvalues --  -10.27768 -10.27763 -10.27697 -10.27560 -10.27554
 Alpha  occ. eigenvalues --  -10.27499 -10.27471 -10.27450 -10.27420 -10.27373
 Alpha  occ. eigenvalues --  -10.27128 -10.27061 -10.26987 -10.26829 -10.26680
 Alpha  occ. eigenvalues --  -10.26673 -10.26536 -10.26411 -10.26377 -10.26205
 Alpha  occ. eigenvalues --  -10.26154 -10.25989 -10.25815 -10.25769 -10.25470
 Alpha  occ. eigenvalues --  -10.25407 -10.25308 -10.25278 -10.24803 -10.24757
 Alpha  occ. eigenvalues --  -10.24656  -3.19004  -3.16509  -1.93918  -1.93439
 Alpha  occ. eigenvalues --   -1.93299  -1.91391  -1.90977  -1.90819  -1.17994
 Alpha  occ. eigenvalues --   -1.16603  -1.09571  -1.09062  -1.08976  -1.08598
 Alpha  occ. eigenvalues --   -1.07185  -1.06612  -1.05134  -1.04550  -1.03770
 Alpha  occ. eigenvalues --   -1.03730  -1.03455  -1.03203  -1.02556  -1.02381
 Alpha  occ. eigenvalues --   -0.92650  -0.91942  -0.89489  -0.89444  -0.89157
 Alpha  occ. eigenvalues --   -0.89040  -0.88257  -0.88256  -0.88082  -0.87840
 Alpha  occ. eigenvalues --   -0.87642  -0.87243  -0.87036  -0.85844  -0.84951
 Alpha  occ. eigenvalues --   -0.84902  -0.84676  -0.83906  -0.82936  -0.82734
 Alpha  occ. eigenvalues --   -0.82618  -0.82535  -0.81555  -0.80949  -0.80573
 Alpha  occ. eigenvalues --   -0.80566  -0.78766  -0.78680  -0.77634  -0.77188
 Alpha  occ. eigenvalues --   -0.76904  -0.76889  -0.76518  -0.75893  -0.75453
 Alpha  occ. eigenvalues --   -0.74868  -0.73167  -0.72744  -0.72540  -0.71642
 Alpha  occ. eigenvalues --   -0.69877  -0.69395  -0.69286  -0.68842  -0.67980
 Alpha  occ. eigenvalues --   -0.67611  -0.67188  -0.66920  -0.66372  -0.65734
 Alpha  occ. eigenvalues --   -0.65256  -0.65017  -0.64823  -0.64671  -0.64590
 Alpha  occ. eigenvalues --   -0.64239  -0.63330  -0.62267  -0.60411  -0.60101
 Alpha  occ. eigenvalues --   -0.60045  -0.59774  -0.59015  -0.58957  -0.58910
 Alpha  occ. eigenvalues --   -0.58473  -0.58332  -0.57554  -0.57278  -0.57100
 Alpha  occ. eigenvalues --   -0.56531  -0.56279  -0.56103  -0.55948  -0.55578
 Alpha  occ. eigenvalues --   -0.55489  -0.55309  -0.55157  -0.54575  -0.54493
 Alpha  occ. eigenvalues --   -0.53864  -0.53528  -0.53404  -0.53268  -0.53218
 Alpha  occ. eigenvalues --   -0.53191  -0.52884  -0.52846  -0.52725  -0.52677
 Alpha  occ. eigenvalues --   -0.52408  -0.52288  -0.51885  -0.51779  -0.51586
 Alpha  occ. eigenvalues --   -0.51492  -0.51354  -0.51166  -0.50911  -0.50540
 Alpha  occ. eigenvalues --   -0.50068  -0.50001  -0.49887  -0.49878  -0.49587
 Alpha  occ. eigenvalues --   -0.49484  -0.49290  -0.49184  -0.49066  -0.49060
 Alpha  occ. eigenvalues --   -0.48641  -0.48563  -0.48431  -0.48420  -0.48415
 Alpha  occ. eigenvalues --   -0.48226  -0.47664  -0.47549  -0.47351  -0.47266
 Alpha  occ. eigenvalues --   -0.46983  -0.46816  -0.46767  -0.46703  -0.46524
 Alpha  occ. eigenvalues --   -0.46377  -0.46353  -0.46329  -0.46133  -0.45792
 Alpha  occ. eigenvalues --   -0.45779  -0.45171  -0.45158  -0.45110  -0.44876
 Alpha  occ. eigenvalues --   -0.44704  -0.44548  -0.44476  -0.44372  -0.44114
 Alpha  occ. eigenvalues --   -0.44058  -0.44036  -0.43989  -0.43615  -0.43465
 Alpha  occ. eigenvalues --   -0.43355  -0.43350  -0.43023  -0.42997  -0.42900
 Alpha  occ. eigenvalues --   -0.42669  -0.42668  -0.42625  -0.42318  -0.41979
 Alpha  occ. eigenvalues --   -0.41803  -0.41674  -0.41503  -0.41299  -0.41111
 Alpha  occ. eigenvalues --   -0.41047  -0.40838  -0.40813  -0.40792  -0.40541
 Alpha  occ. eigenvalues --   -0.40202  -0.40155  -0.39654  -0.39411  -0.39256
 Alpha  occ. eigenvalues --   -0.38696  -0.38439  -0.37920  -0.37717  -0.37659
 Alpha  occ. eigenvalues --   -0.37290  -0.37257  -0.37233  -0.36909  -0.36683
 Alpha  occ. eigenvalues --   -0.36423  -0.36162  -0.34943  -0.34256  -0.34154
 Alpha  occ. eigenvalues --   -0.33740  -0.33513  -0.33156  -0.31514  -0.31313
 Alpha  occ. eigenvalues --   -0.31005  -0.30994  -0.30411  -0.30027  -0.29999
 Alpha  occ. eigenvalues --   -0.29418  -0.29291  -0.29219  -0.24529  -0.24050
 Alpha  occ. eigenvalues --   -0.21594  -0.21097
 Alpha virt. eigenvalues --   -0.09403  -0.08744  -0.02273  -0.01719  -0.00027
 Alpha virt. eigenvalues --    0.00265   0.01194   0.02230   0.02409   0.03153
 Alpha virt. eigenvalues --    0.04670   0.04749   0.05128   0.05425   0.06067

 Mulliken charges:
               1
     1  Mg   0.838786
     2  C   -0.002932
     3  C   -0.094106
     4  C   -0.045880
     5  C   -0.063954
     6  N   -0.256780
     7  C   -0.052483
     8  C   -0.013990
     9  C   -0.087014
    10  C    0.046336
    11  C    0.104811
    12  C    0.053454
    13  C   -0.071821
    14  H    0.036162
    15  N   -0.433147
    16  C    0.168424
    17  C   -0.177142
    18  C   -0.003991
    19  C    0.148730
    20  C    0.110181
    21  C    0.012298
    22  O   -0.249621
    23  C    0.062468
    24  N   -0.341153
    25  C    0.041259
    26  C   -0.028175
    27  C   -0.023968
    28  C    0.074840
    29  C    0.076176
    30  C    0.035135
    31  C   -0.004505
    32  N   -0.310477
    33  C    0.080410
    34  C   -0.169733
    35  C    0.008350
    36  C    0.082969
    37  C    0.127314
    38  C    0.046112
    39  O   -0.188472
    40  C   -0.005353
    41  C    0.212882
    42  O   -0.257080
    43  O   -0.304811
    44  C    0.157685
    45  H   -0.017602
    46  H   -0.016839
    47  H   -0.041513
    48  H    0.000920
    49  H   -0.004014
    50  H    0.025458
    51  H    0.016437
    52  H    0.016651
    53  H    0.011235
    54  H    0.044134
    55  H    0.017847
    56  H    0.017969
    57  H    0.005878
    58  H    0.026818
    59  H    0.039600
    60  H    0.037336
    61  H    0.035670
    62  H    0.031543
    63  H    0.016567
    64  H    0.009433
    65  H    0.023207
    66  H    0.012538
    67  H    0.004728
    68  H    0.006351
    69  H    0.004710
    70  H    0.008794
    71  H    0.018151
    72  H    0.029001
    73  H    0.047560
    74  H    0.009100
    75  H    0.045977
    76  H    0.035126
    77  H    0.042922
    78  H    0.046415
    79  H    0.053704
    80  Mg   0.801222
    81  C    0.004419
    82  C   -0.071561
    83  C   -0.019783
    84  C   -0.048247
    85  N   -0.286890
    86  C   -0.055434
    87  C   -0.042435
    88  C   -0.052350
    89  C    0.058059
    90  C    0.080542
    91  C    0.048739
    92  C   -0.050671
    93  H    0.026237
    94  N   -0.365266
    95  C    0.114143
    96  C   -0.149642
    97  C   -0.022426
    98  C    0.090956
    99  C    0.140524
   100  C   -0.050236
   101  O   -0.214549
   102  C    0.079034
   103  N   -0.287382
   104  C    0.025738
   105  C   -0.009801
   106  C   -0.012907
   107  C    0.028420
   108  C    0.074429
   109  C    0.039546
   110  C   -0.004092
   111  N   -0.281372
   112  C    0.026155
   113  C   -0.155012
   114  C    0.014934
   115  C    0.076294
   116  C    0.107438
   117  C    0.020266
   118  O   -0.190076
   119  C    0.052729
   120  C    0.149232
   121  O   -0.180135
   122  O   -0.336494
   123  C    0.181930
   124  H   -0.017969
   125  H   -0.053331
   126  H   -0.027250
   127  H    0.012517
   128  H    0.009882
   129  H    0.010232
   130  H    0.025069
   131  H    0.017225
   132  H    0.017876
   133  H    0.012950
   134  H    0.042884
   135  H    0.031785
   136  H    0.047186
   137  H    0.015838
   138  H   -0.004952
   139  H    0.029973
   140  H    0.043487
   141  H    0.024774
   142  H    0.021292
   143  H    0.015154
   144  H    0.014945
   145  H    0.018909
   146  H    0.014609
   147  H    0.016981
   148  H    0.015946
   149  H    0.020660
   150  H    0.008644
   151  H    0.012712
   152  H    0.041376
   153  H    0.029839
   154  H    0.041871
   155  H    0.031439
   156  H    0.027482
   157  H    0.035970
   158  H    0.039771
 Sum of Mulliken charges =  -0.00000

 Dipole moment (field-independent basis, Debye):
    X=             -4.1943    Y=             -3.6810    Z=              4.2379  Tot=              7.0072
 Quadrupole moment (field-independent basis, Debye-Ang):
   XX=           -263.6917   YY=           -560.3620   ZZ=           -493.4386
   XY=            -99.3509   XZ=            -46.4914   YZ=             -9.7343

 Normal termination of Gaussian 16 at Wed Sep  1 13:24:45 2021.
