 Gaussian 16, Revision A.03,
 Gaussian 16:  ES64L-G16RevA.03 25-Dec-2016

 ----------------------------------------------------------
 #p cam-b3lyp/Def2SVP td=(nstates=5) density=(transition=1)
 ----------------------------------------------------------

 --------------------------------
 TDDFT excited states in gaussian
 --------------------------------
 Symbolic Z-matrix:
 Charge =  0 Multiplicity = 1

                         Standard orientation:
 ---------------------------------------------------------------------
 Center     Atomic      Atomic             Coordinates (Angstroms)
 Number     Number       Type             X           Y           Z
 ---------------------------------------------------------------------
      1         12           0      -21.509944    0.011885   -0.443831
      2          6           0      -18.184603   -0.185888    0.484906
      3          6           0      -21.956107   -3.299369    0.751726
      4          6           0      -24.905008    0.319843   -0.791485
      5          6           0      -21.173407    3.374714   -1.155962
      6          7           0      -20.158538   -1.566394    0.380222
      7          6           0      -18.849304   -1.365462    0.764019
      8          6           0      -18.239972   -2.551892    1.601121
      9          6           0      -19.326362   -3.696319    1.328712
     10          6           0      -20.592705   -2.862154    0.734383
     11          6           0      -18.944978   -4.918254    0.409026
     12          6           0      -18.058315   -2.277916    3.052619
     13          6           0      -16.680224   -2.321868    3.684377
     14          1           0      -16.632211   -2.705135    5.172180
     15          7           0      -23.201444   -1.354513   -0.155939
     16          6           0      -23.103828   -2.683961    0.296189
     17          6           0      -24.392924   -3.298124    0.260446
     18          6           0      -25.325427   -2.182470   -0.048545
     19          6           0      -24.502135   -0.969381   -0.344825
     20          6           0      -24.680538   -4.722270    0.747080
     21          6           0      -26.849534   -2.393441   -0.056818
     22          8           0      -27.458319   -3.427952    0.200657
     23          6           0      -27.699693   -1.172595   -0.065254
     24          7           0      -22.938911    1.730057   -0.753285
     25          6           0      -24.231725    1.510374   -1.028990
     26          6           0      -24.907279    2.880507   -1.062236
     27          6           0      -23.724394    3.936239   -1.275838
     28          6           0      -22.481370    2.958679   -1.077931
     29          6           0      -25.877747    2.959917   -2.293599
     30          6           0      -23.629975    5.213285   -0.343757
     31          6           0      -23.821914    6.607832   -0.920830
     32          7           0      -19.949932    1.362452   -0.437747
     33          6           0      -19.941414    2.715571   -0.790550
     34          6           0      -18.637899    3.266520   -0.578356
     35          6           0      -17.874880    2.172851   -0.064297
     36          6           0      -18.760300    1.025391   -0.059420
     37          6           0      -18.169559    4.669061   -0.806974
     38          6           0      -16.613814    1.727204    0.365024
     39          8           0      -15.584939    2.366837    0.453836
     40          6           0      -16.767623    0.222467    0.814038
     41          6           0      -15.640100   -0.547782    0.266252
     42          8           0      -14.690408   -0.924646    0.943515
     43          8           0      -15.812103   -0.744033   -1.095879
     44          6           0      -14.688233   -1.476360   -1.721682
     45          1           0      -22.205942   -4.320048    1.047338
     46          1           0      -25.984168    0.304439   -0.960121
     47          1           0      -21.096974    4.447371   -1.345091
     48          1           0      -17.285190   -2.847113    1.167384
     49          1           0      -19.658319   -4.044063    2.307624
     50          1           0      -17.863034   -4.894130    0.279348
     51          1           0      -19.439519   -4.927663   -0.562374
     52          1           0      -19.282351   -5.817621    0.922863
     53          1           0      -18.610844   -3.055704    3.581893
     54          1           0      -18.427706   -1.281200    3.291483
     55          1           0      -16.271865   -1.312082    3.655629
     56          1           0      -16.010522   -3.039181    3.210518
     57          1           0      -23.902712   -5.334106    1.203419
     58          1           0      -25.115708   -5.178860   -0.141540
     59          1           0      -25.570152   -4.596325    1.363364
     60          1           0      -28.010661   -0.738356   -1.014462
     61          1           0      -27.308456   -0.393182    0.588793
     62          1           0      -28.654957   -1.472809    0.366982
     63          1           0      -25.461342    3.101993   -0.149778
     64          1           0      -23.665228    4.226186   -2.324316
     65          1           0      -26.833430    3.323369   -1.915905
     66          1           0      -26.023447    2.026325   -2.838459
     67          1           0      -25.530229    3.639893   -3.071734
     68          1           0      -22.639306    5.135272    0.103571
     69          1           0      -24.441282    5.096376    0.376063
     70          1           0      -23.299915    7.271940   -0.231473
     71          1           0      -24.881554    6.861602   -0.884123
     72          1           0      -23.435378    6.846783   -1.911022
     73          1           0      -17.115022    4.679335   -0.530151
     74          1           0      -18.799304    5.321291   -0.202656
     75          1           0      -18.223119    5.014582   -1.839530
     76          1           0      -16.636004    0.265602    1.895730
     77          1           0      -13.929921   -0.773955   -2.067486
     78          1           0      -15.135825   -2.106304   -2.490372
     79          1           0      -14.229729   -2.182908   -1.030410
     80         12           0       20.949815    0.756660   -0.360859
     81          6           0       20.553351   -2.712669   -0.756807
     82          6           0       17.598349    0.982173    0.373285
     83          6           0       21.560068    3.823750    0.719002
     84          6           0       24.439887    0.345335   -0.878594
     85          7           0       19.355720   -0.720992    0.032975
     86          6           0       19.402423   -2.120438   -0.196103
     87          6           0       18.064983   -2.734638   -0.259645
     88          6           0       17.111520   -1.492181    0.012408
     89          6           0       18.067556   -0.314177    0.114294
     90          6           0       15.967961   -1.382271   -1.024999
     91          6           0       17.790674   -3.750043    0.807423
     92          6           0       18.372895   -3.464275    2.199729
     93          1           0       17.596733   -3.865842    3.514075
     94          7           0       19.747455    2.261746    0.417899
     95          6           0       18.406719    2.176252    0.511586
     96          6           0       17.894579    3.465952    0.901903
     97          6           0       19.008769    4.340091    0.940780
     98          6           0       20.189579    3.508373    0.657967
     99          6           0       16.460726    3.784227    1.230587
    100          6           0       18.955607    5.839449    1.232505
    101          8           0       17.901025    6.394829    1.470991
    102          6           0       20.113957    6.780675    1.382342
    103          7           0       22.749006    1.836920    0.130056
    104          6           0       22.735295    3.148290    0.524362
    105          6           0       24.153781    3.796675    0.406088
    106          6           0       25.063938    2.549758    0.190575
    107          6           0       24.038820    1.518806   -0.228323
    108          6           0       24.328286    4.809692   -0.751089
    109          6           0       25.738343    1.935077    1.506536
    110          6           0       27.184373    1.603000    1.426736
    111          7           0       22.224297   -0.743432   -0.825684
    112          6           0       23.517504   -0.706859   -1.174246
    113          6           0       23.888424   -1.965767   -1.924210
    114          6           0       22.693097   -2.743890   -1.805206
    115          6           0       21.767644   -2.015467   -1.005450
    116          6           0       25.192113   -2.368041   -2.598627
    117          6           0       22.170757   -4.058301   -2.044357
    118          8           0       22.686175   -5.036678   -2.561724
    119          6           0       20.731019   -4.070081   -1.388842
    120          6           0       20.782714   -5.043635   -0.229688
    121          8           0       21.377619   -4.926343    0.790273
    122          8           0       19.911718   -6.076216   -0.505126
    123          6           0       19.641269   -6.942200    0.646938
    124          1           0       16.511143    1.075879    0.409042
    125          1           0       21.760347    4.880875    0.901366
    126          1           0       25.496297    0.332606   -1.154757
    127          1           0       17.963988   -3.203499   -1.238449
    128          1           0       16.668868   -1.437368    1.006918
    129          1           0       15.114576   -1.242055   -0.361304
    130          1           0       15.951789   -2.320411   -1.579852
    131          1           0       16.050847   -0.499871   -1.659820
    132          1           0       17.965202   -4.779534    0.493586
    133          1           0       16.736126   -3.883432    1.049749
    134          1           0       18.572351   -2.392146    2.202170
    135          1           0       19.343773   -3.956794    2.142877
    136          1           0       16.389801    4.367971    2.148962
    137          1           0       15.875874    2.865040    1.262146
    138          1           0       16.128276    4.394947    0.390841
    139          1           0       20.759610    6.596548    2.240419
    140          1           0       19.597374    7.703880    1.645329
    141          1           0       20.598924    7.019311    0.435187
    142          1           0       24.356126    4.321327    1.339754
    143          1           0       25.811277    2.688510   -0.591092
    144          1           0       25.009425    4.381140   -1.486051
    145          1           0       24.511409    5.818657   -0.381915
    146          1           0       23.373165    4.914008   -1.264588
    147          1           0       25.188328    1.061945    1.856811
    148          1           0       25.595778    2.713502    2.256284
    149          1           0       27.778236    2.096482    2.195809
    150          1           0       27.626645    1.813831    0.452786
    151          1           0       27.365302    0.542047    1.597072
    152          1           0       25.514335   -3.291253   -2.116983
    153          1           0       25.853149   -1.500567   -2.586738
    154          1           0       24.916050   -2.656213   -3.612867
    155          1           0       19.952627   -4.334331   -2.104299
    156          1           0       19.709660   -6.417741    1.599921
    157          1           0       20.416755   -7.704953    0.576025
    158          1           0       18.710854   -7.459471    0.414292
 ---------------------------------------------------------------------

 SCF Done:  E(RCAM-B3LYP) =  -4069.78586761     A.U. after   18 cycles

 Excitation energies and oscillator strengths:

 Excited State   1:      Singlet-A      1.6651 eV  744.61 nm  f=0.3734  <S**2>=0.000
     310 -> 316        0.17248
     312 -> 314        0.68777
     310 <- 316        0.10778
 This state for optimization and/or second-order correction.
 Total Energy, E(TD-HF/TD-DFT) =  -4069.72467633
 Copying the excited state density for this state as the 1-particle RhoCI density.

 Excited State   2:      Singlet-A      1.7132 eV  723.71 nm  f=0.3823  <S**2>=0.000
     309 -> 315        0.17422
     311 -> 313        0.68630
     309 <- 315        0.10490

 Excited State   3:      Singlet-A      2.1719 eV  570.86 nm  f=0.1600  <S**2>=0.000
     309 -> 313        0.65197
     311 -> 315       -0.25356

 Excited State   4:      Singlet-A      2.2662 eV  547.10 nm  f=0.1009  <S**2>=0.000
     310 -> 314        0.62926
     312 -> 316       -0.31016

 Excited State   5:      Singlet-A      2.8472 eV  435.47 nm  f=0.0000  <S**2>=0.000
     312 -> 313        0.70710

 The electronic state is 1-A.
 Alpha  occ. eigenvalues --  -46.90512 -46.88555 -19.25154 -19.24581 -19.20404
 Alpha  occ. eigenvalues --  -19.19858 -19.19138 -19.19100 -19.18331 -19.18222
 Alpha  occ. eigenvalues --  -14.43516 -14.42349 -14.42021 -14.41861 -14.40078
 Alpha  occ. eigenvalues --  -14.39902 -14.39570 -14.39508 -10.39221 -10.39156
 Alpha  occ. eigenvalues --  -10.35303 -10.34968 -10.34577 -10.34219 -10.33137
 Alpha  occ. eigenvalues --  -10.32102 -10.31712 -10.31700 -10.31545 -10.31414
 Alpha  occ. eigenvalues --  -10.31183 -10.30922 -10.30854 -10.30791 -10.30632
 Alpha  occ. eigenvalues --  -10.30557 -10.30448 -10.30444 -10.30155 -10.29923
 Alpha  occ. eigenvalues --  -10.29861 -10.29453 -10.29292 -10.29122 -10.28738
 Alpha  occ. eigenvalues --  -10.28700 -10.28690 -10.28545 -10.28493 -10.28482
 Alpha  occ. eigenvalues --  -10.28465 -10.28319 -10.28309 -10.28294 -10.28292
 Alpha  occ. eigenvalues --  -10.28261 -10.28225 -10.28098 -10.28025 -10.27925
 Alpha  occ. eigenvalues --  -10.27793 -10.27718 -10.27490 -10.27409 -10.27363
 Alpha  occ. eigenvalues --  -10.27056 -10.27016 -10.27015 -10.26859 -10.26725
 Alpha  occ. eigenvalues --  -10.26598 -10.26540 -10.26483 -10.26458 -10.26368
 Alpha  occ. eigenvalues --  -10.26276 -10.26204 -10.26079 -10.25975 -10.25924
 Alpha  occ. eigenvalues --  -10.25482 -10.25463 -10.25441 -10.25349 -10.25104
 Alpha  occ. eigenvalues --  -10.24938  -3.18722  -3.17200  -1.93650  -1.93153
 Alpha  occ. eigenvalues --   -1.93024  -1.92062  -1.91660  -1.91519  -1.17242
 Alpha  occ. eigenvalues --   -1.15568  -1.10382  -1.10086  -1.09927  -1.09798
 Alpha  occ. eigenvalues --   -1.08938  -1.07511  -1.04848  -1.04558  -1.04085
 Alpha  occ. eigenvalues --   -1.03969  -1.03313  -1.02602  -1.02599  -1.01766
 Alpha  occ. eigenvalues --   -0.93159  -0.92616  -0.89841  -0.89532  -0.89409
 Alpha  occ. eigenvalues --   -0.89407  -0.88363  -0.88221  -0.87724  -0.87500
 Alpha  occ. eigenvalues --   -0.87203  -0.86309  -0.85846  -0.85780  -0.84720
 Alpha  occ. eigenvalues --   -0.84545  -0.84146  -0.83871  -0.82925  -0.82688
 Alpha  occ. eigenvalues --   -0.82257  -0.81666  -0.80918  -0.80851  -0.80782
 Alpha  occ. eigenvalues --   -0.80490  -0.77924  -0.77864  -0.77483  -0.77216
 Alpha  occ. eigenvalues --   -0.77017  -0.76821  -0.76251  -0.76023  -0.75555
 Alpha  occ. eigenvalues --   -0.75110  -0.73532  -0.72679  -0.72313  -0.71666
 Alpha  occ. eigenvalues --   -0.69605  -0.69422  -0.69023  -0.68786  -0.68662
 Alpha  occ. eigenvalues --   -0.68022  -0.67162  -0.67060  -0.65843  -0.65662
 Alpha  occ. eigenvalues --   -0.65502  -0.65279  -0.65055  -0.64839  -0.64514
 Alpha  occ. eigenvalues --   -0.64355  -0.63038  -0.62078  -0.60280  -0.59982
 Alpha  occ. eigenvalues --   -0.59779  -0.59488  -0.59391  -0.59097  -0.59042
 Alpha  occ. eigenvalues --   -0.58917  -0.58112  -0.57822  -0.57356  -0.57016
 Alpha  occ. eigenvalues --   -0.56582  -0.56536  -0.56080  -0.56004  -0.55477
 Alpha  occ. eigenvalues --   -0.55394  -0.55077  -0.54839  -0.54581  -0.54051
 Alpha  occ. eigenvalues --   -0.53875  -0.53551  -0.53264  -0.53019  -0.52856
 Alpha  occ. eigenvalues --   -0.52829  -0.52811  -0.52512  -0.52347  -0.52258
 Alpha  occ. eigenvalues --   -0.52123  -0.52103  -0.51874  -0.51595  -0.51399
 Alpha  occ. eigenvalues --   -0.51356  -0.51138  -0.50963  -0.50904  -0.50405
 Alpha  occ. eigenvalues --   -0.50239  -0.50107  -0.49740  -0.49581  -0.49523
 Alpha  occ. eigenvalues --   -0.49381  -0.49227  -0.49172  -0.48912  -0.48899
 Alpha  occ. eigenvalues --   -0.48744  -0.48674  -0.48573  -0.48340  -0.48338
 Alpha  occ. eigenvalues --   -0.47977  -0.47824  -0.47530  -0.47200  -0.47172
 Alpha  occ. eigenvalues --   -0.47081  -0.47039  -0.46880  -0.46756  -0.46734
 Alpha  occ. eigenvalues --   -0.46612  -0.46354  -0.46155  -0.46019  -0.45978
 Alpha  occ. eigenvalues --   -0.45863  -0.45857  -0.45714  -0.45479  -0.45337
 Alpha  occ. eigenvalues --   -0.45215  -0.45204  -0.44700  -0.44652  -0.44550
 Alpha  occ. eigenvalues --   -0.44348  -0.44146  -0.44025  -0.43879  -0.43753
 Alpha  occ. eigenvalues --   -0.43661  -0.43576  -0.43205  -0.43006  -0.42784
 Alpha  occ. eigenvalues --   -0.42780  -0.42497  -0.42453  -0.42356  -0.42257
 Alpha  occ. eigenvalues --   -0.42175  -0.42101  -0.41877  -0.41621  -0.41527
 Alpha  occ. eigenvalues --   -0.41301  -0.41094  -0.40749  -0.40512  -0.40374
 Alpha  occ. eigenvalues --   -0.39994  -0.39800  -0.39738  -0.39492  -0.39131
 Alpha  occ. eigenvalues --   -0.38429  -0.38375  -0.37854  -0.37842  -0.37437
 Alpha  occ. eigenvalues --   -0.37308  -0.37241  -0.37013  -0.36812  -0.36419
 Alpha  occ. eigenvalues --   -0.35922  -0.35740  -0.35081  -0.34517  -0.34343
 Alpha  occ. eigenvalues --   -0.34204  -0.33360  -0.33000  -0.31788  -0.31354
 Alpha  occ. eigenvalues --   -0.31248  -0.31078  -0.30554  -0.30510  -0.30216
 Alpha  occ. eigenvalues --   -0.29878  -0.29630  -0.29607  -0.24640  -0.24285
 Alpha  occ. eigenvalues --   -0.22180  -0.21022
 Alpha virt. eigenvalues --   -0.09752  -0.08755  -0.02363  -0.01764  -0.00004
 Alpha virt. eigenvalues --    0.00242   0.01405   0.02190   0.02314   0.02549
 Alpha virt. eigenvalues --    0.04484   0.05080   0.05242   0.05454   0.05816

 Mulliken charges:
               1
     1  Mg  12.000035
     2  C    6.000402
     3  C    5.999851
     4  C    5.999529
     5  C    6.000126
     6  N    7.000177
     7  C    5.999531
     8  C    6.000125
     9  C    5.999932
    10  C    6.000461
    11  C    5.999915
    12  C    6.000008
    13  C    6.000027
    14  H    0.999928
    15  N    6.999791
    16  C    6.000609
    17  C    6.000317
    18  C    6.000109
    19  C    6.000659
    20  C    5.999914
    21  C    6.000202
    22  O    8.000326
    23  C    5.999863
    24  N    6.999930
    25  C    6.000513
    26  C    5.999849
    27  C    6.000073
    28  C    5.999618
    29  C    5.999951
    30  C    6.000053
    31  C    6.000017
    32  N    7.000049
    33  C    5.999446
    34  C    5.999643
    35  C    5.999893
    36  C    5.999517
    37  C    6.000057
    38  C    5.999754
    39  O    7.999422
    40  C    5.999940
    41  C    5.999929
    42  O    7.999833
    43  O    8.000054
    44  C    6.000056
    45  H    1.000236
    46  H    1.000046
    47  H    0.999769
    48  H    1.000012
    49  H    1.000057
    50  H    1.000194
    51  H    1.000038
    52  H    1.000079
    53  H    0.999901
    54  H    1.000056
    55  H    1.000041
    56  H    0.999977
    57  H    1.000275
    58  H    1.000296
    59  H    1.000243
    60  H    1.000219
    61  H    1.000126
    62  H    1.000204
    63  H    1.000048
    64  H    0.999996
    65  H    1.000038
    66  H    0.999962
    67  H    1.000107
    68  H    1.000071
    69  H    0.999863
    70  H    0.999955
    71  H    0.999930
    72  H    0.999987
    73  H    0.999742
    74  H    0.999728
    75  H    0.999693
    76  H    0.999880
    77  H    0.999917
    78  H    0.999963
    79  H    0.999913
    80  Mg  12.002031
    81  C    6.035111
    82  C    5.984031
    83  C    5.971390
    84  C    6.013489
    85  N    7.006065
    86  C    5.954663
    87  C    6.015822
    88  C    5.990538
    89  C    6.031924
    90  C    5.997779
    91  C    6.004111
    92  C    6.006987
    93  H    0.990235
    94  N    6.987124
    95  C    6.049370
    96  C    6.022309
    97  C    6.005661
    98  C    6.051723
    99  C    5.995192
   100  C    6.010719
   101  O    8.019378
   102  C    5.995479
   103  N    6.996603
   104  C    6.036764
   105  C    5.992958
   106  C    6.005602
   107  C    5.975094
   108  C    6.000083
   109  C    6.008493
   110  C    6.000162
   111  N    7.005143
   112  C    5.957569
   113  C    5.960137
   114  C    6.004826
   115  C    5.954834
   116  C    6.002748
   117  C    5.986098
   118  O    7.973825
   119  C    5.997411
   120  C    5.997169
   121  O    7.996517
   122  O    7.997919
   123  C    6.001781
   124  H    1.012683
   125  H    1.007682
   126  H    0.988128
   127  H    0.997427
   128  H    0.997887
   129  H    1.000237
   130  H    1.013545
   131  H    0.997850
   132  H    1.003061
   133  H    0.990084
   134  H    0.989481
   135  H    1.007015
   136  H    1.018205
   137  H    1.019731
   138  H    1.019714
   139  H    1.011144
   140  H    1.011684
   141  H    1.011814
   142  H    1.000166
   143  H    1.000140
   144  H    1.013640
   145  H    1.000475
   146  H    0.995199
   147  H    1.000871
   148  H    0.984636
   149  H    0.994275
   150  H    0.999474
   151  H    1.003314
   152  H    0.979496
   153  H    0.980318
   154  H    0.979023
   155  H    0.989854
   156  H    0.995899
   157  H    0.998487
   158  H    0.994496
 Sum of Mulliken charges = 624.00000

 Dipole moment (field-independent basis, Debye):
    X=             -6.5247    Y=              8.1627    Z=              3.0134  Tot=             10.8757
 Quadrupole moment (field-independent basis, Debye-Ang):
   XX=           -263.0661   YY=             11.1018   ZZ=             -4.1951
   XY=            169.6468   XZ=             66.2898   YZ=             -0.2533

 Normal termination of Gaussian 16 at Thu Sep 23 02:25:52 2021.
