 Gaussian 16, Revision A.03,
 Gaussian 16:  ES64L-G16RevA.03 25-Dec-2016

 -----------------------------------
 #p cam-b3lyp/Def2SVP td=(nstates=5)
 -----------------------------------

 --------------------------------
 TDDFT excited states in gaussian
 --------------------------------
 Symbolic Z-matrix:
 Charge =  0 Multiplicity = 1

                         Standard orientation:
 ---------------------------------------------------------------------
 Center     Atomic      Atomic             Coordinates (Angstroms)
 Number     Number       Type             X           Y           Z
 ---------------------------------------------------------------------
      1         12           0      -11.843087    0.197177   -0.340965
      2          6           0       -8.816395   -1.182143    0.605696
      3          6           0      -13.446792   -2.771220    0.758839
      4          6           0      -14.905796    1.690504   -0.704220
      5          6           0      -10.331773    3.241117   -0.956894
      6          7           0      -11.148098   -1.775131    0.448541
      7          6           0       -9.858532   -2.057804    0.847139
      8          6           0       -9.720115   -3.402201    1.655271
      9          6           0      -11.135365   -4.083341    1.343378
     10          6           0      -12.016682   -2.842529    0.763420
     11          6           0      -11.193770   -5.339304    0.392827
     12          6           0       -9.477564   -3.244056    3.115089
     13          6           0       -8.213923   -3.785918    3.755231
     14          1           0       -8.328562   -4.196343    5.232108
     15          7           0      -13.912010   -0.491421   -0.103293
     16          6           0      -14.296461   -1.780138    0.312383
     17          6           0      -15.718499   -1.899313    0.250350
     18          6           0      -16.192970   -0.519586   -0.034170
     19          6           0      -14.990342    0.331913   -0.290705
     20          6           0      -16.497358   -3.141600    0.695128
     21          6           0      -17.693337   -0.179365   -0.059216
     22          8           0      -18.631692   -0.938528    0.165030
     23          6           0      -18.058658    1.262672   -0.039791
     24          7           0      -12.569864    2.315609   -0.612750
     25          6           0      -13.852455    2.572411   -0.903705
     26          6           0      -14.001389    4.093123   -0.903679
     27          6           0      -12.519068    4.668685   -1.079371
     28          6           0      -11.703547    3.311266   -0.899826
     29          6           0      -14.861211    4.538519   -2.139274
     30          6           0      -11.996222    5.808149   -0.111491
     31          6           0      -11.675038    7.193957   -0.650927
     32          7           0       -9.907632    0.910419   -0.286164
     33          6           0       -9.417166    2.181525   -0.601139
     34          6           0       -8.006816    2.232335   -0.364382
     35          6           0       -7.686578    0.928114    0.124520
     36          6           0       -8.919415    0.166762    0.091152
     37          6           0       -7.070711    3.384626   -0.550556
     38          6           0       -6.670611    0.056492    0.550301
     39          8           0       -5.483979    0.289999    0.664227
     40          6           0       -7.352032   -1.307482    0.956192
     41          6           0       -6.559255   -2.412720    0.395287
     42          8           0       -5.814517   -3.116035    1.068592
     43          8           0       -6.766865   -2.503659   -0.972970
     44          6           0       -5.962860   -3.570301   -1.610831
     45          1           0      -14.045016   -3.644904    1.024162
     46          1           0      -15.918263    2.060558   -0.880940
     47          1           0       -9.879257    4.222063   -1.115574
     48          1           0       -8.923520   -4.004833    1.220340
     49          1           0      -11.584649   -4.314604    2.309841
     50          1           0      -10.170702   -5.695173    0.271619
     51          1           0      -11.643822   -5.150911   -0.581975
     52          1           0      -11.834773   -6.073764    0.879030
     53          1           0      -10.277324   -3.789282    3.618563
     54          1           0       -9.476043   -2.187014    3.378923
     55          1           0       -7.475602   -2.984589    3.757494
     56          1           0       -7.832123   -4.681950    3.266418
     57          1           0      -15.992573   -3.998938    1.139836
     58          1           0      -17.050752   -3.394417   -0.208936
     59          1           0      -17.295616   -2.724591    1.308290
     60          1           0      -18.181011    1.800841   -0.978761
     61          1           0      -17.428781    1.838486    0.638458
     62          1           0      -19.065437    1.308489    0.377080
     63          1           0      -14.456885    4.474238    0.010594
     64          1           0      -12.344261    4.943698   -2.118932
     65          1           0      -15.633689    5.206613   -1.758473
     66          1           0      -15.317443    3.729334   -2.710910
     67          1           0      -14.283642    5.070376   -2.895694
     68          1           0      -11.104066    5.375357    0.340576
     69          1           0      -12.808464    5.967929    0.598973
     70          1           0      -10.964003    7.614970    0.060348
     71          1           0      -12.577805    7.804111   -0.614765
     72          1           0      -11.212822    7.304468   -1.631299
     73          1           0       -6.084876    3.015912   -0.266013
     74          1           0       -7.440201    4.202619    0.067138
     75          1           0       -6.982073    3.751000   -1.573464
     76          1           0       -7.231523   -1.338952    2.039579
     77          1           0       -5.000122   -3.172462   -1.931533
     78          1           0       -6.590926   -3.983725   -2.399923
     79          1           0       -5.794123   -4.409170   -0.936205
     80         12           0       11.540311    0.540150   -0.063438
     81          6           0       10.682966   -2.768726   -0.450955
     82          6           0        8.251875    1.491556    0.028298
     83          6           0       12.438939    3.874272    0.526062
     84          6           0       14.782033   -0.368127    0.706289
     85          7           0        9.712395   -0.623647    0.011288
     86          6           0        9.533335   -1.963262   -0.344320
     87          6           0        8.054841   -2.358486   -0.310757
     88          6           0        7.414922   -0.947130   -0.335155
     89          6           0        8.513204    0.079579    0.009478
     90          6           0        6.623843   -0.662654   -1.630668
     91          6           0        7.699927   -3.185927    0.940537
     92          6           0        6.742994   -4.409940    0.731227
     93          1           0        5.857989   -4.748227    1.866681
     94          7           0       10.502031    2.375508    0.173491
     95          6           0        9.166682    2.574668    0.089821
     96          6           0        8.812044    3.960167    0.012136
     97          6           0       10.016256    4.683125    0.016393
     98          6           0       11.090259    3.624943    0.220596
     99          6           0        7.389483    4.477181   -0.211567
    100          6           0       10.187392    6.241876   -0.089706
    101          8           0        9.152933    6.957020   -0.102578
    102          6           0       11.591001    6.965865   -0.266763
    103          7           0       13.291525    1.573861    0.826213
    104          6           0       13.441505    2.920701    0.810797
    105          6           0       14.856402    3.357597    1.091390
    106          6           0       15.620303    2.020481    1.202545
    107          6           0       14.527954    1.005447    0.856329
    108          6           0       15.442962    4.376456    0.058765
    109          6           0       16.365329    1.831746    2.608953
    110          6           0       17.886597    2.014336    2.556658
    111          7           0       12.578566   -1.185479    0.050244
    112          6           0       13.933350   -1.451572    0.347424
    113          6           0       14.229928   -2.856414    0.037584
    114          6           0       12.995422   -3.362251   -0.345124
    115          6           0       12.044111   -2.340306   -0.191760
    116          6           0       15.509035   -3.609033    0.127534
    117          6           0       12.311573   -4.588261   -0.780715
    118          8           0       12.746593   -5.676317   -1.192468
    119          6           0       10.774562   -4.240666   -0.912119
    120          6           0       10.282621   -4.430753   -2.340673
    121          8           0       10.832751   -4.062157   -3.383208
    122          8           0        9.140073   -5.158700   -2.188480
    123          6           0        8.520145   -5.655262   -3.405547
    124          1           0        7.207190    1.808246    0.053051
    125          1           0       12.857441    4.876564    0.639341
    126          1           0       15.791246   -0.721582    0.926905
    127          1           0        7.819358   -2.965636   -1.185470
    128          1           0        6.696045   -0.986260    0.483191
    129          1           0        6.271209   -1.495752   -2.238658
    130          1           0        7.317102   -0.132363   -2.283398
    131          1           0        5.739454   -0.052750   -1.447842
    132          1           0        7.321918   -2.574377    1.759365
    133          1           0        8.661475   -3.483183    1.359758
    134          1           0        7.341384   -5.288948    0.491854
    135          1           0        6.062590   -4.178056   -0.089343
    136          1           0        7.439553    5.086944   -1.113382
    137          1           0        7.000787    4.896462    0.716533
    138          1           0        6.819212    3.587943   -0.480021
    139          1           0       11.996303    7.085055    0.737353
    140          1           0       11.374473    7.942838   -0.698268
    141          1           0       12.122626    6.413072   -1.041765
    142          1           0       14.864292    3.866623    2.055287
    143          1           0       16.327061    1.797965    0.403462
    144          1           0       16.451533    4.100784   -0.248049
    145          1           0       15.482958    5.393230    0.449070
    146          1           0       14.761896    4.455368   -0.787593
    147          1           0       16.243915    0.826819    3.013073
    148          1           0       15.913249    2.479229    3.360199
    149          1           0       18.224287    2.537969    3.451189
    150          1           0       18.156567    2.599303    1.677701
    151          1           0       18.442245    1.079352    2.487208
    152          1           0       16.290846   -2.892801    0.380367
    153          1           0       15.617555   -4.262904   -0.738013
    154          1           0       15.428420   -4.225575    1.023429
    155          1           0       10.157702   -4.815911   -0.221187
    156          1           0        8.465242   -4.917283   -4.206852
    157          1           0        7.522818   -6.085481   -3.314367
    158          1           0        9.094835   -6.497300   -3.792149
 ---------------------------------------------------------------------

 SCF Done:  E(RCAM-B3LYP) =  -4069.81312230     A.U. after   19 cycles

 Excitation energies and oscillator strengths:

 Excited State   1:      Singlet-A      1.7070 eV  726.34 nm  f=0.4165  <S**2>=0.000
     310 -> 316        0.14774
     311 -> 313        0.36033
     312 -> 314        0.58419
 This state for optimization and/or second-order correction.
 Total Energy, E(TD-HF/TD-DFT) =  -4069.75039184
 Copying the excited state density for this state as the 1-particle RhoCI density.

 Excited State   2:      Singlet-A      1.7157 eV  722.66 nm  f=0.3358  <S**2>=0.000
     309 -> 315        0.14868
     311 -> 313        0.58421
     312 -> 314       -0.35980

 Excited State   3:      Singlet-A      2.1719 eV  570.86 nm  f=0.1599  <S**2>=0.000
     309 -> 313        0.65194
     311 -> 315       -0.25344

 Excited State   4:      Singlet-A      2.2473 eV  551.70 nm  f=0.0935  <S**2>=0.000
     310 -> 314        0.62560
     312 -> 316       -0.31495

 Excited State   5:      Singlet-A      2.6399 eV  469.66 nm  f=0.0000  <S**2>=0.000
     312 -> 313        0.70700

 The electronic state is 1-A.
 Alpha  occ. eigenvalues --  -46.90550 -46.89033 -19.26225 -19.25225 -19.20131
 Alpha  occ. eigenvalues --  -19.19927 -19.19556 -19.19170 -19.18383 -19.18312
 Alpha  occ. eigenvalues --  -14.43555 -14.42258 -14.42058 -14.42035 -14.40115
 Alpha  occ. eigenvalues --  -14.40087 -14.39942 -14.38969 -10.39821 -10.39223
 Alpha  occ. eigenvalues --  -10.36549 -10.35334 -10.34617 -10.34272 -10.33179
 Alpha  occ. eigenvalues --  -10.32140 -10.32046 -10.31919 -10.31749 -10.31741
 Alpha  occ. eigenvalues --  -10.31627 -10.31459 -10.31055 -10.30939 -10.30888
 Alpha  occ. eigenvalues --  -10.30488 -10.30344 -10.30256 -10.30192 -10.29899
 Alpha  occ. eigenvalues --  -10.29534 -10.29494 -10.29163 -10.28781 -10.28730
 Alpha  occ. eigenvalues --  -10.28591 -10.28582 -10.28507 -10.28360 -10.28353
 Alpha  occ. eigenvalues --  -10.28338 -10.28335 -10.28323 -10.28263 -10.28211
 Alpha  occ. eigenvalues --  -10.28042 -10.27979 -10.27903 -10.27869 -10.27830
 Alpha  occ. eigenvalues --  -10.27731 -10.27604 -10.27527 -10.27518 -10.27457
 Alpha  occ. eigenvalues --  -10.27398 -10.27357 -10.27158 -10.27082 -10.27055
 Alpha  occ. eigenvalues --  -10.26892 -10.26852 -10.26806 -10.26629 -10.26369
 Alpha  occ. eigenvalues --  -10.26319 -10.26231 -10.26121 -10.26115 -10.25946
 Alpha  occ. eigenvalues --  -10.25854 -10.25849 -10.25667 -10.25470 -10.24980
 Alpha  occ. eigenvalues --  -10.24448  -3.18760  -3.17565  -1.93689  -1.93192
 Alpha  occ. eigenvalues --   -1.93063  -1.92431  -1.92008  -1.91895  -1.16701
 Alpha  occ. eigenvalues --   -1.15638  -1.10118  -1.09853  -1.08489  -1.08226
 Alpha  occ. eigenvalues --   -1.07618  -1.07581  -1.04887  -1.04538  -1.04122
 Alpha  occ. eigenvalues --   -1.03865  -1.03380  -1.02639  -1.01996  -1.01805
 Alpha  occ. eigenvalues --   -0.92663  -0.91276  -0.89570  -0.89450  -0.88759
 Alpha  occ. eigenvalues --   -0.88702  -0.88508  -0.88250  -0.87760  -0.87244
 Alpha  occ. eigenvalues --   -0.87139  -0.86845  -0.86247  -0.85883  -0.84584
 Alpha  occ. eigenvalues --   -0.84159  -0.83905  -0.83774  -0.82965  -0.82359
 Alpha  occ. eigenvalues --   -0.82292  -0.81497  -0.80989  -0.80965  -0.80827
 Alpha  occ. eigenvalues --   -0.80044  -0.77902  -0.77811  -0.77340  -0.77263
 Alpha  occ. eigenvalues --   -0.77057  -0.76578  -0.76298  -0.75743  -0.75590
 Alpha  occ. eigenvalues --   -0.75140  -0.73572  -0.72566  -0.72352  -0.71579
 Alpha  occ. eigenvalues --   -0.69453  -0.69074  -0.69062  -0.68814  -0.68063
 Alpha  occ. eigenvalues --   -0.67715  -0.67203  -0.67106  -0.66006  -0.65692
 Alpha  occ. eigenvalues --   -0.65544  -0.65319  -0.64928  -0.64879  -0.64836
 Alpha  occ. eigenvalues --   -0.64410  -0.63103  -0.62549  -0.60318  -0.59821
 Alpha  occ. eigenvalues --   -0.59806  -0.59529  -0.59447  -0.59135  -0.58773
 Alpha  occ. eigenvalues --   -0.58470  -0.57861  -0.57591  -0.57095  -0.57069
 Alpha  occ. eigenvalues --   -0.56618  -0.56050  -0.55827  -0.55621  -0.55527
 Alpha  occ. eigenvalues --   -0.55207  -0.54894  -0.54875  -0.53916  -0.53639
 Alpha  occ. eigenvalues --   -0.53593  -0.53313  -0.53198  -0.53009  -0.52898
 Alpha  occ. eigenvalues --   -0.52841  -0.52666  -0.52556  -0.52462  -0.52169
 Alpha  occ. eigenvalues --   -0.51906  -0.51893  -0.51416  -0.51401  -0.51208
 Alpha  occ. eigenvalues --   -0.51029  -0.51005  -0.50949  -0.50737  -0.50438
 Alpha  occ. eigenvalues --   -0.50277  -0.49822  -0.49776  -0.49571  -0.49320
 Alpha  occ. eigenvalues --   -0.49205  -0.49182  -0.48945  -0.48922  -0.48708
 Alpha  occ. eigenvalues --   -0.48380  -0.48375  -0.48125  -0.48033  -0.48004
 Alpha  occ. eigenvalues --   -0.47857  -0.47677  -0.47538  -0.47353  -0.47236
 Alpha  occ. eigenvalues --   -0.47074  -0.47045  -0.46774  -0.46719  -0.46657
 Alpha  occ. eigenvalues --   -0.46406  -0.46247  -0.46193  -0.46062  -0.45896
 Alpha  occ. eigenvalues --   -0.45864  -0.45752  -0.45427  -0.45381  -0.45270
 Alpha  occ. eigenvalues --   -0.45119  -0.44739  -0.44642  -0.44585  -0.44269
 Alpha  occ. eigenvalues --   -0.44183  -0.43967  -0.43795  -0.43702  -0.43661
 Alpha  occ. eigenvalues --   -0.43610  -0.43330  -0.43142  -0.43046  -0.42829
 Alpha  occ. eigenvalues --   -0.42802  -0.42497  -0.42348  -0.42316  -0.42314
 Alpha  occ. eigenvalues --   -0.41989  -0.41814  -0.41654  -0.41565  -0.41412
 Alpha  occ. eigenvalues --   -0.41333  -0.41001  -0.40672  -0.40551  -0.40472
 Alpha  occ. eigenvalues --   -0.40028  -0.39774  -0.39571  -0.39534  -0.39218
 Alpha  occ. eigenvalues --   -0.38474  -0.38405  -0.38216  -0.37993  -0.37881
 Alpha  occ. eigenvalues --   -0.37477  -0.37286  -0.37243  -0.36879  -0.36702
 Alpha  occ. eigenvalues --   -0.36271  -0.35964  -0.34728  -0.34654  -0.34578
 Alpha  occ. eigenvalues --   -0.34383  -0.33398  -0.32893  -0.31828  -0.31446
 Alpha  occ. eigenvalues --   -0.31280  -0.31060  -0.30608  -0.30352  -0.30318
 Alpha  occ. eigenvalues --   -0.30260  -0.29699  -0.29643  -0.24680  -0.24056
 Alpha  occ. eigenvalues --   -0.22219  -0.20943
 Alpha virt. eigenvalues --   -0.09791  -0.08439  -0.02400  -0.01882  -0.00044
 Alpha virt. eigenvalues --    0.00311   0.01771   0.02113   0.02148   0.02274
 Alpha virt. eigenvalues --    0.04445   0.05126   0.05180   0.05199   0.05774

 Mulliken charges:
               1
     1  Mg   0.796986
     2  C    0.074059
     3  C   -0.043142
     4  C   -0.054771
     5  C   -0.052355
     6  N   -0.300211
     7  C   -0.060087
     8  C   -0.022688
     9  C   -0.080370
    10  C    0.067073
    11  C    0.078388
    12  C    0.079037
    13  C   -0.093801
    14  H    0.008222
    15  N   -0.374635
    16  C    0.119232
    17  C   -0.139263
    18  C   -0.092330
    19  C    0.150560
    20  C    0.136700
    21  C    0.043220
    22  O   -0.209227
    23  C    0.005454
    24  N   -0.267879
    25  C    0.091620
    26  C   -0.078137
    27  C   -0.006905
    28  C   -0.004281
    29  C    0.048999
    30  C    0.036083
    31  C    0.003099
    32  N   -0.332668
    33  C    0.107705
    34  C   -0.158977
    35  C    0.031314
    36  C    0.039612
    37  C    0.122522
    38  C   -0.007960
    39  O   -0.165172
    40  C    0.009239
    41  C    0.181726
    42  O   -0.215062
    43  O   -0.355565
    44  C    0.174610
    45  H   -0.038428
    46  H   -0.042366
    47  H   -0.028537
    48  H    0.009764
    49  H    0.015696
    50  H    0.021350
    51  H    0.026868
    52  H    0.021458
    53  H    0.016822
    54  H    0.018260
    55  H    0.046910
    56  H    0.036388
    57  H    0.034213
    58  H    0.033237
    59  H    0.040661
    60  H    0.045955
    61  H    0.034682
    62  H    0.021730
    63  H    0.028754
    64  H    0.005467
    65  H    0.013925
    66  H    0.019608
    67  H    0.009867
    68  H    0.018844
    69  H    0.003710
    70  H    0.014653
    71  H    0.016035
    72  H    0.017405
    73  H    0.038780
    74  H    0.023988
    75  H    0.024090
    76  H    0.036634
    77  H    0.050782
    78  H    0.034336
    79  H    0.038485
    80  Mg   0.835946
    81  C   -0.065936
    82  C   -0.099692
    83  C   -0.076680
    84  C   -0.074480
    85  N   -0.335336
    86  C   -0.052998
    87  C   -0.007614
    88  C   -0.039096
    89  C    0.100354
    90  C    0.060561
    91  C    0.062663
    92  C   -0.070620
    93  H    0.027139
    94  N   -0.347204
    95  C    0.138356
    96  C   -0.175587
    97  C   -0.043107
    98  C    0.174003
    99  C    0.164857
   100  C    0.001189
   101  O   -0.229622
   102  C    0.054738
   103  N   -0.257145
   104  C   -0.006320
   105  C   -0.021844
   106  C   -0.004489
   107  C    0.016260
   108  C    0.057201
   109  C    0.038646
   110  C   -0.002712
   111  N   -0.349101
   112  C    0.091991
   113  C   -0.191439
   114  C    0.000844
   115  C    0.118550
   116  C    0.151210
   117  C    0.078987
   118  O   -0.194942
   119  C    0.005694
   120  C    0.224922
   121  O   -0.217364
   122  O   -0.325979
   123  C    0.174683
   124  H   -0.016183
   125  H   -0.042738
   126  H   -0.036867
   127  H    0.000497
   128  H    0.006543
   129  H    0.014749
   130  H    0.012994
   131  H    0.017770
   132  H    0.007188
   133  H    0.005418
   134  H    0.042804
   135  H    0.028964
   136  H    0.041839
   137  H    0.047847
   138  H   -0.009378
   139  H    0.058677
   140  H    0.031413
   141  H    0.039973
   142  H    0.020009
   143  H    0.008657
   144  H    0.024381
   145  H    0.011613
   146  H    0.017567
   147  H    0.008259
   148  H    0.004608
   149  H    0.016313
   150  H    0.008588
   151  H    0.019477
   152  H   -0.000939
   153  H    0.052227
   154  H    0.026884
   155  H    0.034670
   156  H    0.037674
   157  H    0.033941
   158  H    0.035073
 Sum of Mulliken charges =  -0.00000

 Dipole moment (field-independent basis, Debye):
    X=             -3.0969    Y=              3.7488    Z=             -1.3736  Tot=              5.0528
 Quadrupole moment (field-independent basis, Debye-Ang):
   XX=           -475.1777   YY=           -505.4142   ZZ=           -514.2125
   XY=             39.3839   XZ=             41.6491   YZ=             -2.9896

 Normal termination of Gaussian 16 at Thu Sep 16 04:35:49 2021.
