 Gaussian 16, Revision A.03,
 Gaussian 16:  ES64L-G16RevA.03 25-Dec-2016

 -----------------------------------------------------------
 #p cam-b3lyp/Def2SVP td=(nstates=5, root=1) density=current
 -----------------------------------------------------------

 --------------------------------
 TDDFT excited states in gaussian
 --------------------------------
 Symbolic Z-matrix:
 Charge =  0 Multiplicity = 1

                         Standard orientation:
 ---------------------------------------------------------------------
 Center     Atomic      Atomic             Coordinates (Angstroms)
 Number     Number       Type             X           Y           Z
 ---------------------------------------------------------------------
      1         12           0       -0.667462   -0.006451   -0.749015
      2          6           0        2.868855   -0.211548   -0.389110
      3          6           0       -0.881053   -3.400206   -0.337239
      4          6           0       -4.077941    0.342813   -0.046371
      5          6           0       -0.414627    3.494044   -0.572738
      6          7           0        0.939719   -1.583929   -0.132242
      7          6           0        2.271097   -1.491615   -0.282773
      8          6           0        2.853840   -2.881299   -0.463752
      9          6           0        1.653953   -3.942448   -0.379093
     10          6           0        0.465359   -2.854592   -0.427916
     11          6           0        1.711866   -4.859325   -1.621573
     12          6           0        3.933400   -3.154803    0.571059
     13          6           0        3.691106   -2.602653    1.995914
     14          1           0        3.331729   -3.637496    3.096927
     15          7           0       -2.315444   -1.373254   -0.336879
     16          6           0       -2.124819   -2.731256   -0.202029
     17          6           0       -3.433443   -3.299418   -0.114459
     18          6           0       -4.418042   -2.255701    0.072240
     19          6           0       -3.650898   -1.002876   -0.143859
     20          6           0       -3.667909   -4.784721    0.035897
     21          6           0       -5.867877   -2.403752    0.536409
     22          8           0       -6.303919   -3.500291    0.829631
     23          6           0       -6.771130   -1.300055    0.668214
     24          7           0       -2.041062    1.664612   -0.261441
     25          6           0       -3.357068    1.538570   -0.175153
     26          6           0       -4.075233    2.857799    0.058075
     27          6           0       -2.819337    3.812354    0.250835
     28          6           0       -1.693379    2.996945   -0.274539
     29          6           0       -5.029492    3.302035   -1.155314
     30          6           0       -2.700069    4.278859    1.774436
     31          6           0       -2.941805    5.712224    2.154625
     32          7           0        0.823310    1.341241   -0.776128
     33          6           0        0.776143    2.749252   -0.828797
     34          6           0        2.130645    3.309188   -0.992614
     35          6           0        2.921746    2.169858   -0.846179
     36          6           0        2.137715    0.991028   -0.590360
     37          6           0        2.571692    4.768982   -1.356536
     38          6           0        4.325496    1.747022   -0.813396
     39          8           0        5.399219    2.354703   -0.957436
     40          6           0        4.362382    0.207539   -0.538005
     41          6           0        5.076525    0.204014    0.769442
     42          8           0        4.708379    0.772884    1.765057
     43          8           0        6.248717   -0.412163    0.646931
     44          6           0        7.108421   -0.612256    1.865456
     45          1           0       -0.944566   -4.476744   -0.508087
     46          1           0       -5.129364    0.599278    0.097868
     47          1           0       -0.446137    4.573081   -0.404801
     48          1           0        3.288919   -2.740316   -1.453189
     49          1           0        1.669486   -4.518906    0.546253
     50          1           0        1.836257   -5.886370   -1.278928
     51          1           0        2.549492   -4.662262   -2.291136
     52          1           0        0.741764   -4.760512   -2.107906
     53          1           0        4.880217   -2.737575    0.228082
     54          1           0        4.053999   -4.227768    0.723215
     55          1           0        2.833330   -1.947425    2.146928
     56          1           0        4.618155   -2.086774    2.246279
     57          1           0       -2.731221   -5.338305    0.105994
     58          1           0       -4.327175   -5.097052   -0.774718
     59          1           0       -4.292354   -4.924810    0.917553
     60          1           0       -6.500952   -0.561694    1.423456
     61          1           0       -7.759353   -1.674249    0.934918
     62          1           0       -6.720373   -0.831897   -0.315415
     63          1           0       -4.617410    2.907622    1.002015
     64          1           0       -3.152978    4.704701   -0.279093
     65          1           0       -5.038667    2.520189   -1.915305
     66          1           0       -4.586528    4.192301   -1.602162
     67          1           0       -6.048201    3.584087   -0.884836
     68          1           0       -1.678541    4.174318    2.140206
     69          1           0       -3.352459    3.687975    2.415892
     70          1           0       -2.029344    6.285290    2.319469
     71          1           0       -3.469149    5.559801    3.096889
     72          1           0       -3.700148    6.222770    1.560796
     73          1           0        2.453365    5.381476   -0.463113
     74          1           0        1.966869    5.082205   -2.207682
     75          1           0        3.638258    4.758678   -1.580376
     76          1           0        4.889284   -0.234853   -1.384240
     77          1           0        7.735303    0.251739    2.087156
     78          1           0        7.764509   -1.475554    1.747044
     79          1           0        6.401993   -0.813321    2.670814
 ---------------------------------------------------------------------

 SCF Done:  E(RCAM-B3LYP) =  -2034.86538959     A.U. after   19 cycles

 Excitation energies and oscillator strengths:

 Excited State   1:      Singlet-A      1.6890 eV  734.08 nm  f=0.3530  <S**2>=0.000
     155 ->158         0.20084
     156 ->157         0.68047
     155 <-158         0.11494
 This state for optimization and/or second-order correction.
 Total Energy, E(TD-HF/TD-DFT) =  -2034.80332077
 Copying the excited state density for this state as the 1-particle RhoCI density.

 Excited State   2:      Singlet-A      2.1999 eV  563.59 nm  f=0.0722  <S**2>=0.000
     155 ->157         0.61852
     156 ->158        -0.32996

 Excited State   3:      Singlet-A      3.1629 eV  391.99 nm  f=0.0092  <S**2>=0.000
     154 ->157         0.66945
     156 ->158         0.17832

 Excited State   4:      Singlet-A      3.4380 eV  360.63 nm  f=0.4034  <S**2>=0.000
     153 ->157         0.42769
     154 ->157        -0.11382
     155 ->157         0.23129
     156 ->158         0.45970

 Excited State   5:      Singlet-A      3.4738 eV  356.91 nm  f=0.1875  <S**2>=0.000
     150 ->157         0.12362
     151 ->157         0.43915
     151 ->159        -0.25036
     151 ->161         0.14938
     152 ->157         0.13458
     152 ->159        -0.10112
     153 ->157        -0.18333
     155 ->157         0.15983
     156 ->158         0.27639

 The electronic state is 1-A.
 Alpha  occ. eigenvalues --  -46.90225 -19.25091 -19.18871 -19.18867 -19.18082
 Alpha  occ. eigenvalues --  -14.42444 -14.41987 -14.40152 -14.39553 -10.38741
 Alpha  occ. eigenvalues --  -10.34983 -10.34335 -10.32473 -10.32021 -10.31403
 Alpha  occ. eigenvalues --  -10.30992 -10.30941 -10.30751 -10.30718 -10.29968
 Alpha  occ. eigenvalues --  -10.29863 -10.28868 -10.28832 -10.28742 -10.28416
 Alpha  occ. eigenvalues --  -10.28397 -10.28167 -10.28111 -10.28077 -10.27864
 Alpha  occ. eigenvalues --  -10.27682 -10.27453 -10.27027 -10.27002 -10.26924
 Alpha  occ. eigenvalues --  -10.26810 -10.26607 -10.26427 -10.26205 -10.25799
 Alpha  occ. eigenvalues --  -10.25649 -10.25530 -10.25062  -3.18532  -1.93395
 Alpha  occ. eigenvalues --   -1.93019  -1.92809  -1.17077  -1.10227  -1.08831
 Alpha  occ. eigenvalues --   -1.07717  -1.04614  -1.03691  -1.02410  -1.01615
 Alpha  occ. eigenvalues --   -0.91959  -0.88964  -0.88832  -0.88266  -0.87101
 Alpha  occ. eigenvalues --   -0.86132  -0.85369  -0.84699  -0.84056  -0.82865
 Alpha  occ. eigenvalues --   -0.82632  -0.81107  -0.80267  -0.77913  -0.77361
 Alpha  occ. eigenvalues --   -0.76401  -0.76312  -0.74978  -0.72868  -0.71734
 Alpha  occ. eigenvalues --   -0.68913  -0.68538  -0.68133  -0.66694  -0.65595
 Alpha  occ. eigenvalues --   -0.65206  -0.64768  -0.64043  -0.62431  -0.60297
 Alpha  occ. eigenvalues --   -0.59284  -0.58991  -0.58704  -0.57815  -0.57275
 Alpha  occ. eigenvalues --   -0.56329  -0.55853  -0.55047  -0.54919  -0.54522
 Alpha  occ. eigenvalues --   -0.53876  -0.53544  -0.53069  -0.52628  -0.52503
 Alpha  occ. eigenvalues --   -0.52031  -0.51763  -0.51538  -0.50683  -0.50170
 Alpha  occ. eigenvalues --   -0.49815  -0.49701  -0.49494  -0.49226  -0.48960
 Alpha  occ. eigenvalues --   -0.48519  -0.48269  -0.47808  -0.47313  -0.46961
 Alpha  occ. eigenvalues --   -0.46911  -0.46606  -0.46301  -0.45814  -0.45610
 Alpha  occ. eigenvalues --   -0.45318  -0.45191  -0.45107  -0.44903  -0.44365
 Alpha  occ. eigenvalues --   -0.43958  -0.43686  -0.43584  -0.43223  -0.42897
 Alpha  occ. eigenvalues --   -0.42398  -0.42006  -0.41502  -0.41414  -0.41295
 Alpha  occ. eigenvalues --   -0.40869  -0.40129  -0.40033  -0.39812  -0.38651
 Alpha  occ. eigenvalues --   -0.38000  -0.37428  -0.37121  -0.36757  -0.36392
 Alpha  occ. eigenvalues --   -0.35720  -0.34260  -0.34113  -0.33357  -0.31391
 Alpha  occ. eigenvalues --   -0.30753  -0.30686  -0.30284  -0.28932  -0.24292
 Alpha  occ. eigenvalues --   -0.21326
 Alpha virt. eigenvalues --   -0.08777  -0.02565   0.00256   0.01022   0.02419
 Alpha virt. eigenvalues --    0.04776   0.05179   0.06866   0.07215   0.08258
 Alpha virt. eigenvalues --    0.08872   0.09156   0.09496   0.09751   0.10276

 Mulliken charges:
               1
     1  Mg   0.797867
     2  C   -0.036701
     3  C   -0.070839
     4  C   -0.077133
     5  C   -0.054685
     6  N   -0.272520
     7  C   -0.080784
     8  C    0.045262
     9  C   -0.097964
    10  C    0.052130
    11  C    0.066811
    12  C    0.027869
    13  C   -0.088111
    14  H   -0.001848
    15  N   -0.385192
    16  C    0.152563
    17  C   -0.162130
    18  C   -0.043895
    19  C    0.179765
    20  C    0.134137
    21  C   -0.016074
    22  O   -0.208808
    23  C    0.072033
    24  N   -0.266985
    25  C    0.035311
    26  C   -0.103018
    27  C   -0.021025
    28  C    0.045148
    29  C    0.063545
    30  C    0.013872
    31  C    0.005699
    32  N   -0.415101
    33  C    0.151563
    34  C   -0.182099
    35  C    0.019910
    36  C    0.157402
    37  C    0.133120
    38  C    0.018826
    39  O   -0.199875
    40  C    0.025213
    41  C    0.168512
    42  O   -0.208127
    43  O   -0.315796
    44  C    0.170905
    45  H   -0.010146
    46  H   -0.043553
    47  H   -0.026144
    48  H    0.011854
    49  H    0.039721
    50  H    0.011450
    51  H    0.023580
    52  H    0.022377
    53  H    0.018909
    54  H    0.017414
    55  H    0.066831
    56  H    0.028865
    57  H    0.005342
    58  H    0.022593
    59  H    0.038062
    60  H    0.042208
    61  H    0.027731
    62  H    0.033343
    63  H    0.018881
    64  H   -0.001364
    65  H    0.024997
    66  H    0.010907
    67  H    0.026166
    68  H    0.015037
    69  H    0.011873
    70  H    0.032827
    71  H    0.007433
    72  H    0.006344
    73  H    0.031444
    74  H    0.034531
    75  H    0.039897
    76  H    0.036012
    77  H    0.053520
    78  H    0.040570
    79  H    0.051733
 Sum of Mulliken charges =  -0.00000

 Dipole moment (field-independent basis, Debye):
    X=             -0.8542    Y=              1.2674    Z=             -1.7570  Tot=              2.3287
 Quadrupole moment (field-independent basis, Debye-Ang):
   XX=           -267.0693   YY=           -245.6396   ZZ=           -257.1028
   XY=            -51.1963   XZ=              7.3270   YZ=              6.3155

 Normal termination of Gaussian 16 at Tue Oct 12 13:04:08 2021.
