 Gaussian 16, Revision A.03,
 Gaussian 16:  ES64L-G16RevA.03 25-Dec-2016

 ----------------------------------------------------------
 #p cam-b3lyp/Def2SVP td=(nstates=5) density=(transition=1)
 ----------------------------------------------------------

 --------------------------------
 TDDFT excited states in gaussian
 --------------------------------
 Symbolic Z-matrix:
 Charge =  0 Multiplicity = 1

                         Standard orientation:
 ---------------------------------------------------------------------
 Center     Atomic      Atomic             Coordinates (Angstroms)
 Number     Number       Type             X           Y           Z
 ---------------------------------------------------------------------
      1         12           0       24.833137    0.010433    0.153814
      2          6           0       21.687905   -1.250625   -0.173678
      3          6           0       25.123433   -0.193047   -3.296341
      4          6           0       27.773954    1.603514    0.447554
      5          6           0       24.186634    0.791825    3.523863
      6          7           0       23.430846   -0.413320   -1.562574
      7          6           0       22.207750   -0.953893   -1.391717
      8          6           0       21.489865   -1.155646   -2.675973
      9          6           0       22.790608   -1.162215   -3.696034
     10          6           0       23.892398   -0.544047   -2.809776
     11          6           0       23.111991   -2.578925   -4.256960
     12          6           0       20.556277    0.016815   -2.931924
     13          6           0       21.148554    1.501720   -2.931872
     14          1           0       20.666643    2.524137   -3.953549
     15          7           0       26.249172    0.622386   -1.214343
     16          6           0       26.258846    0.323960   -2.600389
     17          6           0       27.543098    0.690382   -3.096959
     18          6           0       28.316822    1.251850   -2.088766
     19          6           0       27.506249    1.158479   -0.862865
     20          6           0       27.836049    0.443708   -4.562947
     21          6           0       29.675196    1.897847   -2.221932
     22          8           0       30.158555    1.912763   -3.381398
     23          6           0       30.345268    2.656777   -1.219903
     24          7           0       25.727584    1.240231    1.725695
     25          6           0       26.994815    1.729312    1.602278
     26          6           0       27.446022    2.450974    2.894685
     27          6           0       26.256468    2.169082    3.873196
     28          6           0       25.288034    1.416385    2.976545
     29          6           0       28.793811    1.988676    3.405861
     30          6           0       25.658079    3.547345    4.481358
     31          6           0       25.320327    3.476669    5.974981
     32          7           0       23.249921   -0.169766    1.521464
     33          6           0       23.179687   -0.011997    2.868616
     34          6           0       21.975374   -0.665578    3.303743
     35          6           0       21.315699   -1.237076    2.161066
     36          6           0       22.133257   -0.874109    1.103567
     37          6           0       21.364839   -0.532481    4.656814
     38          6           0       20.176923   -1.913553    1.628515
     39          8           0       19.248521   -2.365607    2.310478
     40          6           0       20.395619   -1.975350    0.128107
     41          6           0       20.402525   -3.398446   -0.289678
     42          8           0       19.437308   -4.093988   -0.041593
     43          8           0       21.494863   -3.772997   -1.010847
     44          6           0       21.502099   -5.170122   -1.448915
     45          1           0       25.319721   -0.508444   -4.323092
     46          1           0       28.817959    1.899050    0.569306
     47          1           0       23.985969    0.836597    4.596627
     48          1           0       20.873130   -2.047594   -2.786739
     49          1           0       22.559907   -0.635351   -4.622850
     50          1           0       23.070097   -2.566455   -5.345471
     51          1           0       22.324035   -3.243831   -3.902232
     52          1           0       24.066256   -2.993350   -3.929209
     53          1           0       19.717974   -0.088743   -2.242990
     54          1           0       20.070730   -0.279091   -3.861785
     55          1           0       22.228823    1.580208   -3.054892
     56          1           0       20.806120    1.871786   -1.965931
     57          1           0       27.441715    1.314934   -5.086321
     58          1           0       27.276394   -0.431053   -4.891762
     59          1           0       28.882194    0.289810   -4.829208
     60          1           0       30.981918    3.428392   -1.653937
     61          1           0       30.848539    2.043824   -0.471058
     62          1           0       29.558621    3.245955   -0.750523
     63          1           0       27.463791    3.499657    2.595906
     64          1           0       26.573634    1.452951    4.631016
     65          1           0       29.305491    1.292853    2.741479
     66          1           0       28.919431    1.631333    4.427575
     67          1           0       29.413462    2.874399    3.262742
     68          1           0       24.749866    3.890785    3.985969
     69          1           0       26.325120    4.392586    4.312815
     70          1           0       26.066572    4.057313    6.516587
     71          1           0       25.453214    2.446080    6.304802
     72          1           0       24.324725    3.856432    6.204979
     73          1           0       21.880318   -1.006756    5.491077
     74          1           0       20.357364   -0.937437    4.554208
     75          1           0       21.287561    0.508297    4.971500
     76          1           0       19.539366   -1.472815   -0.322718
     77          1           0       20.601958   -5.336976   -2.041224
     78          1           0       21.601359   -5.881592   -0.628967
     79          1           0       22.419569   -5.397581   -1.991499
     80         12           0      -24.906737    0.716779    0.084600
     81          6           0      -22.073530   -1.671751    0.369871
     82          6           0      -26.833673   -2.041760    0.402879
     83          6           0      -27.233264    2.800256   -0.457638
     84          6           0      -22.485478    3.085134   -1.011902
     85          7           0      -24.467543   -1.564719    0.299912
     86          6           0      -23.284461   -2.230857    0.571478
     87          6           0      -23.460444   -3.681265    1.035555
     88          6           0      -24.941289   -3.891393    0.592509
     89          6           0      -25.488191   -2.423674    0.403536
     90          6           0      -25.126362   -4.711777   -0.645079
     91          6           0      -23.144532   -3.995958    2.536246
     92          6           0      -22.634375   -5.356385    2.876389
     93          1           0      -23.136353   -5.929701    4.197806
     94          7           0      -26.841798    0.441431    0.026217
     95          6           0      -27.503316   -0.785598    0.242120
     96          6           0      -28.909413   -0.513477    0.324023
     97          6           0      -28.989515    0.943448    0.225944
     98          6           0      -27.682728    1.412607   -0.063929
     99          6           0      -30.020018   -1.579851    0.648444
    100          6           0      -30.238455    1.753426    0.394480
    101          8           0      -30.251531    2.998437    0.235790
    102          6           0      -31.538717    1.167420    0.808620
    103          7           0      -24.938544    2.601336   -0.774155
    104          6           0      -26.064153    3.310219   -0.881101
    105          6           0      -25.852466    4.756157   -1.433837
    106          6           0      -24.311424    4.897465   -1.145420
    107          6           0      -23.849103    3.421177   -1.006262
    108          6           0      -26.165085    4.856904   -2.961554
    109          6           0      -24.019633    5.687751    0.198833
    110          6           0      -24.643879    7.083344    0.408672
    111          7           0      -22.730314    0.754846   -0.218968
    112          6           0      -21.925433    1.821624   -0.602223
    113          6           0      -20.549173    1.389643   -0.673057
    114          6           0      -20.558984    0.049410   -0.266014
    115          6           0      -21.915018   -0.335300   -0.078544
    116          6           0      -19.357432    2.239586   -0.960602
    117          6           0      -19.702894   -1.100854   -0.007359
    118          8           0      -18.492102   -1.279094   -0.020353
    119          6           0      -20.733727   -2.231298    0.513101
    120          6           0      -20.448851   -3.414395   -0.280524
    121          8           0      -20.572198   -3.534800   -1.509576
    122          8           0      -19.620893   -4.215740    0.452176
    123          6           0      -19.129880   -5.427056   -0.122351
    124          1           0      -27.389798   -2.946598    0.657443
    125          1           0      -28.002309    3.550582   -0.651703
    126          1           0      -21.788485    3.859621   -1.339915
    127          1           0      -22.814576   -4.297418    0.409644
    128          1           0      -25.537063   -4.275652    1.419928
    129          1           0      -25.408415   -4.023913   -1.442219
    130          1           0      -25.965648   -5.394047   -0.510918
    131          1           0      -24.270485   -5.288098   -0.995855
    132          1           0      -24.082569   -3.896615    3.081688
    133          1           0      -22.478345   -3.212766    2.897060
    134          1           0      -21.555625   -5.214045    2.937496
    135          1           0      -22.686164   -6.046331    2.034022
    136          1           0      -30.444466   -1.526504    1.650553
    137          1           0      -29.675154   -2.590782    0.432871
    138          1           0      -30.771898   -1.335870   -0.103084
    139          1           0      -31.963761    0.641719   -0.046794
    140          1           0      -32.165808    2.014646    1.087563
    141          1           0      -31.335281    0.554317    1.685954
    142          1           0      -26.512008    5.396889   -0.847574
    143          1           0      -23.721726    5.351871   -1.941003
    144          1           0      -27.053741    5.482046   -3.052164
    145          1           0      -26.279407    3.909888   -3.487995
    146          1           0      -25.293131    5.402790   -3.324629
    147          1           0      -22.947875    5.874699    0.261429
    148          1           0      -24.251200    4.996752    1.009193
    149          1           0      -25.234919    6.985410    1.319142
    150          1           0      -25.307953    7.207175   -0.447245
    151          1           0      -23.893848    7.863992    0.534842
    152          1           0      -19.730624    3.260734   -0.879277
    153          1           0      -19.067473    2.012166   -1.986383
    154          1           0      -18.496891    2.029611   -0.325426
    155          1           0      -20.560354   -2.422292    1.571984
    156          1           0      -19.526003   -5.589048   -1.125063
    157          1           0      -19.514919   -6.219285    0.519814
    158          1           0      -18.044980   -5.488366   -0.049503
 ---------------------------------------------------------------------

 SCF Done:  E(RCAM-B3LYP) =  -4069.80615859     A.U. after   17 cycles

 Excitation energies and oscillator strengths:

 Excited State   1:      Singlet-A      1.6590 eV  747.34 nm  f=0.3929  <S**2>=0.000
     310 -> 316       -0.15615
     311 -> 313        0.69165
     310 <- 316       -0.10434
 This state for optimization and/or second-order correction.
 Total Energy, E(TD-HF/TD-DFT) =  -4069.74519129
 Copying the excited state density for this state as the 1-particle RhoCI density.

 Excited State   2:      Singlet-A      1.7418 eV  711.82 nm  f=0.3895  <S**2>=0.000
     309 -> 315       -0.17692
     312 -> 314        0.68527
     309 <- 315       -0.10390

 Excited State   3:      Singlet-A      2.1782 eV  569.21 nm  f=0.2164  <S**2>=0.000
     310 -> 313        0.66763
     311 -> 316        0.21693

 Excited State   4:      Singlet-A      2.2176 eV  559.10 nm  f=0.1293  <S**2>=0.000
     309 -> 314        0.65061
     312 -> 315        0.25321

 Excited State   5:      Singlet-A      3.0798 eV  402.57 nm  f=0.0000  <S**2>=0.000
     312 -> 313        0.70710

 The electronic state is 1-A.
 Alpha  occ. eigenvalues --  -46.89107 -46.88881 -19.26390 -19.24788 -19.19872
 Alpha  occ. eigenvalues --  -19.19475 -19.19397 -19.18276 -19.18161 -19.17420
 Alpha  occ. eigenvalues --  -14.42291 -14.42078 -14.42059 -14.41415 -14.39788
 Alpha  occ. eigenvalues --  -14.39689 -14.39554 -14.38604 -10.39464 -10.39123
 Alpha  occ. eigenvalues --  -10.35958 -10.34836 -10.34446 -10.33977 -10.32741
 Alpha  occ. eigenvalues --  -10.31678 -10.31392 -10.31216 -10.31185 -10.31099
 Alpha  occ. eigenvalues --  -10.30786 -10.30716 -10.30682 -10.30519 -10.30434
 Alpha  occ. eigenvalues --  -10.30386 -10.30348 -10.30210 -10.29835 -10.29199
 Alpha  occ. eigenvalues --  -10.29056 -10.29042 -10.29041 -10.28937 -10.28558
 Alpha  occ. eigenvalues --  -10.28457 -10.28374 -10.28339 -10.28293 -10.28277
 Alpha  occ. eigenvalues --  -10.28206 -10.28105 -10.28099 -10.28094 -10.28019
 Alpha  occ. eigenvalues --  -10.27998 -10.27982 -10.27907 -10.27753 -10.27730
 Alpha  occ. eigenvalues --  -10.27406 -10.27398 -10.27368 -10.27358 -10.27292
 Alpha  occ. eigenvalues --  -10.27226 -10.27173 -10.27032 -10.26994 -10.26771
 Alpha  occ. eigenvalues --  -10.26699 -10.26545 -10.26467 -10.26374 -10.26338
 Alpha  occ. eigenvalues --  -10.26174 -10.25929 -10.25715 -10.25617 -10.25604
 Alpha  occ. eigenvalues --  -10.25581 -10.25553 -10.25523 -10.25522 -10.24970
 Alpha  occ. eigenvalues --  -10.24550  -3.17560  -3.17542  -1.92436  -1.92411
 Alpha  occ. eigenvalues --   -1.92035  -1.91994  -1.91864  -1.91842  -1.17414
 Alpha  occ. eigenvalues --   -1.16516  -1.10206  -1.09050  -1.08397  -1.07991
 Alpha  occ. eigenvalues --   -1.07452  -1.06999  -1.04983  -1.04898  -1.04542
 Alpha  occ. eigenvalues --   -1.04018  -1.03645  -1.02730  -1.02517  -1.01514
 Alpha  occ. eigenvalues --   -0.94070  -0.93686  -0.89537  -0.89281  -0.89045
 Alpha  occ. eigenvalues --   -0.88782  -0.88748  -0.88031  -0.87790  -0.87446
 Alpha  occ. eigenvalues --   -0.86822  -0.86326  -0.86225  -0.85845  -0.85099
 Alpha  occ. eigenvalues --   -0.84726  -0.84129  -0.84023  -0.83352  -0.83130
 Alpha  occ. eigenvalues --   -0.82802  -0.82058  -0.81457  -0.81048  -0.80898
 Alpha  occ. eigenvalues --   -0.80838  -0.78624  -0.78552  -0.77992  -0.77472
 Alpha  occ. eigenvalues --   -0.77271  -0.77060  -0.76210  -0.76162  -0.75430
 Alpha  occ. eigenvalues --   -0.74958  -0.73342  -0.72513  -0.72125  -0.70929
 Alpha  occ. eigenvalues --   -0.70148  -0.69276  -0.69122  -0.68845  -0.68630
 Alpha  occ. eigenvalues --   -0.68157  -0.67130  -0.66927  -0.66561  -0.65685
 Alpha  occ. eigenvalues --   -0.65337  -0.65215  -0.65120  -0.64887  -0.64464
 Alpha  occ. eigenvalues --   -0.64390  -0.63825  -0.62038  -0.60737  -0.60242
 Alpha  occ. eigenvalues --   -0.59765  -0.59734  -0.59507  -0.59340  -0.58846
 Alpha  occ. eigenvalues --   -0.58826  -0.58387  -0.58383  -0.58022  -0.57666
 Alpha  occ. eigenvalues --   -0.56842  -0.56587  -0.55890  -0.55805  -0.55616
 Alpha  occ. eigenvalues --   -0.55159  -0.54869  -0.54610  -0.54519  -0.54252
 Alpha  occ. eigenvalues --   -0.54184  -0.53754  -0.53683  -0.53485  -0.53216
 Alpha  occ. eigenvalues --   -0.53074  -0.52860  -0.52546  -0.52485  -0.52399
 Alpha  occ. eigenvalues --   -0.51888  -0.51825  -0.51744  -0.51432  -0.51406
 Alpha  occ. eigenvalues --   -0.51210  -0.51080  -0.51007  -0.50920  -0.50332
 Alpha  occ. eigenvalues --   -0.50287  -0.49891  -0.49831  -0.49705  -0.49600
 Alpha  occ. eigenvalues --   -0.49480  -0.49470  -0.49196  -0.49117  -0.48753
 Alpha  occ. eigenvalues --   -0.48719  -0.48685  -0.48475  -0.48315  -0.48158
 Alpha  occ. eigenvalues --   -0.48138  -0.47846  -0.47628  -0.47558  -0.47249
 Alpha  occ. eigenvalues --   -0.47096  -0.46724  -0.46512  -0.46429  -0.46407
 Alpha  occ. eigenvalues --   -0.46369  -0.46182  -0.46053  -0.45935  -0.45736
 Alpha  occ. eigenvalues --   -0.45641  -0.45380  -0.45232  -0.45103  -0.44962
 Alpha  occ. eigenvalues --   -0.44859  -0.44824  -0.44657  -0.44620  -0.44539
 Alpha  occ. eigenvalues --   -0.44350  -0.43936  -0.43733  -0.43690  -0.43547
 Alpha  occ. eigenvalues --   -0.43258  -0.43076  -0.42831  -0.42811  -0.42669
 Alpha  occ. eigenvalues --   -0.42439  -0.42305  -0.42245  -0.42098  -0.41997
 Alpha  occ. eigenvalues --   -0.41905  -0.41784  -0.41616  -0.41323  -0.41274
 Alpha  occ. eigenvalues --   -0.41150  -0.40959  -0.40671  -0.40621  -0.40481
 Alpha  occ. eigenvalues --   -0.39799  -0.39528  -0.39472  -0.39252  -0.39194
 Alpha  occ. eigenvalues --   -0.38678  -0.38564  -0.38226  -0.37829  -0.37749
 Alpha  occ. eigenvalues --   -0.37692  -0.37518  -0.37168  -0.36887  -0.36388
 Alpha  occ. eigenvalues --   -0.35967  -0.35805  -0.34693  -0.34599  -0.34295
 Alpha  occ. eigenvalues --   -0.33992  -0.33121  -0.33104  -0.31779  -0.31552
 Alpha  occ. eigenvalues --   -0.31380  -0.30878  -0.30441  -0.30118  -0.30099
 Alpha  occ. eigenvalues --   -0.29876  -0.29794  -0.28986  -0.24296  -0.24255
 Alpha  occ. eigenvalues --   -0.21713  -0.21666
 Alpha virt. eigenvalues --   -0.09642  -0.09139  -0.01881  -0.00761   0.00151
 Alpha virt. eigenvalues --    0.00307   0.01344   0.01758   0.02016   0.02270
 Alpha virt. eigenvalues --    0.03946   0.04991   0.04993   0.05513   0.05988

 Mulliken charges:
               1
     1  Mg  12.000000
     2  C    5.999977
     3  C    5.999907
     4  C    6.000044
     5  C    6.000125
     6  N    6.999965
     7  C    5.999907
     8  C    6.000081
     9  C    5.999935
    10  C    6.000125
    11  C    5.999987
    12  C    6.000051
    13  C    6.000032
    14  H    0.999906
    15  N    6.999982
    16  C    6.000252
    17  C    6.000091
    18  C    6.000081
    19  C    6.000169
    20  C    5.999956
    21  C    6.000100
    22  O    8.000141
    23  C    5.999948
    24  N    7.000035
    25  C    6.000065
    26  C    5.999968
    27  C    6.000049
    28  C    5.999841
    29  C    5.999968
    30  C    6.000017
    31  C    6.000002
    32  N    6.999982
    33  C    5.999774
    34  C    5.999889
    35  C    5.999931
    36  C    5.999872
    37  C    6.000056
    38  C    5.999881
    39  O    7.999809
    40  C    6.000013
    41  C    5.999992
    42  O    7.999934
    43  O    8.000015
    44  C    6.000007
    45  H    1.000043
    46  H    1.000078
    47  H    0.999990
    48  H    0.999963
    49  H    1.000000
    50  H    1.000007
    51  H    1.000044
    52  H    1.000024
    53  H    0.999976
    54  H    0.999913
    55  H    0.999970
    56  H    1.000018
    57  H    1.000102
    58  H    1.000101
    59  H    1.000123
    60  H    1.000104
    61  H    1.000089
    62  H    1.000019
    63  H    1.000013
    64  H    1.000027
    65  H    1.000006
    66  H    1.000084
    67  H    1.000035
    68  H    0.999971
    69  H    0.999974
    70  H    1.000013
    71  H    1.000022
    72  H    0.999979
    73  H    0.999896
    74  H    0.999883
    75  H    0.999852
    76  H    0.999881
    77  H    0.999939
    78  H    1.000007
    79  H    0.999988
    80  Mg  11.997452
    81  C    5.963083
    82  C    5.984389
    83  C    6.037595
    84  C    6.004433
    85  N    6.970778
    86  C    6.036334
    87  C    5.985397
    88  C    6.001026
    89  C    5.987874
    90  C    6.004224
    91  C    5.997954
    92  C    6.001147
    93  H    1.004494
    94  N    7.006217
    95  C    5.963922
    96  C    5.979189
    97  C    5.985882
    98  C    5.966969
    99  C    6.000860
   100  C    5.988087
   101  O    7.964208
   102  C    6.005419
   103  N    7.025672
   104  C    5.961937
   105  C    6.005127
   106  C    5.995400
   107  C    6.018631
   108  C    6.000309
   109  C    5.995103
   110  C    6.000362
   111  N    6.995723
   112  C    6.034290
   113  C    6.033313
   114  C    5.998275
   115  C    6.045786
   116  C    5.996074
   117  C    6.012825
   118  O    8.025903
   119  C    6.008279
   120  C    6.005913
   121  O    8.003192
   122  O    8.000422
   123  C    5.996579
   124  H    0.977067
   125  H    1.002632
   126  H    1.017724
   127  H    0.999642
   128  H    0.999795
   129  H    1.000337
   130  H    0.998547
   131  H    0.983459
   132  H    1.012009
   133  H    0.993384
   134  H    0.994538
   135  H    1.002138
   136  H    0.979485
   137  H    0.985382
   138  H    0.983357
   139  H    0.991399
   140  H    0.984439
   141  H    0.995250
   142  H    1.005793
   143  H    1.002124
   144  H    1.004735
   145  H    1.003186
   146  H    0.991830
   147  H    0.998130
   148  H    1.006980
   149  H    1.008058
   150  H    1.005985
   151  H    1.002477
   152  H    1.014750
   153  H    1.022710
   154  H    1.020611
   155  H    1.005161
   156  H    1.003692
   157  H    1.006116
   158  H    1.001029
 Sum of Mulliken charges = 624.00000

 Dipole moment (field-independent basis, Debye):
    X=             10.6926    Y=              2.9998    Z=             -1.2476  Tot=             11.1753
 Quadrupole moment (field-independent basis, Debye-Ang):
   XX=           -525.6328   YY=              6.2984   ZZ=              1.0031
   XY=            -69.3348   XZ=             28.7364   YZ=             -2.2815

 Normal termination of Gaussian 16 at Wed Sep 22 17:10:58 2021.
