 Gaussian 16, Revision A.03,
 Gaussian 16:  ES64L-G16RevA.03 25-Dec-2016

 -----------------------------------
 #p cam-b3lyp/Def2SVP td=(nstates=5)
 -----------------------------------

 --------------------------------
 TDDFT excited states in gaussian
 --------------------------------
 Symbolic Z-matrix:
 Charge =  0 Multiplicity = 1

                         Standard orientation:
 ---------------------------------------------------------------------
 Center     Atomic      Atomic             Coordinates (Angstroms)
 Number     Number       Type             X           Y           Z
 ---------------------------------------------------------------------
      1         12           0       25.217577   -0.637844    0.198702
      2          6           0       24.289683    2.681229    0.795109
      3          6           0       26.321885    0.436598   -2.910007
      4          6           0       25.688585   -3.769938   -0.535742
      5          6           0       23.805829   -1.494712    3.331819
      6          7           0       24.928337    1.305267   -1.109547
      7          6           0       24.682650    2.505463   -0.574207
      8          6           0       24.910855    3.530984   -1.633867
      9          6           0       25.137243    2.722456   -2.934867
     10          6           0       25.521288    1.395491   -2.310785
     11          6           0       24.011793    2.603827   -3.964068
     12          6           0       26.128265    4.451366   -1.302701
     13          6           0       25.956968    6.001346   -1.406619
     14          1           0       24.942008    6.587302   -2.437110
     15          7           0       26.065809   -1.548220   -1.473266
     16          6           0       26.617822   -0.873702   -2.554224
     17          6           0       27.212031   -1.865324   -3.390394
     18          6           0       26.931745   -3.155670   -2.785422
     19          6           0       26.215965   -2.892327   -1.545989
     20          6           0       27.889576   -1.577390   -4.748012
     21          6           0       27.230188   -4.588870   -3.312105
     22          8           0       26.938073   -5.591279   -2.740914
     23          6           0       28.003533   -4.669920   -4.613548
     24          7           0       24.805864   -2.346848    1.275047
     25          6           0       25.041410   -3.552812    0.711531
     26          6           0       24.669034   -4.756793    1.620012
     27          6           0       24.318138   -3.984911    2.963883
     28          6           0       24.325866   -2.519164    2.546311
     29          6           0       23.455405   -5.628622    0.953939
     30          6           0       25.224607   -4.381361    4.171337
     31          6           0       26.398634   -3.478197    4.504358
     32          7           0       24.258997    0.342467    1.825831
     33          6           0       23.832900   -0.118038    3.042355
     34          6           0       23.313847    1.054318    3.830699
     35          6           0       23.485716    2.160951    2.968704
     36          6           0       24.029797    1.694806    1.726248
     37          6           0       22.592821    1.030550    5.151060
     38          6           0       23.299417    3.603632    2.834442
     39          8           0       22.818251    4.386959    3.658123
     40          6           0       23.957376    3.982162    1.510863
     41          6           0       22.942566    4.808773    0.774286
     42          8           0       21.976354    4.367306    0.179683
     43          8           0       23.216202    6.067469    1.075681
     44          6           0       22.183436    7.067734    0.855692
     45          1           0       26.537397    0.738728   -3.936550
     46          1           0       26.002351   -4.804943   -0.684556
     47          1           0       23.384447   -1.758374    4.304442
     48          1           0       24.026214    4.163455   -1.700845
     49          1           0       25.937518    3.234322   -3.469492
     50          1           0       23.093480    3.147986   -3.742687
     51          1           0       23.747321    1.556724   -4.114107
     52          1           0       24.419308    2.987560   -4.899104
     53          1           0       27.042046    4.168835   -1.825047
     54          1           0       26.276820    4.168174   -0.260759
     55          1           0       26.956523    6.346944   -1.673351
     56          1           0       25.690712    6.387125   -0.422885
     57          1           0       27.490881   -2.179255   -5.564712
     58          1           0       28.940611   -1.866543   -4.755550
     59          1           0       27.863467   -0.530424   -5.053021
     60          1           0       28.911824   -4.067054   -4.604069
     61          1           0       27.326164   -4.398747   -5.423420
     62          1           0       28.215925   -5.709375   -4.863524
     63          1           0       25.505376   -5.438195    1.775006
     64          1           0       23.326821   -4.225456    3.347719
     65          1           0       22.591017   -5.407267    1.580130
     66          1           0       23.578797   -6.705463    1.071335
     67          1           0       23.178491   -5.310236   -0.051708
     68          1           0       25.696946   -5.308289    3.845763
     69          1           0       24.650784   -4.588902    5.074298
     70          1           0       26.835111   -3.246379    3.532075
     71          1           0       27.008597   -4.142988    5.115547
     72          1           0       26.239928   -2.496125    4.949092
     73          1           0       22.339139    0.066254    5.591483
     74          1           0       21.646349    1.562005    5.050816
     75          1           0       23.201883    1.642863    5.815308
     76          1           0       24.790744    4.679626    1.597646
     77          1           0       21.184590    6.762843    0.545165
     78          1           0       22.577414    7.630267    0.008707
     79          1           0       22.332576    7.872278    1.575913
     80         12           0      -24.350367   -0.808576    0.104804
     81          6           0      -25.981978    2.352609    0.528578
     82          6           0      -22.781357    0.633610   -2.706224
     83          6           0      -23.340647   -3.770308   -0.850589
     84          6           0      -26.246121   -2.073969    2.628168
     85          7           0      -24.364636    1.273871   -0.903478
     86          6           0      -25.031439    2.358635   -0.440922
     87          6           0      -24.594373    3.574467   -1.241274
     88          6           0      -23.542030    3.108466   -2.286540
     89          6           0      -23.520908    1.605529   -1.947547
     90          6           0      -23.943101    3.470317   -3.826101
     91          6           0      -23.974848    4.719626   -0.330986
     92          6           0      -24.491893    6.138582   -0.570094
     93          1           0      -24.920599    6.617129   -2.015101
     94          7           0      -23.249484   -1.488143   -1.596951
     95          6           0      -22.709389   -0.761595   -2.552351
     96          6           0      -22.046639   -1.662155   -3.453019
     97          6           0      -22.032504   -2.969995   -2.905320
     98          6           0      -22.910961   -2.793517   -1.778687
     99          6           0      -21.208426   -1.178922   -4.635409
    100          6           0      -21.283950   -4.252234   -3.233825
    101          8           0      -21.484026   -5.303555   -2.653557
    102          6           0      -20.218903   -4.143800   -4.290167
    103          7           0      -25.030419   -2.679936    0.586911
    104          6           0      -24.278398   -3.784417    0.182332
    105          6           0      -24.539615   -5.048389    1.045838
    106          6           0      -25.344188   -4.383446    2.225613
    107          6           0      -25.562966   -2.931934    1.799028
    108          6           0      -25.290547   -6.117132    0.238466
    109          6           0      -24.542930   -4.356805    3.612175
    110          6           0      -24.950835   -5.306776    4.687896
    111          7           0      -25.704005   -0.042865    1.391148
    112          6           0      -26.425852   -0.704746    2.360783
    113          6           0      -27.428694    0.144083    2.998787
    114          6           0      -27.291701    1.397234    2.301631
    115          6           0      -26.339438    1.190496    1.275797
    116          6           0      -28.187179   -0.231694    4.220029
    117          6           0      -27.706613    2.791194    2.266116
    118          8           0      -28.513952    3.353918    3.027937
    119          6           0      -26.871932    3.497461    1.052899
    120          6           0      -27.888075    3.941303    0.111834
    121          8           0      -28.710612    3.205151   -0.387628
    122          8           0      -27.788107    5.252612   -0.136042
    123          6           0      -28.751206    5.973180   -1.026534
    124          1           0      -22.212353    1.047579   -3.541176
    125          1           0      -22.744401   -4.685582   -0.827667
    126          1           0      -26.769706   -2.502634    3.484918
    127          1           0      -25.472995    3.936771   -1.775019
    128          1           0      -22.593692    3.633952   -2.172923
    129          1           0      -24.647081    4.301915   -3.858494
    130          1           0      -24.366262    2.548497   -4.226046
    131          1           0      -23.044028    3.715126   -4.391407
    132          1           0      -22.886668    4.764223   -0.320838
    133          1           0      -24.227379    4.523056    0.710908
    134          1           0      -23.787270    6.888691   -0.210389
    135          1           0      -25.334539    6.203183    0.118302
    136          1           0      -20.139987   -1.114765   -4.428771
    137          1           0      -21.612720   -0.262944   -5.067313
    138          1           0      -21.357918   -1.912050   -5.427725
    139          1           0      -19.605423   -3.243664   -4.241117
    140          1           0      -20.585363   -4.185432   -5.314923
    141          1           0      -19.443928   -4.882398   -4.085087
    142          1           0      -23.568469   -5.437648    1.350320
    143          1           0      -26.270546   -4.943470    2.354091
    144          1           0      -25.357333   -5.912438   -0.829967
    145          1           0      -26.323827   -6.218111    0.568623
    146          1           0      -24.803669   -7.082237    0.382322
    147          1           0      -24.552481   -3.396536    4.127793
    148          1           0      -23.469636   -4.486429    3.478082
    149          1           0      -24.142618   -6.005808    4.899105
    150          1           0      -25.811099   -5.814222    4.250985
    151          1           0      -25.187536   -4.766763    5.604612
    152          1           0      -28.363373    0.632531    4.859575
    153          1           0      -27.643776   -1.061225    4.672083
    154          1           0      -29.153455   -0.608025    3.881421
    155          1           0      -26.306527    4.360980    1.400666
    156          1           0      -29.770879    5.735197   -0.723093
    157          1           0      -28.642437    5.694351   -2.074927
    158          1           0      -28.570277    7.045780   -1.090820
 ---------------------------------------------------------------------

 SCF Done:  E(RCAM-B3LYP) =  -4069.80304596     A.U. after   18 cycles

 Excitation energies and oscillator strengths:

 Excited State   1:      Singlet-A      1.6835 eV  736.49 nm  f=0.4026  <S**2>=0.000
     309 -> 316       -0.17294
     312 -> 313        0.68701
     309 <- 316       -0.10715
 This state for optimization and/or second-order correction.
 Total Energy, E(TD-HF/TD-DFT) =  -4069.74118026
 Copying the excited state density for this state as the 1-particle RhoCI density.

 Excited State   2:      Singlet-A      1.7292 eV  716.99 nm  f=0.3985  <S**2>=0.000
     310 -> 315        0.18717
     311 -> 314        0.68375
     310 <- 315        0.10975

 Excited State   3:      Singlet-A      2.1994 eV  563.73 nm  f=0.1311  <S**2>=0.000
     309 -> 313        0.65028
     312 -> 316        0.26295

 Excited State   4:      Singlet-A      2.2139 eV  560.04 nm  f=0.1014  <S**2>=0.000
     310 -> 314        0.64251
     311 -> 315       -0.28227

 Excited State   5:      Singlet-A      3.1815 eV  389.70 nm  f=0.0000  <S**2>=0.000
     311 -> 313        0.70711

 The electronic state is 1-A.
 Alpha  occ. eigenvalues --  -46.88816 -46.88615 -19.26285 -19.25258 -19.19670
 Alpha  occ. eigenvalues --  -19.19524 -19.19439 -19.19008 -19.18647 -19.18514
 Alpha  occ. eigenvalues --  -14.41874 -14.41807 -14.41708 -14.41622 -14.39370
 Alpha  occ. eigenvalues --  -14.39340 -14.39083 -14.38763 -10.39179 -10.38497
 Alpha  occ. eigenvalues --  -10.35782 -10.35490 -10.35455 -10.34519 -10.32536
 Alpha  occ. eigenvalues --  -10.32082 -10.31327 -10.31289 -10.31096 -10.30814
 Alpha  occ. eigenvalues --  -10.30739 -10.30665 -10.30513 -10.30264 -10.29763
 Alpha  occ. eigenvalues --  -10.29645 -10.29586 -10.29579 -10.29508 -10.29408
 Alpha  occ. eigenvalues --  -10.29282 -10.29174 -10.29021 -10.29002 -10.28744
 Alpha  occ. eigenvalues --  -10.28560 -10.28400 -10.28306 -10.28232 -10.28203
 Alpha  occ. eigenvalues --  -10.28176 -10.28076 -10.28014 -10.27930 -10.27792
 Alpha  occ. eigenvalues --  -10.27722 -10.27612 -10.27587 -10.27171 -10.27147
 Alpha  occ. eigenvalues --  -10.27082 -10.27037 -10.27002 -10.26717 -10.26713
 Alpha  occ. eigenvalues --  -10.26655 -10.26630 -10.26567 -10.26515 -10.26422
 Alpha  occ. eigenvalues --  -10.26365 -10.26330 -10.26221 -10.26062 -10.26052
 Alpha  occ. eigenvalues --  -10.25971 -10.25929 -10.25820 -10.25802 -10.25572
 Alpha  occ. eigenvalues --  -10.25564 -10.25458 -10.25412 -10.25232 -10.25099
 Alpha  occ. eigenvalues --  -10.25017  -3.17273  -3.17243  -1.92181  -1.92109
 Alpha  occ. eigenvalues --   -1.91763  -1.91704  -1.91554  -1.91533  -1.18362
 Alpha  occ. eigenvalues --   -1.16556  -1.11390  -1.10840  -1.09638  -1.08698
 Alpha  occ. eigenvalues --   -1.08434  -1.07365  -1.05042  -1.04645  -1.03801
 Alpha  occ. eigenvalues --   -1.03505  -1.03140  -1.02627  -1.01887  -1.01880
 Alpha  occ. eigenvalues --   -0.93379  -0.92159  -0.88745  -0.88642  -0.88631
 Alpha  occ. eigenvalues --   -0.88260  -0.88093  -0.88049  -0.87123  -0.87103
 Alpha  occ. eigenvalues --   -0.87017  -0.86402  -0.86262  -0.85559  -0.84469
 Alpha  occ. eigenvalues --   -0.84223  -0.84120  -0.83754  -0.82660  -0.82644
 Alpha  occ. eigenvalues --   -0.81829  -0.81438  -0.81282  -0.80810  -0.80693
 Alpha  occ. eigenvalues --   -0.80049  -0.78261  -0.77935  -0.77671  -0.77367
 Alpha  occ. eigenvalues --   -0.77032  -0.76862  -0.76334  -0.76274  -0.75141
 Alpha  occ. eigenvalues --   -0.74838  -0.72702  -0.72481  -0.71735  -0.71411
 Alpha  occ. eigenvalues --   -0.69553  -0.68919  -0.68747  -0.68069  -0.67796
 Alpha  occ. eigenvalues --   -0.67646  -0.66970  -0.66126  -0.65553  -0.65294
 Alpha  occ. eigenvalues --   -0.65158  -0.64993  -0.64674  -0.64620  -0.64496
 Alpha  occ. eigenvalues --   -0.64365  -0.62835  -0.62420  -0.60497  -0.59877
 Alpha  occ. eigenvalues --   -0.59683  -0.59231  -0.59226  -0.58813  -0.58488
 Alpha  occ. eigenvalues --   -0.58486  -0.58128  -0.58039  -0.57468  -0.57335
 Alpha  occ. eigenvalues --   -0.56892  -0.56079  -0.56031  -0.55754  -0.55159
 Alpha  occ. eigenvalues --   -0.54986  -0.54818  -0.54702  -0.54363  -0.53619
 Alpha  occ. eigenvalues --   -0.53498  -0.53313  -0.53283  -0.52986  -0.52963
 Alpha  occ. eigenvalues --   -0.52911  -0.52615  -0.52546  -0.52358  -0.52090
 Alpha  occ. eigenvalues --   -0.52049  -0.51724  -0.51369  -0.51282  -0.51262
 Alpha  occ. eigenvalues --   -0.51187  -0.51070  -0.50584  -0.50524  -0.50157
 Alpha  occ. eigenvalues --   -0.50068  -0.49968  -0.49706  -0.49428  -0.49260
 Alpha  occ. eigenvalues --   -0.49224  -0.49024  -0.48870  -0.48751  -0.48695
 Alpha  occ. eigenvalues --   -0.48564  -0.48394  -0.48394  -0.48141  -0.48140
 Alpha  occ. eigenvalues --   -0.47988  -0.47714  -0.47426  -0.47327  -0.46920
 Alpha  occ. eigenvalues --   -0.46740  -0.46599  -0.46430  -0.46190  -0.46114
 Alpha  occ. eigenvalues --   -0.46041  -0.45926  -0.45890  -0.45886  -0.45681
 Alpha  occ. eigenvalues --   -0.45616  -0.45381  -0.45302  -0.45096  -0.45030
 Alpha  occ. eigenvalues --   -0.44847  -0.44507  -0.44477  -0.44233  -0.43819
 Alpha  occ. eigenvalues --   -0.43778  -0.43589  -0.43355  -0.43294  -0.43280
 Alpha  occ. eigenvalues --   -0.43087  -0.43014  -0.42970  -0.42754  -0.42738
 Alpha  occ. eigenvalues --   -0.42605  -0.42468  -0.42189  -0.41839  -0.41778
 Alpha  occ. eigenvalues --   -0.41674  -0.41512  -0.41411  -0.41285  -0.41227
 Alpha  occ. eigenvalues --   -0.41026  -0.41006  -0.40747  -0.40546  -0.40302
 Alpha  occ. eigenvalues --   -0.40287  -0.39716  -0.39643  -0.39321  -0.39316
 Alpha  occ. eigenvalues --   -0.38415  -0.38389  -0.37917  -0.37179  -0.37130
 Alpha  occ. eigenvalues --   -0.36969  -0.36742  -0.36548  -0.36418  -0.36240
 Alpha  occ. eigenvalues --   -0.36218  -0.36145  -0.34450  -0.34423  -0.34084
 Alpha  occ. eigenvalues --   -0.33759  -0.33175  -0.33006  -0.31690  -0.31430
 Alpha  occ. eigenvalues --   -0.31234  -0.30801  -0.30736  -0.30402  -0.30082
 Alpha  occ. eigenvalues --   -0.29944  -0.29389  -0.28973  -0.23828  -0.23813
 Alpha  occ. eigenvalues --   -0.21094  -0.20957
 Alpha virt. eigenvalues --   -0.08714  -0.08507  -0.01539  -0.01113   0.00120
 Alpha virt. eigenvalues --    0.00173   0.01784   0.02081   0.02799   0.02856
 Alpha virt. eigenvalues --    0.04771   0.05045   0.05526   0.05584   0.05875

 Mulliken charges:
               1
     1  Mg   0.807178
     2  C    0.010141
     3  C   -0.042598
     4  C   -0.040200
     5  C   -0.078426
     6  N   -0.216995
     7  C   -0.014090
     8  C   -0.051630
     9  C   -0.035691
    10  C   -0.041067
    11  C    0.091908
    12  C    0.029463
    13  C   -0.055139
    14  H    0.020708
    15  N   -0.403179
    16  C    0.176108
    17  C   -0.142581
    18  C   -0.065074
    19  C    0.100919
    20  C    0.112266
    21  C    0.006146
    22  O   -0.163597
    23  C    0.038891
    24  N   -0.314211
    25  C    0.051128
    26  C   -0.056851
    27  C   -0.004283
    28  C    0.059397
    29  C    0.060128
    30  C    0.013059
    31  C    0.020702
    32  N   -0.344787
    33  C    0.108671
    34  C   -0.166515
    35  C    0.012377
    36  C    0.108747
    37  C    0.113988
    38  C    0.067805
    39  O   -0.178351
    40  C   -0.028062
    41  C    0.157577
    42  O   -0.218730
    43  O   -0.295396
    44  C    0.187446
    45  H   -0.031083
    46  H   -0.001821
    47  H   -0.034054
    48  H    0.016139
    49  H   -0.005330
    50  H    0.024635
    51  H    0.019622
    52  H    0.008005
    53  H    0.014584
    54  H    0.002819
    55  H    0.029699
    56  H    0.038922
    57  H    0.016326
    58  H    0.018588
    59  H    0.011116
    60  H    0.037299
    61  H    0.030743
    62  H    0.013046
    63  H    0.024826
    64  H    0.004408
    65  H   -0.001493
    66  H    0.023667
    67  H    0.037588
    68  H   -0.001779
    69  H    0.004084
    70  H    0.009619
    71  H    0.020978
    72  H    0.019956
    73  H    0.016239
    74  H    0.039002
    75  H    0.036334
    76  H    0.044876
    77  H    0.067389
    78  H    0.009512
    79  H    0.038233
    80  Mg   0.829334
    81  C   -0.027415
    82  C   -0.081374
    83  C   -0.048333
    84  C   -0.097999
    85  N   -0.248705
    86  C   -0.030269
    87  C    0.007189
    88  C   -0.059254
    89  C    0.026570
    90  C    0.039526
    91  C    0.031804
    92  C   -0.059011
    93  H    0.004032
    94  N   -0.302853
    95  C    0.146148
    96  C   -0.169023
    97  C   -0.020017
    98  C    0.093325
    99  C    0.099922
   100  C    0.033790
   101  O   -0.186982
   102  C    0.024096
   103  N   -0.332253
   104  C   -0.001096
   105  C   -0.024807
   106  C   -0.002642
   107  C    0.080338
   108  C    0.078533
   109  C   -0.015182
   110  C    0.023910
   111  N   -0.395356
   112  C    0.148610
   113  C   -0.178814
   114  C    0.024804
   115  C    0.119056
   116  C    0.137499
   117  C    0.044571
   118  O   -0.191622
   119  C    0.008877
   120  C    0.183318
   121  O   -0.215319
   122  O   -0.324724
   123  C    0.186195
   124  H   -0.034532
   125  H   -0.001828
   126  H   -0.023802
   127  H    0.020280
   128  H    0.020912
   129  H    0.027646
   130  H    0.023988
   131  H    0.016041
   132  H    0.005691
   133  H    0.004826
   134  H    0.020175
   135  H    0.032995
   136  H    0.044429
   137  H    0.015520
   138  H    0.008532
   139  H    0.015419
   140  H    0.052137
   141  H    0.023571
   142  H    0.017657
   143  H    0.012700
   144  H    0.031330
   145  H    0.004847
   146  H    0.019359
   147  H    0.006165
   148  H   -0.004160
   149  H    0.014279
   150  H    0.005113
   151  H    0.017082
   152  H    0.042122
   153  H    0.016896
   154  H    0.031349
   155  H    0.029681
   156  H    0.052776
   157  H    0.029858
   158  H    0.042547
 Sum of Mulliken charges =  -0.00000

 Dipole moment (field-independent basis, Debye):
    X=              6.7007    Y=              2.3687    Z=             -2.0641  Tot=              7.4007
 Quadrupole moment (field-independent basis, Debye-Ang):
   XX=           -644.4129   YY=           -499.6660   ZZ=           -484.0902
   XY=             35.8553   XZ=              9.0889   YZ=            -51.8602

 Normal termination of Gaussian 16 at Thu Sep 16 14:11:19 2021.
