 Gaussian 16, Revision A.03,
 Gaussian 16:  ES64L-G16RevA.03 25-Dec-2016

 -----------------------------------
 #p cam-b3lyp/Def2SVP td=(nstates=5)
 -----------------------------------

 --------------------------------
 TDDFT excited states in gaussian
 --------------------------------
 Symbolic Z-matrix:
 Charge =  0 Multiplicity = 1

                         Standard orientation:
 ---------------------------------------------------------------------
 Center     Atomic      Atomic             Coordinates (Angstroms)
 Number     Number       Type             X           Y           Z
 ---------------------------------------------------------------------
      1         12           0      -33.317533    0.155474   -0.116322
      2          6           0      -29.905618   -0.153360    0.195650
      3          6           0      -33.771009   -3.207188    0.346571
      4          6           0      -36.798552    0.526893   -0.242695
      5          6           0      -33.063134    3.578999    0.259133
      6          7           0      -31.931528   -1.414424    0.445547
      7          6           0      -30.537232   -1.401802    0.351372
      8          6           0      -29.941008   -2.770700    0.688876
      9          6           0      -31.211160   -3.645186    0.533942
     10          6           0      -32.435920   -2.707680    0.520801
     11          6           0      -31.123153   -4.638187   -0.645588
     12          6           0      -29.323867   -2.806639    2.101039
     13          6           0      -27.954366   -3.553813    2.255760
     14          1           0      -27.711295   -4.207839    3.559636
     15          7           0      -34.989915   -1.147275   -0.023134
     16          6           0      -34.969373   -2.496016    0.078338
     17          6           0      -36.246552   -3.094697   -0.170270
     18          6           0      -37.127383   -2.045735   -0.481124
     19          6           0      -36.298545   -0.785735   -0.280230
     20          6           0      -36.494860   -4.602665   -0.243762
     21          6           0      -38.645186   -2.165518   -0.871220
     22          8           0      -39.183446   -3.301604   -0.835352
     23          6           0      -39.522016   -0.946187   -1.390863
     24          7           0      -34.749688    1.800899    0.293918
     25          6           0      -36.075990    1.709549    0.030692
     26          6           0      -36.763091    3.050676    0.002131
     27          6           0      -35.599885    4.044616    0.209056
     28          6           0      -34.387033    3.110646    0.217756
     29          6           0      -37.641980    3.308062   -1.266627
     30          6           0      -35.795108    4.990608    1.487984
     31          6           0      -36.187755    6.435961    1.160701
     32          7           0      -31.818438    1.485391    0.113295
     33          6           0      -31.817589    2.893056    0.227495
     34          6           0      -30.439195    3.387199    0.111757
     35          6           0      -29.692466    2.220619    0.023277
     36          6           0      -30.572451    1.133976    0.156378
     37          6           0      -29.915507    4.778730    0.117527
     38          6           0      -28.318377    1.710286   -0.085947
     39          8           0      -27.248498    2.270592   -0.375890
     40          6           0      -28.402903    0.132509   -0.022972
     41          6           0      -27.873342   -0.503215   -1.301380
     42          8           0      -28.113909   -0.168915   -2.465749
     43          8           0      -27.026616   -1.470440   -0.847488
     44          6           0      -26.220974   -2.149432   -1.848513
     45          1           0      -33.928251   -4.278561    0.486952
     46          1           0      -37.854804    0.774836   -0.366871
     47          1           0      -32.911711    4.654662    0.369279
     48          1           0      -29.150247   -3.009963   -0.022922
     49          1           0      -31.222594   -4.231428    1.452743
     50          1           0      -30.146589   -4.916924   -1.041418
     51          1           0      -31.616118   -4.140956   -1.480825
     52          1           0      -31.618811   -5.583552   -0.426132
     53          1           0      -30.017342   -3.174091    2.856971
     54          1           0      -29.257761   -1.761033    2.402736
     55          1           0      -27.144408   -2.847882    2.072309
     56          1           0      -27.922220   -4.366790    1.529063
     57          1           0      -36.922178   -4.779821   -1.230476
     58          1           0      -37.020989   -4.932447    0.652163
     59          1           0      -35.496262   -5.038991   -0.264781
     60          1           0      -39.889066   -0.438748   -0.499512
     61          1           0      -40.355797   -1.385463   -1.938042
     62          1           0      -38.916674   -0.433341   -2.138782
     63          1           0      -37.441897    3.096856    0.853809
     64          1           0      -35.336416    4.667360   -0.645537
     65          1           0      -37.465448    4.299704   -1.682354
     66          1           0      -38.708986    3.220838   -1.062522
     67          1           0      -37.456372    2.517791   -1.992863
     68          1           0      -34.878907    5.101440    2.067831
     69          1           0      -36.499601    4.535659    2.184183
     70          1           0      -36.916390    6.792175    1.889135
     71          1           0      -36.627951    6.480711    0.164779
     72          1           0      -35.349520    7.132467    1.158758
     73          1           0      -30.774585    5.449644    0.117907
     74          1           0      -29.132128    4.884479   -0.633225
     75          1           0      -29.475955    4.926487    1.104549
     76          1           0      -27.884913   -0.277264    0.844543
     77          1           0      -26.776313   -2.438136   -2.741801
     78          1           0      -25.673067   -3.035135   -1.526968
     79          1           0      -25.415327   -1.492573   -2.177492
     80         12           0       32.996931    0.586715   -0.610674
     81          6           0       30.984044   -2.259440   -0.085070
     82          6           0       30.602620    2.416482    0.978788
     83          6           0       35.245305    3.155042   -0.437581
     84          6           0       35.512014   -1.669200   -1.744349
     85          7           0       31.047022    0.088095    0.480680
     86          6           0       30.327282   -1.071953    0.453971
     87          6           0       29.040175   -0.978966    1.291581
     88          6           0       28.875625    0.618322    1.227422
     89          6           0       30.266290    1.079953    0.868895
     90          6           0       27.825693    1.147300    0.213837
     91          6           0       29.189555   -1.484959    2.796585
     92          6           0       27.949388   -1.954678    3.541204
     93          1           0       27.345787   -1.158237    4.717585
     94          7           0       32.992003    2.604235    0.133088
     95          6           0       31.846053    3.165304    0.617049
     96          6           0       31.993461    4.543095    0.785809
     97          6           0       33.344115    4.828032    0.356013
     98          6           0       33.966141    3.517706    0.013840
     99          6           0       30.907025    5.485556    1.289625
    100          6           0       33.912225    6.229055    0.334679
    101          8           0       33.192198    7.196370    0.693255
    102          6           0       35.336867    6.582584   -0.220420
    103          7           0       35.031394    0.662671   -1.040505
    104          6           0       35.750341    1.882633   -0.919585
    105          6           0       37.074403    1.769155   -1.622635
    106          6           0       37.322920    0.248899   -1.729036
    107          6           0       35.878603   -0.311671   -1.578836
    108          6           0       37.245764    2.359735   -3.040465
    109          6           0       38.260261   -0.306740   -0.532064
    110          6           0       39.770363   -0.204261   -0.684818
    111          7           0       33.121255   -1.521194   -1.029989
    112          6           0       34.189399   -2.277247   -1.488980
    113          6           0       33.881678   -3.624080   -1.530431
    114          6           0       32.571172   -3.686485   -1.026555
    115          6           0       32.168436   -2.376868   -0.715138
    116          6           0       34.797007   -4.704304   -2.013940
    117          6           0       31.509420   -4.521198   -0.815931
    118          8           0       31.362125   -5.691190   -1.109559
    119          6           0       30.541663   -3.674469    0.037249
    120          6           0       30.634583   -4.256064    1.416341
    121          8           0       31.646970   -4.338780    2.039482
    122          8           0       29.391081   -4.747785    1.817281
    123          6           0       29.462773   -5.458605    3.046332
    124          1           0       29.785619    3.071359    1.289561
    125          1           0       35.941731    3.981656   -0.595895
    126          1           0       36.279239   -2.274356   -2.231337
    127          1           0       28.172327   -1.378596    0.768016
    128          1           0       28.528505    0.929444    2.212328
    129          1           0       26.958121    1.328554    0.848940
    130          1           0       27.555669    0.398608   -0.530815
    131          1           0       28.140908    2.088800   -0.236258
    132          1           0       29.572558   -0.684539    3.429693
    133          1           0       29.974535   -2.241480    2.789116
    134          1           0       28.220531   -2.949751    3.896896
    135          1           0       27.163588   -2.093942    2.798933
    136          1           0       30.832026    6.492786    0.878423
    137          1           0       31.147570    5.437774    2.351422
    138          1           0       29.924466    5.091608    1.029761
    139          1           0       35.385300    6.331536   -1.279664
    140          1           0       35.986554    5.981426    0.415373
    141          1           0       35.688537    7.596748   -0.031412
    142          1           0       37.817075    2.183455   -0.941575
    143          1           0       37.772332   -0.031428   -2.681758
    144          1           0       37.395860    1.626683   -3.832866
    145          1           0       37.805339    3.295040   -3.015719
    146          1           0       36.253610    2.741092   -3.281385
    147          1           0       37.934513   -1.346523   -0.511239
    148          1           0       38.005458    0.172054    0.413604
    149          1           0       40.185445    0.286160    0.195276
    150          1           0       40.002094    0.387872   -1.570567
    151          1           0       40.233077   -1.190464   -0.730358
    152          1           0       34.783287   -5.473806   -1.242617
    153          1           0       35.834250   -4.375189   -2.087691
    154          1           0       34.465809   -5.153539   -2.950366
    155          1           0       29.537346   -3.805740   -0.364035
    156          1           0       29.615826   -6.518851    2.846812
    157          1           0       28.516495   -5.486708    3.587921
    158          1           0       30.268262   -5.102446    3.686275
 ---------------------------------------------------------------------

 SCF Done:  E(RCAM-B3LYP) =  -4069.80259634     A.U. after   19 cycles

 Excitation energies and oscillator strengths:

 Excited State   1:      Singlet-A      1.7067 eV  726.48 nm  f=0.3837  <S**2>=0.000
     309 -> 315       -0.18525
     311 -> 313        0.68205
     309 <- 315       -0.10814
 This state for optimization and/or second-order correction.
 Total Energy, E(TD-HF/TD-DFT) =  -4069.73987799
 Copying the excited state density for this state as the 1-particle RhoCI density.

 Excited State   2:      Singlet-A      1.7088 eV  725.56 nm  f=0.3820  <S**2>=0.000
     310 -> 316        0.17437
     312 -> 314        0.68573
     310 <- 316        0.10513

 Excited State   3:      Singlet-A      2.1433 eV  578.46 nm  f=0.1304  <S**2>=0.000
     309 -> 313        0.65034
     311 -> 315        0.26013

 Excited State   4:      Singlet-A      2.2476 eV  551.63 nm  f=0.0932  <S**2>=0.000
     310 -> 314        0.62554
     312 -> 316       -0.31540

 Excited State   5:      Singlet-A      2.9843 eV  415.46 nm  f=0.0000  <S**2>=0.000
     312 -> 313        0.70711

 The electronic state is 1-A.
 Alpha  occ. eigenvalues --  -46.90323 -46.89181 -19.26369 -19.25402 -19.20933
 Alpha  occ. eigenvalues --  -19.20271 -19.19691 -19.18453 -19.18104 -19.17894
 Alpha  occ. eigenvalues --  -14.43187 -14.42680 -14.42414 -14.42180 -14.40235
 Alpha  occ. eigenvalues --  -14.39831 -14.39216 -14.39116 -10.39962 -10.39709
 Alpha  occ. eigenvalues --  -10.36683 -10.35035 -10.34759 -10.33366 -10.32411
 Alpha  occ. eigenvalues --  -10.32336 -10.32207 -10.32057 -10.31646 -10.31600
 Alpha  occ. eigenvalues --  -10.31192 -10.31100 -10.30997 -10.30950 -10.30725
 Alpha  occ. eigenvalues --  -10.30486 -10.30407 -10.30237 -10.29957 -10.29682
 Alpha  occ. eigenvalues --  -10.29243 -10.29106 -10.28821 -10.28500 -10.28485
 Alpha  occ. eigenvalues --  -10.28357 -10.28334 -10.28314 -10.28220 -10.28165
 Alpha  occ. eigenvalues --  -10.28071 -10.28062 -10.28027 -10.28022 -10.27979
 Alpha  occ. eigenvalues --  -10.27968 -10.27921 -10.27874 -10.27850 -10.27750
 Alpha  occ. eigenvalues --  -10.27718 -10.27677 -10.27618 -10.27559 -10.27478
 Alpha  occ. eigenvalues --  -10.27460 -10.27421 -10.27348 -10.27302 -10.26995
 Alpha  occ. eigenvalues --  -10.26921 -10.26742 -10.26599 -10.26577 -10.26501
 Alpha  occ. eigenvalues --  -10.26490 -10.26377 -10.26287 -10.26092 -10.26061
 Alpha  occ. eigenvalues --  -10.25979 -10.25852 -10.25769 -10.25670 -10.24594
 Alpha  occ. eigenvalues --  -10.24176  -3.18615  -3.17714  -1.93513  -1.93063
 Alpha  occ. eigenvalues --   -1.92912  -1.92580  -1.92156  -1.92044  -1.17650
 Alpha  occ. eigenvalues --   -1.16844  -1.10057  -1.09518  -1.08624  -1.08367
 Alpha  occ. eigenvalues --   -1.07759  -1.07330  -1.05766  -1.04682  -1.04660
 Alpha  occ. eigenvalues --   -1.04010  -1.03933  -1.03526  -1.02158  -1.01926
 Alpha  occ. eigenvalues --   -0.94353  -0.91426  -0.88977  -0.88883  -0.88844
 Alpha  occ. eigenvalues --   -0.88734  -0.88701  -0.88693  -0.87577  -0.87285
 Alpha  occ. eigenvalues --   -0.87113  -0.86994  -0.86399  -0.85922  -0.84398
 Alpha  occ. eigenvalues --   -0.84320  -0.83903  -0.83648  -0.82927  -0.82514
 Alpha  occ. eigenvalues --   -0.81901  -0.81645  -0.81128  -0.80704  -0.80363
 Alpha  occ. eigenvalues --   -0.80197  -0.78084  -0.77944  -0.77484  -0.77402
 Alpha  occ. eigenvalues --   -0.76962  -0.76751  -0.75980  -0.75895  -0.75705
 Alpha  occ. eigenvalues --   -0.75300  -0.73625  -0.72713  -0.72269  -0.71731
 Alpha  occ. eigenvalues --   -0.69501  -0.69203  -0.68976  -0.68491  -0.68447
 Alpha  occ. eigenvalues --   -0.67892  -0.67258  -0.67178  -0.66325  -0.66136
 Alpha  occ. eigenvalues --   -0.65380  -0.65084  -0.65000  -0.64764  -0.64563
 Alpha  occ. eigenvalues --   -0.64234  -0.62827  -0.62693  -0.60539  -0.60168
 Alpha  occ. eigenvalues --   -0.59952  -0.59627  -0.59602  -0.59201  -0.59039
 Alpha  occ. eigenvalues --   -0.58929  -0.58613  -0.58076  -0.57735  -0.57241
 Alpha  occ. eigenvalues --   -0.56518  -0.55973  -0.55797  -0.55764  -0.55351
 Alpha  occ. eigenvalues --   -0.55325  -0.55096  -0.55023  -0.53861  -0.53772
 Alpha  occ. eigenvalues --   -0.53567  -0.53377  -0.53212  -0.53146  -0.52808
 Alpha  occ. eigenvalues --   -0.52801  -0.52619  -0.52604  -0.52292  -0.52020
 Alpha  occ. eigenvalues --   -0.51845  -0.51593  -0.51457  -0.51362  -0.51234
 Alpha  occ. eigenvalues --   -0.51187  -0.51105  -0.50877  -0.50833  -0.50622
 Alpha  occ. eigenvalues --   -0.50165  -0.49949  -0.49845  -0.49759  -0.49469
 Alpha  occ. eigenvalues --   -0.49366  -0.49335  -0.49061  -0.49011  -0.48828
 Alpha  occ. eigenvalues --   -0.48517  -0.48450  -0.48273  -0.48152  -0.47954
 Alpha  occ. eigenvalues --   -0.47853  -0.47690  -0.47480  -0.47359  -0.47240
 Alpha  occ. eigenvalues --   -0.47186  -0.47020  -0.46868  -0.46613  -0.46584
 Alpha  occ. eigenvalues --   -0.46412  -0.46392  -0.46361  -0.46036  -0.46010
 Alpha  occ. eigenvalues --   -0.45798  -0.45575  -0.45297  -0.45258  -0.45091
 Alpha  occ. eigenvalues --   -0.44780  -0.44731  -0.44608  -0.44440  -0.44126
 Alpha  occ. eigenvalues --   -0.43863  -0.43797  -0.43781  -0.43777  -0.43488
 Alpha  occ. eigenvalues --   -0.43347  -0.43286  -0.43267  -0.42954  -0.42949
 Alpha  occ. eigenvalues --   -0.42601  -0.42512  -0.42477  -0.42459  -0.42198
 Alpha  occ. eigenvalues --   -0.42126  -0.41964  -0.41586  -0.41560  -0.41335
 Alpha  occ. eigenvalues --   -0.41201  -0.41155  -0.41028  -0.40803  -0.40610
 Alpha  occ. eigenvalues --   -0.40518  -0.40318  -0.39721  -0.39410  -0.39367
 Alpha  occ. eigenvalues --   -0.38688  -0.38501  -0.38391  -0.38161  -0.37818
 Alpha  occ. eigenvalues --   -0.37656  -0.37388  -0.37148  -0.36967  -0.36860
 Alpha  occ. eigenvalues --   -0.36594  -0.36422  -0.35511  -0.35064  -0.34876
 Alpha  occ. eigenvalues --   -0.34801  -0.33421  -0.33039  -0.31588  -0.31455
 Alpha  occ. eigenvalues --   -0.31205  -0.30500  -0.30459  -0.30457  -0.30041
 Alpha  occ. eigenvalues --   -0.29934  -0.29842  -0.29527  -0.24332  -0.24206
 Alpha  occ. eigenvalues --   -0.22046  -0.21089
 Alpha virt. eigenvalues --   -0.09600  -0.08587  -0.02489  -0.02029  -0.00087
 Alpha virt. eigenvalues --    0.00165   0.01415   0.01631   0.01973   0.02589
 Alpha virt. eigenvalues --    0.04290   0.04981   0.05041   0.05144   0.05497

 Mulliken charges:
               1
     1  Mg   0.836105
     2  C   -0.065989
     3  C   -0.099840
     4  C   -0.076422
     5  C   -0.074277
     6  N   -0.335343
     7  C   -0.052997
     8  C   -0.007711
     9  C   -0.038866
    10  C    0.100350
    11  C    0.060682
    12  C    0.062707
    13  C   -0.070245
    14  H    0.025957
    15  N   -0.347185
    16  C    0.138438
    17  C   -0.175757
    18  C   -0.042923
    19  C    0.173881
    20  C    0.164808
    21  C    0.001197
    22  O   -0.229632
    23  C    0.054729
    24  N   -0.257147
    25  C   -0.006402
    26  C   -0.021883
    27  C   -0.004518
    28  C    0.016314
    29  C    0.057143
    30  C    0.038569
    31  C   -0.002755
    32  N   -0.349140
    33  C    0.092003
    34  C   -0.191249
    35  C    0.000950
    36  C    0.118589
    37  C    0.151206
    38  C    0.079089
    39  O   -0.194590
    40  C    0.005636
    41  C    0.224938
    42  O   -0.217098
    43  O   -0.326160
    44  C    0.174545
    45  H   -0.017149
    46  H   -0.042486
    47  H   -0.036552
    48  H    0.000622
    49  H    0.005442
    50  H    0.014664
    51  H    0.013588
    52  H    0.016658
    53  H    0.006699
    54  H    0.005807
    55  H    0.043386
    56  H    0.028575
    57  H    0.042068
    58  H    0.047491
    59  H   -0.009950
    60  H    0.058755
    61  H    0.031687
    62  H    0.040085
    63  H    0.020124
    64  H    0.008844
    65  H    0.024613
    66  H    0.011787
    67  H    0.017599
    68  H    0.008259
    69  H    0.004652
    70  H    0.016481
    71  H    0.008719
    72  H    0.019597
    73  H   -0.000745
    74  H    0.052457
    75  H    0.027031
    76  H    0.034508
    77  H    0.037773
    78  H    0.033787
    79  H    0.035413
    80  Mg   0.815287
    81  C    0.014440
    82  C   -0.065254
    83  C   -0.076242
    84  C   -0.071989
    85  N   -0.233130
    86  C   -0.080903
    87  C    0.006799
    88  C   -0.104057
    89  C    0.065292
    90  C    0.076816
    91  C    0.039654
    92  C   -0.043152
    93  H    0.028198
    94  N   -0.343537
    95  C    0.106409
    96  C   -0.141777
    97  C   -0.040949
    98  C    0.143933
    99  C    0.134043
   100  C   -0.011076
   101  O   -0.242990
   102  C    0.048394
   103  N   -0.357476
   104  C    0.064218
   105  C   -0.039307
   106  C   -0.064013
   107  C    0.055439
   108  C    0.104241
   109  C    0.008802
   110  C    0.034456
   111  N   -0.298989
   112  C    0.104016
   113  C   -0.159979
   114  C    0.083459
   115  C    0.089608
   116  C    0.137607
   117  C   -0.048541
   118  O   -0.168369
   119  C   -0.001943
   120  C    0.189517
   121  O   -0.180559
   122  O   -0.329021
   123  C    0.162234
   124  H   -0.027401
   125  H   -0.039862
   126  H   -0.015045
   127  H    0.002593
   128  H    0.015786
   129  H    0.016361
   130  H    0.021283
   131  H    0.022331
   132  H    0.019970
   133  H    0.022637
   134  H    0.026587
   135  H    0.021103
   136  H    0.045651
   137  H    0.041291
   138  H    0.008734
   139  H    0.046348
   140  H    0.030949
   141  H    0.024835
   142  H    0.004655
   143  H    0.002854
   144  H    0.027595
   145  H    0.021411
   146  H   -0.005818
   147  H    0.000848
   148  H    0.012713
   149  H    0.013756
   150  H    0.012282
   151  H    0.020658
   152  H    0.032757
   153  H    0.002693
   154  H    0.040536
   155  H    0.015295
   156  H    0.028750
   157  H    0.030560
   158  H    0.044702
 Sum of Mulliken charges =  -0.00000

 Dipole moment (field-independent basis, Debye):
    X=             -1.5349    Y=              0.8245    Z=             -0.5549  Tot=              1.8286
 Quadrupole moment (field-independent basis, Debye-Ang):
   XX=           -274.2000   YY=           -547.8191   ZZ=           -510.8926
   XY=            -14.0525   XZ=            -65.1196   YZ=             -9.5482

 Normal termination of Gaussian 16 at Thu Sep 16 11:48:13 2021.
