 Gaussian 16, Revision A.03,
 Gaussian 16:  ES64L-G16RevA.03 25-Dec-2016

 -----------------------------------
 #p cam-b3lyp/Def2SVP td=(nstates=5)
 -----------------------------------

 --------------------------------
 TDDFT excited states in gaussian
 --------------------------------
 Symbolic Z-matrix:
 Charge =  0 Multiplicity = 1

                         Standard orientation:
 ---------------------------------------------------------------------
 Center     Atomic      Atomic             Coordinates (Angstroms)
 Number     Number       Type             X           Y           Z
 ---------------------------------------------------------------------
      1         12           0      -31.442118   -0.232976   -0.269146
      2          6           0      -28.578165    1.431882    0.992896
      3          6           0      -30.468747   -2.976030    1.478945
      4          6           0      -34.551419   -1.499388   -0.805644
      5          6           0      -32.520773    2.805714   -1.540212
      6          7           0      -29.751108   -0.550181    1.195925
      7          6           0      -28.640641    0.190907    1.502085
      8          6           0      -27.684359   -0.562708    2.349751
      9          6           0      -28.178175   -2.077622    2.195286
     10          6           0      -29.535240   -1.877448    1.612093
     11          6           0      -27.239512   -2.893578    1.321150
     12          6           0      -27.733702    0.056992    3.755154
     13          6           0      -26.363151    0.537003    4.394757
     14          1           0      -25.896618    0.023469    5.790226
     15          7           0      -32.417310   -1.989545    0.193475
     16          6           0      -31.782195   -3.045644    0.861534
     17          6           0      -32.651371   -4.182304    0.802498
     18          6           0      -33.881164   -3.796711    0.169609
     19          6           0      -33.620174   -2.392558   -0.246060
     20          6           0      -32.208056   -5.532890    1.350024
     21          6           0      -35.127797   -4.619632   -0.066959
     22          8           0      -34.996215   -5.836399    0.253419
     23          6           0      -36.532421   -4.145317   -0.535862
     24          7           0      -33.317148    0.532143   -1.079627
     25          6           0      -34.442462   -0.202286   -1.221729
     26          6           0      -35.627233    0.603750   -1.816994
     27          6           0      -34.926791    1.964808   -2.155485
     28          6           0      -33.483767    1.767570   -1.490902
     29          6           0      -36.186843   -0.127258   -3.024225
     30          6           0      -35.600253    3.187150   -1.610419
     31          6           0      -36.200183    4.073963   -2.667572
     32          7           0      -30.712726    1.649148   -0.462763
     33          6           0      -31.202033    2.824094   -1.047441
     34          6           0      -30.239196    3.800159   -1.126904
     35          6           0      -29.167593    3.287313   -0.367774
     36          6           0      -29.537305    2.019071    0.074157
     37          6           0      -30.366961    5.037884   -1.989495
     38          6           0      -27.768446    3.564322    0.053166
     39          8           0      -27.081473    4.508641   -0.185182
     40          6           0      -27.443514    2.360154    1.015807
     41          6           0      -26.014979    1.946225    0.737250
     42          8           0      -25.055521    2.211837    1.461361
     43          8           0      -25.949680    1.167681   -0.443790
     44          6           0      -24.608776    0.637365   -0.688688
     45          1           0      -30.065109   -3.922103    1.846346
     46          1           0      -35.529370   -1.896749   -1.087358
     47          1           0      -32.873391    3.824189   -1.712101
     48          1           0      -26.676564   -0.445566    1.951143
     49          1           0      -28.195796   -2.530615    3.186183
     50          1           0      -26.832962   -2.329104    0.483114
     51          1           0      -27.815782   -3.694166    0.856190
     52          1           0      -26.438138   -3.383552    1.874118
     53          1           0      -28.182510   -0.685531    4.414792
     54          1           0      -28.448489    0.874233    3.851601
     55          1           0      -26.559433    1.606745    4.471558
     56          1           0      -25.562794    0.509400    3.656259
     57          1           0      -31.824219   -5.437441    2.365742
     58          1           0      -31.388917   -5.862434    0.710987
     59          1           0      -32.972129   -6.301257    1.475689
     60          1           0      -36.364970   -3.869375   -1.576487
     61          1           0      -36.822003   -3.279032    0.059057
     62          1           0      -37.296545   -4.913348   -0.413177
     63          1           0      -36.460347    0.743692   -1.128663
     64          1           0      -34.719063    2.019256   -3.223813
     65          1           0      -36.380378   -1.157657   -2.725549
     66          1           0      -35.433820   -0.104855   -3.812632
     67          1           0      -37.046612    0.286904   -3.549521
     68          1           0      -34.928567    3.850073   -1.065004
     69          1           0      -36.394933    3.026002   -0.882250
     70          1           0      -37.248594    4.230203   -2.416568
     71          1           0      -36.220425    3.604731   -3.651195
     72          1           0      -35.672455    5.017187   -2.812728
     73          1           0      -29.354780    5.425939   -2.107990
     74          1           0      -30.997301    5.799107   -1.530429
     75          1           0      -30.807589    4.680761   -2.920040
     76          1           0      -27.373441    2.861104    1.982025
     77          1           0      -24.662665   -0.285127   -1.266949
     78          1           0      -24.141552    0.296292    0.234058
     79          1           0      -23.941715    1.361035   -1.157930
     80         12           0       31.416766    0.311564   -0.254044
     81          6           0       28.600549   -1.622029   -0.251876
     82          6           0       29.374395    3.015996    0.831034
     83          6           0       34.221439    2.145935    0.139412
     84          6           0       33.361965   -2.574869   -0.401825
     85          7           0       29.197785    0.544630    0.613501
     86          6           0       28.230021   -0.345840    0.256832
     87          6           0       26.884857    0.158213    0.701144
     88          6           0       27.141286    1.678976    1.089821
     89          6           0       28.674520    1.824143    0.832313
     90          6           0       26.108439    2.655323    0.659127
     91          6           0       26.034724   -0.676020    1.771990
     92          6           0       26.778821   -1.462993    2.809757
     93          1           0       26.327917   -1.302228    4.254794
     94          7           0       31.710441    2.351329    0.161372
     95          6           0       30.789462    3.276893    0.543322
     96          6           0       31.382143    4.558390    0.788513
     97          6           0       32.821621    4.345844    0.469089
     98          6           0       32.974332    2.894010    0.230136
     99          6           0       30.736860    5.794364    1.200770
    100          6           0       33.944541    5.370669    0.397416
    101          8           0       33.768167    6.479934    0.758142
    102          6           0       35.367784    5.110209   -0.011683
    103          7           0       33.446265   -0.161583   -0.019167
    104          6           0       34.389043    0.792340   -0.058512
    105          6           0       35.858975    0.152517    0.158089
    106          6           0       35.557148   -1.322247   -0.401760
    107          6           0       34.059637   -1.357967   -0.210012
    108          6           0       37.007491    0.858485   -0.567999
    109          6           0       36.404855   -2.407252    0.286565
    110          6           0       37.142139   -3.468018   -0.539281
    111          7           0       31.074753   -1.713016   -0.204935
    112          6           0       31.935994   -2.797852   -0.312960
    113          6           0       31.228773   -4.009113   -0.468745
    114          6           0       29.895842   -3.634777   -0.510324
    115          6           0       29.833989   -2.205859   -0.343958
    116          6           0       31.791402   -5.386053   -0.641859
    117          6           0       28.553594   -4.004914   -0.687101
    118          8           0       28.112751   -5.138328   -0.866850
    119          6           0       27.644375   -2.785753   -0.361793
    120          6           0       26.706928   -2.725998   -1.558844
    121          8           0       25.461256   -2.685687   -1.472542
    122          8           0       27.483730   -2.581529   -2.684142
    123          6           0       26.900650   -2.245170   -4.006018
    124          1           0       28.718780    3.764897    1.280084
    125          1           0       35.107474    2.694731    0.464958
    126          1           0       33.980152   -3.466953   -0.519154
    127          1           0       26.199016    0.096307   -0.144570
    128          1           0       27.113182    1.715791    2.178454
    129          1           0       26.521917    3.535923    0.167661
    130          1           0       25.413412    2.901866    1.461797
    131          1           0       25.493445    2.206212   -0.120790
    132          1           0       25.384176   -1.434934    1.337164
    133          1           0       25.465976    0.013159    2.396999
    134          1           0       27.863429   -1.441007    2.709092
    135          1           0       26.499566   -2.507884    2.670443
    136          1           0       29.721447    5.806795    0.805918
    137          1           0       31.253251    6.696539    0.875039
    138          1           0       30.705888    5.781112    2.290847
    139          1           0       35.119548    4.320824   -0.721556
    140          1           0       35.980405    4.725295    0.802972
    141          1           0       35.913405    5.934950   -0.470454
    142          1           0       35.992774    0.084100    1.238107
    143          1           0       35.674545   -1.510154   -1.468718
    144          1           0       37.285177    0.224230   -1.410292
    145          1           0       37.775412    1.162740    0.142621
    146          1           0       36.715127    1.811942   -1.006930
    147          1           0       35.738953   -2.929926    0.973734
    148          1           0       37.099063   -1.907284    0.962163
    149          1           0       38.196349   -3.651887   -0.331522
    150          1           0       36.993639   -3.350096   -1.613459
    151          1           0       36.525394   -4.349612   -0.367525
    152          1           0       31.207139   -6.039339   -1.290348
    153          1           0       31.870211   -5.851333    0.340965
    154          1           0       32.776837   -5.393356   -1.109487
    155          1           0       27.157052   -3.091631    0.563179
    156          1           0       27.519705   -1.549468   -4.572205
    157          1           0       25.920965   -1.797187   -3.839011
    158          1           0       26.691492   -3.025508   -4.736677
 ---------------------------------------------------------------------

 SCF Done:  E(RCAM-B3LYP) =  -4069.75726290     A.U. after   19 cycles

 Excitation energies and oscillator strengths:

 Excited State   1:      Singlet-A      1.6347 eV  758.43 nm  f=0.3852  <S**2>=0.000
     309 -> 315       -0.16910
     311 -> 313        0.68879
     309 <- 315       -0.10872
 This state for optimization and/or second-order correction.
 Total Energy, E(TD-HF/TD-DFT) =  -4069.69718719
 Copying the excited state density for this state as the 1-particle RhoCI density.

 Excited State   2:      Singlet-A      1.6837 eV  736.38 nm  f=0.3628  <S**2>=0.000
     310 -> 316       -0.17392
     312 -> 314        0.68685
     310 <- 316       -0.10795

 Excited State   3:      Singlet-A      2.1488 eV  576.98 nm  f=0.1483  <S**2>=0.000
     309 -> 313        0.65218
     311 -> 315        0.25539

 Excited State   4:      Singlet-A      2.2196 eV  558.59 nm  f=0.1594  <S**2>=0.000
     310 -> 314        0.64873
     312 -> 316        0.26683

 Excited State   5:      Singlet-A      3.1096 eV  398.71 nm  f=0.0000  <S**2>=0.000
     312 -> 313        0.70711

 The electronic state is 1-A.
 Alpha  occ. eigenvalues --  -46.89962 -46.89021 -19.26236 -19.25641 -19.21022
 Alpha  occ. eigenvalues --  -19.20338 -19.19867 -19.18491 -19.18316 -19.17252
 Alpha  occ. eigenvalues --  -14.42595 -14.42383 -14.42243 -14.42049 -14.40102
 Alpha  occ. eigenvalues --  -14.40068 -14.39673 -14.39012 -10.40491 -10.40367
 Alpha  occ. eigenvalues --  -10.35676 -10.35492 -10.34290 -10.33590 -10.32835
 Alpha  occ. eigenvalues --  -10.32106 -10.31999 -10.31676 -10.31620 -10.31136
 Alpha  occ. eigenvalues --  -10.31025 -10.30939 -10.30869 -10.30773 -10.30710
 Alpha  occ. eigenvalues --  -10.30680 -10.30648 -10.30564 -10.30190 -10.29403
 Alpha  occ. eigenvalues --  -10.29073 -10.28909 -10.28876 -10.28869 -10.28581
 Alpha  occ. eigenvalues --  -10.28554 -10.28551 -10.28476 -10.28447 -10.28418
 Alpha  occ. eigenvalues --  -10.28341 -10.28333 -10.28309 -10.28216 -10.28213
 Alpha  occ. eigenvalues --  -10.28000 -10.27983 -10.27973 -10.27817 -10.27740
 Alpha  occ. eigenvalues --  -10.27532 -10.27524 -10.27492 -10.27385 -10.27313
 Alpha  occ. eigenvalues --  -10.27245 -10.27047 -10.26983 -10.26804 -10.26791
 Alpha  occ. eigenvalues --  -10.26772 -10.26744 -10.26705 -10.26598 -10.26505
 Alpha  occ. eigenvalues --  -10.26358 -10.26307 -10.26236 -10.26080 -10.25966
 Alpha  occ. eigenvalues --  -10.25528 -10.25381 -10.25216 -10.25178 -10.25097
 Alpha  occ. eigenvalues --  -10.25094  -3.18434  -3.17585  -1.93292  -1.92926
 Alpha  occ. eigenvalues --   -1.92709  -1.92466  -1.92046  -1.91890  -1.15696
 Alpha  occ. eigenvalues --   -1.15603  -1.12055  -1.11429  -1.09371  -1.07965
 Alpha  occ. eigenvalues --   -1.07642  -1.07267  -1.05267  -1.05184  -1.04380
 Alpha  occ. eigenvalues --   -1.04287  -1.03371  -1.02953  -1.02766  -1.02172
 Alpha  occ. eigenvalues --   -0.93709  -0.93332  -0.89949  -0.89859  -0.89336
 Alpha  occ. eigenvalues --   -0.89076  -0.88754  -0.88421  -0.87959  -0.87879
 Alpha  occ. eigenvalues --   -0.87269  -0.87027  -0.85968  -0.85904  -0.84854
 Alpha  occ. eigenvalues --   -0.84569  -0.84294  -0.84014  -0.83118  -0.82649
 Alpha  occ. eigenvalues --   -0.82195  -0.81966  -0.81002  -0.80719  -0.80608
 Alpha  occ. eigenvalues --   -0.80511  -0.78535  -0.77830  -0.77825  -0.77478
 Alpha  occ. eigenvalues --   -0.77012  -0.76914  -0.76715  -0.76514  -0.75525
 Alpha  occ. eigenvalues --   -0.75496  -0.73606  -0.73543  -0.72243  -0.71774
 Alpha  occ. eigenvalues --   -0.70051  -0.69429  -0.69410  -0.69006  -0.68424
 Alpha  occ. eigenvalues --   -0.67731  -0.67254  -0.66588  -0.66369  -0.66292
 Alpha  occ. eigenvalues --   -0.65713  -0.65513  -0.65370  -0.64951  -0.64735
 Alpha  occ. eigenvalues --   -0.64421  -0.63615  -0.63140  -0.60549  -0.60301
 Alpha  occ. eigenvalues --   -0.60113  -0.59614  -0.59415  -0.58979  -0.58909
 Alpha  occ. eigenvalues --   -0.58084  -0.58076  -0.57643  -0.57239  -0.56907
 Alpha  occ. eigenvalues --   -0.56551  -0.56247  -0.55847  -0.55818  -0.55648
 Alpha  occ. eigenvalues --   -0.55348  -0.55132  -0.54967  -0.54485  -0.54368
 Alpha  occ. eigenvalues --   -0.53992  -0.53918  -0.53609  -0.53294  -0.53225
 Alpha  occ. eigenvalues --   -0.53204  -0.52718  -0.52530  -0.52304  -0.52098
 Alpha  occ. eigenvalues --   -0.52064  -0.51866  -0.51824  -0.51733  -0.51371
 Alpha  occ. eigenvalues --   -0.51139  -0.51100  -0.50895  -0.50713  -0.50613
 Alpha  occ. eigenvalues --   -0.50564  -0.50310  -0.50061  -0.50001  -0.49886
 Alpha  occ. eigenvalues --   -0.49734  -0.49676  -0.49483  -0.49204  -0.49018
 Alpha  occ. eigenvalues --   -0.48931  -0.48667  -0.48360  -0.48249  -0.48013
 Alpha  occ. eigenvalues --   -0.47891  -0.47748  -0.47580  -0.47326  -0.47243
 Alpha  occ. eigenvalues --   -0.47232  -0.47103  -0.46920  -0.46905  -0.46624
 Alpha  occ. eigenvalues --   -0.46479  -0.46433  -0.46162  -0.46038  -0.45927
 Alpha  occ. eigenvalues --   -0.45764  -0.45636  -0.45550  -0.45512  -0.45338
 Alpha  occ. eigenvalues --   -0.45325  -0.45170  -0.45039  -0.44904  -0.44903
 Alpha  occ. eigenvalues --   -0.44174  -0.44071  -0.44019  -0.43987  -0.43683
 Alpha  occ. eigenvalues --   -0.43402  -0.43286  -0.43091  -0.42727  -0.42670
 Alpha  occ. eigenvalues --   -0.42657  -0.42517  -0.42453  -0.42429  -0.42393
 Alpha  occ. eigenvalues --   -0.42095  -0.42092  -0.41963  -0.41752  -0.41746
 Alpha  occ. eigenvalues --   -0.41597  -0.41503  -0.41411  -0.41306  -0.41128
 Alpha  occ. eigenvalues --   -0.40583  -0.40248  -0.40148  -0.39054  -0.39051
 Alpha  occ. eigenvalues --   -0.38791  -0.38694  -0.38240  -0.38005  -0.37826
 Alpha  occ. eigenvalues --   -0.37385  -0.37346  -0.37269  -0.36900  -0.36439
 Alpha  occ. eigenvalues --   -0.36167  -0.35622  -0.35429  -0.34801  -0.34715
 Alpha  occ. eigenvalues --   -0.33882  -0.33204  -0.33101  -0.31763  -0.31587
 Alpha  occ. eigenvalues --   -0.31139  -0.30912  -0.30597  -0.30523  -0.30033
 Alpha  occ. eigenvalues --   -0.29804  -0.29564  -0.28368  -0.24478  -0.24427
 Alpha  occ. eigenvalues --   -0.21736  -0.21658
 Alpha virt. eigenvalues --   -0.09682  -0.09342  -0.01975  -0.01848   0.00128
 Alpha virt. eigenvalues --    0.00214   0.00985   0.01787   0.02391   0.02676
 Alpha virt. eigenvalues --    0.04133   0.04554   0.04897   0.05007   0.05695

 Mulliken charges:
               1
     1  Mg   0.834353
     2  C    0.054428
     3  C   -0.069496
     4  C   -0.042633
     5  C   -0.089396
     6  N   -0.294808
     7  C   -0.091719
     8  C   -0.014660
     9  C   -0.026231
    10  C    0.046662
    11  C    0.078048
    12  C    0.043286
    13  C   -0.061165
    14  H    0.031834
    15  N   -0.389557
    16  C    0.137839
    17  C   -0.128908
    18  C   -0.023662
    19  C    0.152806
    20  C    0.116427
    21  C   -0.020003
    22  O   -0.248437
    23  C    0.085879
    24  N   -0.230527
    25  C   -0.019162
    26  C    0.006701
    27  C   -0.010726
    28  C    0.025288
    29  C    0.055027
    30  C    0.043150
    31  C   -0.008605
    32  N   -0.375679
    33  C    0.100459
    34  C   -0.182936
    35  C   -0.033738
    36  C    0.116677
    37  C    0.133510
    38  C    0.043074
    39  O   -0.120469
    40  C    0.002787
    41  C    0.187327
    42  O   -0.212259
    43  O   -0.363347
    44  C    0.179995
    45  H   -0.018605
    46  H   -0.075978
    47  H   -0.016214
    48  H    0.012641
    49  H    0.010835
    50  H    0.016021
    51  H    0.003197
    52  H    0.023994
    53  H    0.006982
    54  H    0.023789
    55  H    0.028347
    56  H    0.033079
    57  H    0.012512
    58  H    0.023913
    59  H    0.040148
    60  H    0.042587
    61  H    0.043388
    62  H    0.036487
    63  H    0.016284
    64  H    0.018825
    65  H    0.011203
    66  H    0.003370
    67  H    0.016382
    68  H    0.007503
    69  H    0.001219
    70  H    0.009128
    71  H    0.000919
    72  H    0.018433
    73  H    0.037280
    74  H    0.028795
    75  H    0.024975
    76  H    0.038883
    77  H    0.028876
    78  H    0.028190
    79  H    0.045175
    80  Mg   0.824956
    81  C    0.019291
    82  C   -0.076961
    83  C   -0.075328
    84  C   -0.091270
    85  N   -0.272151
    86  C   -0.046282
    87  C    0.019117
    88  C   -0.037940
    89  C    0.011855
    90  C    0.090879
    91  C    0.034497
    92  C   -0.113667
    93  H    0.011947
    94  N   -0.363517
    95  C    0.155779
    96  C   -0.164923
    97  C   -0.053222
    98  C    0.113986
    99  C    0.136384
   100  C   -0.034859
   101  O   -0.178686
   102  C    0.046385
   103  N   -0.288407
   104  C    0.057825
   105  C   -0.083516
   106  C   -0.035984
   107  C    0.048060
   108  C    0.096426
   109  C    0.030976
   110  C    0.010219
   111  N   -0.351648
   112  C    0.123545
   113  C   -0.172824
   114  C    0.107919
   115  C    0.078497
   116  C    0.118782
   117  C   -0.023683
   118  O   -0.180949
   119  C   -0.040731
   120  C    0.244521
   121  O   -0.225277
   122  O   -0.349243
   123  C    0.180467
   124  H   -0.016067
   125  H   -0.017621
   126  H   -0.037881
   127  H    0.015014
   128  H    0.022355
   129  H    0.014226
   130  H    0.019011
   131  H    0.005481
   132  H    0.034699
   133  H    0.020730
   134  H    0.042988
   135  H    0.033991
   136  H    0.010772
   137  H    0.039548
   138  H    0.029655
   139  H    0.015077
   140  H    0.049014
   141  H    0.031123
   142  H    0.029332
   143  H    0.016137
   144  H    0.016712
   145  H    0.016756
   146  H    0.012747
   147  H    0.006066
   148  H    0.002124
   149  H    0.033176
   150  H    0.005110
   151  H    0.010960
   152  H    0.037304
   153  H    0.037067
   154  H    0.010963
   155  H    0.037018
   156  H    0.035831
   157  H    0.037911
   158  H    0.041423
 Sum of Mulliken charges =  -0.00000

 Dipole moment (field-independent basis, Debye):
    X=              0.5918    Y=             -1.0916    Z=             -4.4493  Tot=              4.6194
 Quadrupole moment (field-independent basis, Debye-Ang):
   XX=            -91.1887   YY=           -589.7178   ZZ=           -496.5336
   XY=            -55.3935   XZ=              5.1410   YZ=             -8.6431

 Normal termination of Gaussian 16 at Wed Sep 15 17:08:48 2021.
