 Gaussian 16, Revision A.03,
 Gaussian 16:  ES64L-G16RevA.03 25-Dec-2016

 -----------------------------------
 #p cam-b3lyp/Def2SVP td=(nstates=5)
 -----------------------------------

 --------------------------------
 TDDFT excited states in gaussian
 --------------------------------
 Symbolic Z-matrix:
 Charge =  0 Multiplicity = 1

                         Standard orientation:
 ---------------------------------------------------------------------
 Center     Atomic      Atomic             Coordinates (Angstroms)
 Number     Number       Type             X           Y           Z
 ---------------------------------------------------------------------
      1         12           0       14.172106   -0.295949    0.119728
      2          6           0       11.242995   -1.624687   -1.296240
      3          6           0       14.792694    1.313304   -2.854717
      4          6           0       16.443396    1.479592    1.742763
      5          6           0       13.275707   -1.800227    3.210271
      6          7           0       13.010287    0.022029   -1.731966
      7          6           0       11.811892   -0.630946   -2.120010
      8          6           0       11.549005   -0.532086   -3.566088
      9          6           0       12.773714    0.346624   -4.070825
     10          6           0       13.612855    0.555323   -2.820077
     11          6           0       13.483638   -0.273132   -5.298803
     12          6           0       10.293887    0.202926   -3.925759
     13          6           0        9.928940    1.414815   -3.055529
     14          1           0        9.244131    2.695254   -3.674157
     15          7           0       15.502034    1.191979   -0.458873
     16          6           0       15.663278    1.598523   -1.732601
     17          6           0       16.798072    2.485793   -1.786974
     18          6           0       17.351684    2.502242   -0.483022
     19          6           0       16.457973    1.681372    0.349745
     20          6           0       17.259892    3.255975   -2.994786
     21          6           0       18.619446    3.245022   -0.062233
     22          8           0       19.252364    3.907492   -0.860991
     23          6           0       19.184713    3.372286    1.321389
     24          7           0       14.609268    0.020474    2.206307
     25          6           0       15.660813    0.789028    2.629315
     26          6           0       16.004370    0.513275    4.130122
     27          6           0       14.763869   -0.303838    4.602477
     28          6           0       14.187721   -0.739551    3.273037
     29          6           0       17.310399   -0.279123    4.379335
     30          6           0       13.589354    0.536862    5.293958
     31          6           0       13.022027   -0.012885    6.552355
     32          7           0       12.717903   -1.513622    0.822016
     33          6           0       12.614524   -2.156259    1.993147
     34          6           0       11.667226   -3.326717    1.860740
     35          6           0       11.160022   -3.148044    0.534367
     36          6           0       11.719904   -1.951879    0.002960
     37          6           0       11.281241   -4.405580    2.862408
     38          6           0       10.158467   -3.636715   -0.368847
     39          8           0        9.352202   -4.545221   -0.245971
     40          6           0       10.202633   -2.667503   -1.618393
     41          6           0        8.885697   -1.919700   -1.642616
     42          8           0        8.500379   -1.103865   -0.871946
     43          8           0        8.224529   -2.264489   -2.802230
     44          6           0        7.073556   -1.406629   -3.101666
     45          1           0       15.086272    1.656389   -3.848791
     46          1           0       17.297294    1.920387    2.259909
     47          1           0       13.149411   -2.330469    4.156487
     48          1           0       11.499190   -1.546439   -3.961936
     49          1           0       12.552135    1.388536   -4.301730
     50          1           0       13.543600    0.598589   -5.950664
     51          1           0       12.835829   -1.065928   -5.673032
     52          1           0       14.499689   -0.603865   -5.082574
     53          1           0        9.436582   -0.446751   -4.103957
     54          1           0       10.299277    0.656690   -4.917048
     55          1           0       10.862055    1.695737   -2.566008
     56          1           0        9.304180    0.959661   -2.286816
     57          1           0       17.471119    4.294915   -2.739464
     58          1           0       16.531930    3.153080   -3.799420
     59          1           0       18.188048    2.761470   -3.282304
     60          1           0       18.573908    3.933917    2.027472
     61          1           0       20.033539    4.031223    1.138025
     62          1           0       19.647219    2.453182    1.682747
     63          1           0       16.100672    1.477256    4.629524
     64          1           0       15.021985   -1.170149    5.212108
     65          1           0       17.049310   -1.260329    4.775371
     66          1           0       18.056096    0.322291    4.899017
     67          1           0       17.786402   -0.469781    3.418143
     68          1           0       12.780297    0.730906    4.590151
     69          1           0       14.053446    1.499963    5.507144
     70          1           0       13.070105    0.689451    7.384271
     71          1           0       13.477693   -0.954031    6.860974
     72          1           0       11.958802   -0.230678    6.454950
     73          1           0       10.201283   -4.332530    2.990789
     74          1           0       11.930885   -4.298568    3.731967
     75          1           0       11.444214   -5.351375    2.345835
     76          1           0       10.381024   -3.202355   -2.550976
     77          1           0        7.189939   -0.390343   -2.725462
     78          1           0        6.248040   -1.907328   -2.595680
     79          1           0        6.877374   -1.538091   -4.165431
     80         12           0      -13.544426    0.910651   -0.184520
     81          6           0      -13.809733   -2.577105   -0.155798
     82          6           0      -10.319379    0.684253   -0.748049
     83          6           0      -13.224482    4.251990    0.548209
     84          6           0      -16.889195    1.136302    0.923234
     85          7           0      -12.298651   -0.757114   -0.513056
     86          6           0      -12.569194   -2.107729   -0.532233
     87          6           0      -11.377520   -2.916114   -1.028858
     88          6           0      -10.235959   -1.850388   -0.981957
     89          6           0      -10.984986   -0.570579   -0.846215
     90          6           0       -9.085087   -2.027363   -0.015163
     91          6           0      -11.593228   -3.628877   -2.402059
     92          6           0      -10.408628   -4.466695   -2.895572
     93          1           0      -10.725002   -5.901044   -3.293122
     94          7           0      -11.890098    2.330463   -0.047583
     95          6           0      -10.644515    2.033743   -0.473257
     96          6           0       -9.847231    3.228856   -0.471500
     97          6           0      -10.662217    4.266147    0.013625
     98          6           0      -11.989961    3.621744    0.205196
     99          6           0       -8.385601    3.268758   -0.864711
    100          6           0      -10.356076    5.716435    0.197757
    101          8           0      -11.089285    6.565461    0.771706
    102          6           0       -9.071600    6.305285   -0.372637
    103          7           0      -14.841539    2.428453    0.632992
    104          6           0      -14.443099    3.695088    0.894766
    105          6           0      -15.732682    4.601311    1.280850
    106          6           0      -16.921850    3.642660    0.921888
    107          6           0      -16.219809    2.334827    0.743334
    108          6           0      -15.635372    5.013493    2.801694
    109          6           0      -17.542158    4.019479   -0.473010
    110          6           0      -16.628269    4.165518   -1.679757
    111          7           0      -15.140262   -0.450861    0.256088
    112          6           0      -16.409060   -0.168628    0.682202
    113          6           0      -17.071305   -1.381906    0.818819
    114          6           0      -16.139628   -2.421896    0.536132
    115          6           0      -14.967030   -1.799804    0.196682
    116          6           0      -18.456877   -1.644261    1.293889
    117          6           0      -15.880287   -3.877523    0.459461
    118          8           0      -16.554291   -4.869656    0.711931
    119          6           0      -14.360059   -4.022202   -0.099554
    120          6           0      -13.606998   -5.031775    0.691293
    121          8           0      -13.741978   -5.223049    1.936336
    122          8           0      -12.928971   -5.772719   -0.174776
    123          6           0      -12.517148   -7.062469    0.345435
    124          1           0       -9.268797    0.675566   -1.046208
    125          1           0      -13.148278    5.322918    0.750923
    126          1           0      -17.952408    1.251179    1.139814
    127          1           0      -11.301022   -3.736670   -0.315207
    128          1           0       -9.719179   -1.739017   -1.935800
    129          1           0       -8.919743   -3.031708    0.374727
    130          1           0       -9.202365   -1.324356    0.809972
    131          1           0       -8.211096   -1.567735   -0.477089
    132          1           0      -11.870811   -2.892665   -3.156843
    133          1           0      -12.460864   -4.283702   -2.328255
    134          1           0       -9.770216   -4.776519   -2.068393
    135          1           0       -9.844214   -3.940288   -3.665835
    136          1           0       -7.930347    2.293372   -1.035960
    137          1           0       -7.696329    3.614348   -0.094661
    138          1           0       -8.191619    3.868471   -1.754523
    139          1           0       -8.237243    5.902473    0.200879
    140          1           0       -8.956009    7.357957   -0.115523
    141          1           0       -8.993410    6.200826   -1.455404
    142          1           0      -15.715461    5.525258    0.702791
    143          1           0      -17.558052    3.643673    1.806933
    144          1           0      -14.650831    4.841565    3.237045
    145          1           0      -16.321284    4.473917    3.454954
    146          1           0      -15.787984    6.077735    2.975296
    147          1           0      -17.999417    4.970894   -0.201112
    148          1           0      -18.342123    3.360261   -0.808682
    149          1           0      -15.585964    4.184582   -1.360700
    150          1           0      -16.856680    4.980537   -2.365682
    151          1           0      -16.881388    3.284094   -2.268981
    152          1           0      -19.229205   -1.101230    0.748586
    153          1           0      -18.474906   -1.278771    2.320221
    154          1           0      -18.699917   -2.706197    1.310392
    155          1           0      -14.495088   -4.416357   -1.106453
    156          1           0      -12.688796   -7.838328   -0.401724
    157          1           0      -13.041153   -7.415026    1.233496
    158          1           0      -11.446391   -6.978774    0.534222
 ---------------------------------------------------------------------

 SCF Done:  E(RCAM-B3LYP) =  -4069.81054165     A.U. after   19 cycles

 Excitation energies and oscillator strengths:

 Excited State   1:      Singlet-A      1.6651 eV  744.60 nm  f=0.3898  <S**2>=0.000
     309 -> 315       -0.17242
     312 -> 314        0.68770
     309 <- 315       -0.10773
 This state for optimization and/or second-order correction.
 Total Energy, E(TD-HF/TD-DFT) =  -4069.74934979
 Copying the excited state density for this state as the 1-particle RhoCI density.

 Excited State   2:      Singlet-A      1.7146 eV  723.13 nm  f=0.3807  <S**2>=0.000
     310 -> 316        0.16589
     311 -> 313        0.68891
     310 <- 316        0.10305

 Excited State   3:      Singlet-A      2.1454 eV  577.92 nm  f=0.1691  <S**2>=0.000
     310 -> 313        0.66339
     311 -> 316       -0.22674

 Excited State   4:      Singlet-A      2.2662 eV  547.09 nm  f=0.1009  <S**2>=0.000
     309 -> 314        0.62918
     312 -> 315        0.31019

 Excited State   5:      Singlet-A      2.8606 eV  433.42 nm  f=0.0000  <S**2>=0.000
     312 -> 313        0.70708

 The electronic state is 1-A.
 Alpha  occ. eigenvalues --  -46.89356 -46.88671 -19.26631 -19.24740 -19.20555
 Alpha  occ. eigenvalues --  -19.19226 -19.19086 -19.19021 -19.18429 -19.18329
 Alpha  occ. eigenvalues --  -14.42877 -14.42469 -14.41974 -14.41800 -14.39738
 Alpha  occ. eigenvalues --  -14.39687 -14.39623 -14.38000 -10.39370 -10.39210
 Alpha  occ. eigenvalues --  -10.35732 -10.35095 -10.34801 -10.34684 -10.32093
 Alpha  occ. eigenvalues --  -10.31987 -10.31591 -10.31304 -10.31068 -10.31034
 Alpha  occ. eigenvalues --  -10.30989 -10.30913 -10.30759 -10.30743 -10.30671
 Alpha  occ. eigenvalues --  -10.30603 -10.30558 -10.30073 -10.30042 -10.29740
 Alpha  occ. eigenvalues --  -10.29410 -10.29220 -10.28806 -10.28615 -10.28596
 Alpha  occ. eigenvalues --  -10.28494 -10.28430 -10.28411 -10.28293 -10.28272
 Alpha  occ. eigenvalues --  -10.28230 -10.28224 -10.28193 -10.28147 -10.28127
 Alpha  occ. eigenvalues --  -10.27922 -10.27857 -10.27839 -10.27833 -10.27759
 Alpha  occ. eigenvalues --  -10.27745 -10.27678 -10.27527 -10.27129 -10.27041
 Alpha  occ. eigenvalues --  -10.26839 -10.26709 -10.26636 -10.26596 -10.26586
 Alpha  occ. eigenvalues --  -10.26469 -10.26469 -10.26461 -10.26454 -10.26448
 Alpha  occ. eigenvalues --  -10.26121 -10.26120 -10.26099 -10.25649 -10.25597
 Alpha  occ. eigenvalues --  -10.25563 -10.25444 -10.25402 -10.25222 -10.24866
 Alpha  occ. eigenvalues --  -10.24249  -3.17744  -3.17316  -1.92653  -1.92178
 Alpha  occ. eigenvalues --   -1.92169  -1.92059  -1.91776  -1.91635  -1.18068
 Alpha  occ. eigenvalues --   -1.17397  -1.10488  -1.10054  -1.09093  -1.08772
 Alpha  occ. eigenvalues --   -1.08347  -1.05892  -1.05387  -1.04674  -1.04336
 Alpha  occ. eigenvalues --   -1.04085  -1.03429  -1.03314  -1.02720  -1.02436
 Alpha  occ. eigenvalues --   -0.93284  -0.91830  -0.89974  -0.89569  -0.89514
 Alpha  occ. eigenvalues --   -0.89262  -0.88473  -0.88382  -0.87960  -0.87618
 Alpha  occ. eigenvalues --   -0.87116  -0.86424  -0.85896  -0.85658  -0.84836
 Alpha  occ. eigenvalues --   -0.84776  -0.84258  -0.83738  -0.82889  -0.82818
 Alpha  occ. eigenvalues --   -0.81832  -0.81784  -0.81311  -0.80974  -0.80645
 Alpha  occ. eigenvalues --   -0.80612  -0.78855  -0.78035  -0.77603  -0.77563
 Alpha  occ. eigenvalues --   -0.77327  -0.76946  -0.76156  -0.76099  -0.75225
 Alpha  occ. eigenvalues --   -0.75211  -0.72797  -0.72726  -0.71786  -0.71722
 Alpha  occ. eigenvalues --   -0.69885  -0.69731  -0.69162  -0.68909  -0.68767
 Alpha  occ. eigenvalues --   -0.68324  -0.67660  -0.67176  -0.65952  -0.65503
 Alpha  occ. eigenvalues --   -0.65176  -0.65175  -0.64653  -0.64645  -0.64542
 Alpha  occ. eigenvalues --   -0.64475  -0.62715  -0.62226  -0.60992  -0.60098
 Alpha  occ. eigenvalues --   -0.59750  -0.59508  -0.59225  -0.59180  -0.59035
 Alpha  occ. eigenvalues --   -0.58509  -0.58236  -0.57585  -0.57473  -0.57204
 Alpha  occ. eigenvalues --   -0.56653  -0.56214  -0.56184  -0.56007  -0.55773
 Alpha  occ. eigenvalues --   -0.55523  -0.55445  -0.55292  -0.55213  -0.54699
 Alpha  occ. eigenvalues --   -0.54367  -0.54176  -0.53249  -0.53150  -0.53115
 Alpha  occ. eigenvalues --   -0.52945  -0.52899  -0.52513  -0.52453  -0.52385
 Alpha  occ. eigenvalues --   -0.52209  -0.51710  -0.51694  -0.51551  -0.51534
 Alpha  occ. eigenvalues --   -0.51244  -0.51030  -0.50950  -0.50540  -0.50425
 Alpha  occ. eigenvalues --   -0.50219  -0.50084  -0.49708  -0.49515  -0.49500
 Alpha  occ. eigenvalues --   -0.49347  -0.49080  -0.49040  -0.48857  -0.48830
 Alpha  occ. eigenvalues --   -0.48680  -0.48559  -0.48463  -0.48461  -0.48334
 Alpha  occ. eigenvalues --   -0.48082  -0.47645  -0.47297  -0.47215  -0.47193
 Alpha  occ. eigenvalues --   -0.47177  -0.46994  -0.46873  -0.46735  -0.46478
 Alpha  occ. eigenvalues --   -0.46470  -0.46359  -0.46097  -0.45979  -0.45936
 Alpha  occ. eigenvalues --   -0.45833  -0.45597  -0.45417  -0.45335  -0.45159
 Alpha  occ. eigenvalues --   -0.44759  -0.44710  -0.44461  -0.44435  -0.44255
 Alpha  occ. eigenvalues --   -0.44148  -0.44009  -0.43833  -0.43703  -0.43701
 Alpha  occ. eigenvalues --   -0.43396  -0.43326  -0.43180  -0.42905  -0.42851
 Alpha  occ. eigenvalues --   -0.42623  -0.42560  -0.42478  -0.42334  -0.42285
 Alpha  occ. eigenvalues --   -0.42225  -0.42048  -0.41983  -0.41744  -0.41416
 Alpha  occ. eigenvalues --   -0.41211  -0.41210  -0.40862  -0.40839  -0.40504
 Alpha  occ. eigenvalues --   -0.40473  -0.39906  -0.39579  -0.39238  -0.39232
 Alpha  occ. eigenvalues --   -0.38652  -0.38566  -0.37978  -0.37874  -0.37446
 Alpha  occ. eigenvalues --   -0.37281  -0.37133  -0.36897  -0.36551  -0.36548
 Alpha  occ. eigenvalues --   -0.36271  -0.35877  -0.35229  -0.34325  -0.34055
 Alpha  occ. eigenvalues --   -0.33927  -0.33117  -0.32881  -0.31926  -0.31473
 Alpha  occ. eigenvalues --   -0.31203  -0.31130  -0.30768  -0.30617  -0.30081
 Alpha  occ. eigenvalues --   -0.29992  -0.29747  -0.28486  -0.24402  -0.24045
 Alpha  occ. eigenvalues --   -0.21749  -0.21138
 Alpha virt. eigenvalues --   -0.09349  -0.08871  -0.01882  -0.01266  -0.00005
 Alpha virt. eigenvalues --    0.00124   0.01293   0.01817   0.02435   0.02525
 Alpha virt. eigenvalues --    0.04469   0.04685   0.04929   0.05332   0.05708

 Mulliken charges:
               1
     1  Mg   0.832809
     2  C   -0.065665
     3  C   -0.082041
     4  C   -0.051789
     5  C   -0.084078
     6  N   -0.298316
     7  C   -0.025954
     8  C    0.018515
     9  C   -0.084377
    10  C    0.035913
    11  C    0.085097
    12  C    0.008142
    13  C   -0.055287
    14  H    0.025160
    15  N   -0.351597
    16  C    0.137638
    17  C   -0.183546
    18  C   -0.001134
    19  C    0.138332
    20  C    0.160160
    21  C   -0.032170
    22  O   -0.207876
    23  C    0.057883
    24  N   -0.289652
    25  C    0.015918
    26  C   -0.027209
    27  C   -0.062484
    28  C    0.016109
    29  C    0.089619
    30  C    0.056698
    31  C    0.010140
    32  N   -0.344903
    33  C    0.137276
    34  C   -0.195322
    35  C   -0.004468
    36  C    0.133822
    37  C    0.146250
    38  C    0.051097
    39  O   -0.169915
    40  C    0.007148
    41  C    0.187003
    42  O   -0.181158
    43  O   -0.345624
    44  C    0.175795
    45  H   -0.026703
    46  H   -0.055640
    47  H   -0.024696
    48  H    0.014615
    49  H    0.028438
    50  H    0.016096
    51  H    0.023371
    52  H    0.024441
    53  H   -0.007159
    54  H   -0.001213
    55  H    0.031341
    56  H    0.037461
    57  H    0.042216
    58  H   -0.001190
    59  H    0.032193
    60  H    0.043772
    61  H    0.018374
    62  H    0.031650
    63  H    0.007020
    64  H    0.007387
    65  H    0.018966
    66  H    0.023847
    67  H    0.006603
    68  H    0.033261
    69  H   -0.000330
    70  H    0.016234
    71  H    0.005159
    72  H    0.013687
    73  H    0.046335
    74  H    0.016305
    75  H    0.034397
    76  H    0.034113
    77  H    0.056282
    78  H    0.035020
    79  H    0.036389
    80  Mg   0.807784
    81  C    0.045510
    82  C   -0.061065
    83  C   -0.047247
    84  C   -0.073327
    85  N   -0.322577
    86  C   -0.057816
    87  C    0.013279
    88  C   -0.034217
    89  C    0.074968
    90  C    0.092315
    91  C    0.063791
    92  C   -0.073696
    93  H    0.013792
    94  N   -0.299727
    95  C    0.075893
    96  C   -0.092440
    97  C   -0.003288
    98  C    0.074295
    99  C    0.096176
   100  C   -0.003934
   101  O   -0.229706
   102  C    0.052590
   103  N   -0.284289
   104  C    0.052246
   105  C   -0.096621
   106  C    0.025719
   107  C    0.020333
   108  C    0.057907
   109  C    0.029701
   110  C    0.003981
   111  N   -0.330787
   112  C    0.139882
   113  C   -0.184954
   114  C    0.005539
   115  C    0.046717
   116  C    0.122853
   117  C    0.080757
   118  O   -0.165242
   119  C   -0.062053
   120  C    0.199366
   121  O   -0.251058
   122  O   -0.299822
   123  C    0.166034
   124  H   -0.049927
   125  H   -0.001738
   126  H   -0.028169
   127  H    0.004779
   128  H    0.004243
   129  H    0.033509
   130  H    0.011624
   131  H    0.004479
   132  H   -0.001714
   133  H    0.022206
   134  H    0.025217
   135  H    0.040105
   136  H    0.005096
   137  H    0.026662
   138  H    0.032488
   139  H    0.022976
   140  H    0.017771
   141  H    0.042462
   142  H    0.017998
   143  H    0.003577
   144  H    0.022371
   145  H    0.011562
   146  H    0.017876
   147  H    0.004063
   148  H    0.005085
   149  H    0.037457
   150  H    0.019527
   151  H    0.011947
   152  H    0.012977
   153  H    0.020254
   154  H    0.033447
   155  H    0.052735
   156  H    0.035617
   157  H    0.061830
   158  H    0.032046
 Sum of Mulliken charges =  -0.00000

 Dipole moment (field-independent basis, Debye):
    X=              6.3113    Y=              1.2883    Z=             -3.5990  Tot=              7.3787
 Quadrupole moment (field-independent basis, Debye-Ang):
   XX=           -577.9262   YY=           -550.5415   ZZ=           -480.5183
   XY=            -85.4162   XZ=             88.8673   YZ=              8.4556

 Normal termination of Gaussian 16 at Tue Sep 14 17:57:30 2021.
