 Gaussian 16, Revision A.03,
 Gaussian 16:  ES64L-G16RevA.03 25-Dec-2016

 -----------------------------------
 #p cam-b3lyp/Def2SVP td=(nstates=5)
 -----------------------------------

 --------------------------------
 TDDFT excited states in gaussian
 --------------------------------
 Symbolic Z-matrix:
 Charge =  0 Multiplicity = 1

                         Standard orientation:
 ---------------------------------------------------------------------
 Center     Atomic      Atomic             Coordinates (Angstroms)
 Number     Number       Type             X           Y           Z
 ---------------------------------------------------------------------
      1         12           0       -0.756077    0.161410   -0.439919
      2          6           0        2.772076    0.267154    0.204414
      3          6           0       -0.444468   -3.370978   -0.009791
      4          6           0       -4.070168   -0.153878    0.014236
      5          6           0       -0.852251    3.560535   -0.075213
      6          7           0        0.959815   -1.305977    0.070929
      7          6           0        2.285572   -1.044040    0.258642
      8          6           0        3.106342   -2.352122    0.533943
      9          6           0        2.068975   -3.471849    0.043155
     10          6           0        0.771771   -2.682092    0.114901
     11          6           0        2.302815   -3.978481   -1.361588
     12          6           0        3.652878   -2.436647    1.949493
     13          6           0        5.118574   -2.912290    2.124199
     14          1           0        5.448458   -4.416734    2.555109
     15          7           0       -2.145138   -1.578406   -0.140752
     16          6           0       -1.780011   -2.939915   -0.090541
     17          6           0       -3.000165   -3.750879    0.002553
     18          6           0       -4.087881   -2.792239   -0.037930
     19          6           0       -3.486813   -1.477658    0.030782
     20          6           0       -3.087029   -5.223143    0.151933
     21          6           0       -5.550450   -3.145790   -0.139750
     22          8           0       -5.844990   -4.300291   -0.353297
     23          6           0       -6.680829   -2.151601   -0.006018
     24          7           0       -2.148085    1.498962    0.024373
     25          6           0       -3.487714    1.121642   -0.004079
     26          6           0       -4.322537    2.384120    0.222888
     27          6           0       -3.308723    3.560836   -0.022997
     28          6           0       -2.014412    2.821408   -0.072774
     29          6           0       -5.690549    2.519031   -0.541401
     30          6           0       -3.331029    4.768201    0.963936
     31          6           0       -3.506041    6.137359    0.392319
     32          7           0        0.619949    1.652015   -0.147869
     33          6           0        0.456804    3.025277   -0.093719
     34          6           0        1.762867    3.709956   -0.149115
     35          6           0        2.691855    2.613482    0.034927
     36          6           0        1.932979    1.439110    0.038268
     37          6           0        2.089713    5.175800   -0.261474
     38          6           0        4.146920    2.301697    0.151483
     39          8           0        5.095298    3.028691    0.236996
     40          6           0        4.199490    0.794148    0.377114
     41          6           0        5.111753    0.208090   -0.658762
     42          8           0        4.781681    0.258175   -1.824172
     43          8           0        6.271674   -0.461365   -0.165350
     44          6           0        7.077251   -1.225072   -1.165892
     45          1           0       -0.384969   -4.459037    0.063431
     46          1           0       -5.151687   -0.079780    0.139607
     47          1           0       -0.920658    4.646876   -0.159145
     48          1           0        3.926977   -2.471537   -0.172864
     49          1           0        1.982563   -4.280152    0.769199
     50          1           0        1.875846   -3.259938   -2.060847
     51          1           0        1.857778   -4.971609   -1.421150
     52          1           0        3.327725   -4.091909   -1.716381
     53          1           0        3.038877   -3.175647    2.463332
     54          1           0        3.410828   -1.502082    2.455486
     55          1           0        5.505278   -2.233634    2.884832
     56          1           0        5.730498   -2.762739    1.234573
     57          1           0       -3.271763   -5.618375   -0.846491
     58          1           0       -3.987073   -5.472206    0.714146
     59          1           0       -2.266957   -5.779790    0.607086
     60          1           0       -7.681696   -2.582567    0.009768
     61          1           0       -6.607986   -1.510812   -0.884844
     62          1           0       -6.672107   -1.440793    0.819455
     63          1           0       -4.637036    2.250023    1.258286
     64          1           0       -3.409457    3.881157   -1.059557
     65          1           0       -5.714080    1.856791   -1.407257
     66          1           0       -5.877849    3.559222   -0.807280
     67          1           0       -6.517522    2.267609    0.122319
     68          1           0       -2.411442    4.758490    1.548964
     69          1           0       -4.090803    4.550895    1.714567
     70          1           0       -2.555964    6.668709    0.444125
     71          1           0       -4.229763    6.692215    0.989210
     72          1           0       -3.835607    6.213620   -0.643635
     73          1           0        3.100531    5.323474   -0.641106
     74          1           0        1.974574    5.593754    0.738997
     75          1           0        1.307678    5.645427   -0.858386
     76          1           0        4.480245    0.630725    1.417690
     77          1           0        7.700763   -0.529211   -1.727497
     78          1           0        6.430914   -1.708725   -1.897998
     79          1           0        7.677334   -1.991484   -0.675745
 ---------------------------------------------------------------------

 SCF Done:  E(RCAM-B3LYP) =  -2034.90437845     A.U. after   15 cycles

 Excitation energies and oscillator strengths:

 Excited State   1:      Singlet-A      1.6714 eV  741.79 nm  f=0.3989  <S**2>=0.000
     155 ->158         0.16944
     156 ->157         0.68865
     155 <-158         0.10663
 This state for optimization and/or second-order correction.
 Total Energy, E(TD-HF/TD-DFT) =  -2034.84295470
 Copying the excited state density for this state as the 1-particle RhoCI density.

 Excited State   2:      Singlet-A      2.2361 eV  554.47 nm  f=0.1280  <S**2>=0.000
     155 ->157         0.64110
     156 ->158        -0.28152

 Excited State   3:      Singlet-A      3.1110 eV  398.53 nm  f=0.0035  <S**2>=0.000
     154 ->157         0.68082

 Excited State   4:      Singlet-A      3.3075 eV  374.86 nm  f=0.0041  <S**2>=0.000
     153 ->157         0.68051

 Excited State   5:      Singlet-A      3.5909 eV  345.27 nm  f=0.7163  <S**2>=0.000
     155 ->157         0.27895
     156 ->158         0.59593
     156 ->159        -0.12544
     156 ->160        -0.15031
     155 <-157        -0.10800

 The electronic state is 1-A.
 Alpha  occ. eigenvalues --  -46.89330 -19.25262 -19.20733 -19.19731 -19.17989
 Alpha  occ. eigenvalues --  -14.42765 -14.41720 -14.39342 -14.39163 -10.40225
 Alpha  occ. eigenvalues --  -10.35412 -10.34517 -10.32272 -10.31391 -10.31300
 Alpha  occ. eigenvalues --  -10.30700 -10.30519 -10.30286 -10.30238 -10.29494
 Alpha  occ. eigenvalues --  -10.29228 -10.29108 -10.28840 -10.28667 -10.28643
 Alpha  occ. eigenvalues --  -10.28561 -10.28064 -10.27996 -10.27797 -10.27606
 Alpha  occ. eigenvalues --  -10.27226 -10.27016 -10.26922 -10.26572 -10.26529
 Alpha  occ. eigenvalues --  -10.26528 -10.26497 -10.26318 -10.26053 -10.25897
 Alpha  occ. eigenvalues --  -10.25739 -10.25537 -10.25376  -3.17899  -1.92747
 Alpha  occ. eigenvalues --   -1.92359  -1.92206  -1.15372  -1.11731  -1.10219
 Alpha  occ. eigenvalues --   -1.07872  -1.04600  -1.03583  -1.02781  -1.01517
 Alpha  occ. eigenvalues --   -0.92761  -0.89413  -0.88891  -0.88462  -0.87620
 Alpha  occ. eigenvalues --   -0.86235  -0.85655  -0.84498  -0.83966  -0.82500
 Alpha  occ. eigenvalues --   -0.81849  -0.80561  -0.80210  -0.78170  -0.77494
 Alpha  occ. eigenvalues --   -0.76804  -0.76354  -0.75230  -0.72652  -0.71786
 Alpha  occ. eigenvalues --   -0.69556  -0.68942  -0.67928  -0.66718  -0.65950
 Alpha  occ. eigenvalues --   -0.65101  -0.64547  -0.64324  -0.62330  -0.59802
 Alpha  occ. eigenvalues --   -0.59561  -0.59198  -0.59073  -0.58334  -0.57653
 Alpha  occ. eigenvalues --   -0.56544  -0.55667  -0.55440  -0.54334  -0.53872
 Alpha  occ. eigenvalues --   -0.53371  -0.53087  -0.52965  -0.52247  -0.51840
 Alpha  occ. eigenvalues --   -0.51730  -0.51319  -0.51107  -0.50931  -0.50442
 Alpha  occ. eigenvalues --   -0.49944  -0.49877  -0.49746  -0.49309  -0.49117
 Alpha  occ. eigenvalues --   -0.48712  -0.48601  -0.48193  -0.47695  -0.47090
 Alpha  occ. eigenvalues --   -0.46982  -0.46427  -0.46388  -0.46188  -0.46060
 Alpha  occ. eigenvalues --   -0.45979  -0.45833  -0.45255  -0.44965  -0.44666
 Alpha  occ. eigenvalues --   -0.43780  -0.43621  -0.43454  -0.43313  -0.42906
 Alpha  occ. eigenvalues --   -0.42646  -0.42556  -0.42434  -0.41925  -0.41557
 Alpha  occ. eigenvalues --   -0.41127  -0.40836  -0.40579  -0.40270  -0.39295
 Alpha  occ. eigenvalues --   -0.38475  -0.37706  -0.37347  -0.37163  -0.36514
 Alpha  occ. eigenvalues --   -0.35827  -0.35052  -0.34405  -0.33190  -0.31609
 Alpha  occ. eigenvalues --   -0.31116  -0.30500  -0.29680  -0.28746  -0.24314
 Alpha  occ. eigenvalues --   -0.21132
 Alpha virt. eigenvalues --   -0.08993  -0.01504   0.00461   0.01237   0.02629
 Alpha virt. eigenvalues --    0.04391   0.04396   0.05596   0.07027   0.07548
 Alpha virt. eigenvalues --    0.08485   0.08924   0.08957   0.09437   0.10136

 Mulliken charges:
               1
     1  Mg   0.850157
     2  C   -0.068713
     3  C   -0.046560
     4  C   -0.070127
     5  C   -0.117748
     6  N   -0.248507
     7  C   -0.056092
     8  C   -0.029269
     9  C   -0.067530
    10  C    0.027860
    11  C    0.088684
    12  C    0.079539
    13  C   -0.054255
    14  H    0.008680
    15  N   -0.346050
    16  C    0.095281
    17  C   -0.125943
    18  C   -0.029143
    19  C    0.139833
    20  C    0.130529
    21  C   -0.009059
    22  O   -0.204453
    23  C    0.048535
    24  N   -0.372415
    25  C    0.069192
    26  C   -0.081042
    27  C    0.022208
    28  C    0.057895
    29  C    0.063543
    30  C    0.049690
    31  C    0.008706
    32  N   -0.354589
    33  C    0.126939
    34  C   -0.181003
    35  C   -0.063987
    36  C    0.147734
    37  C    0.135423
    38  C    0.053070
    39  O   -0.136289
    40  C    0.059762
    41  C    0.212862
    42  O   -0.206825
    43  O   -0.375235
    44  C    0.175417
    45  H   -0.030902
    46  H   -0.056687
    47  H   -0.037315
    48  H    0.003958
    49  H    0.001849
    50  H    0.021997
    51  H    0.020333
    52  H    0.014383
    53  H    0.012528
    54  H    0.016706
    55  H    0.032670
    56  H    0.027189
    57  H    0.030814
    58  H    0.030816
    59  H    0.014441
    60  H    0.024092
    61  H    0.029762
    62  H    0.037080
    63  H    0.024831
    64  H    0.007138
    65  H    0.023790
    66  H    0.015800
    67  H    0.009093
    68  H    0.014435
    69  H   -0.000379
    70  H    0.015711
    71  H    0.013735
    72  H    0.015191
    73  H    0.047890
    74  H    0.030559
    75  H    0.013040
    76  H    0.042052
    77  H    0.044663
    78  H    0.034771
    79  H    0.047265
 Sum of Mulliken charges =  -0.00000

 Dipole moment (field-independent basis, Debye):
    X=             -1.4208    Y=              1.1508    Z=              0.0073  Tot=              1.8284
 Quadrupole moment (field-independent basis, Debye-Ang):
   XX=           -262.9306   YY=           -252.4296   ZZ=           -258.6303
   XY=            -48.7762   XZ=             -4.6169   YZ=              0.7030

 Normal termination of Gaussian 16 at Wed Sep 15 15:09:39 2021.
