 Gaussian 16, Revision A.03,
 Gaussian 16:  ES64L-G16RevA.03 25-Dec-2016

 -----------------------------------
 #p cam-b3lyp/Def2SVP td=(nstates=5)
 -----------------------------------

 --------------------------------
 TDDFT excited states in gaussian
 --------------------------------
 Symbolic Z-matrix:
 Charge =  0 Multiplicity = 1

                         Standard orientation:
 ---------------------------------------------------------------------
 Center     Atomic      Atomic             Coordinates (Angstroms)
 Number     Number       Type             X           Y           Z
 ---------------------------------------------------------------------
      1         12           0      -30.285481   -0.426286    0.560369
      2          6           0      -30.527535    2.428045   -1.289997
      3          6           0      -27.914869   -1.635820   -1.770113
      4          6           0      -30.189151   -3.335310    2.216126
      5          6           0      -32.546714    0.879404    2.792134
      6          7           0      -29.565296    0.153751   -1.460638
      7          6           0      -29.731921    1.454814   -1.952099
      8          6           0      -28.952418    1.679541   -3.278684
      9          6           0      -28.220729    0.313664   -3.363590
     10          6           0      -28.631420   -0.495805   -2.146864
     11          6           0      -28.288011   -0.585984   -4.670542
     12          6           0      -27.950499    2.916041   -3.320815
     13          6           0      -27.206545    3.014301   -4.679624
     14          1           0      -27.681426    4.182320   -5.545110
     15          7           0      -29.133729   -2.255663    0.273960
     16          6           0      -28.075003   -2.415972   -0.593871
     17          6           0      -27.609477   -3.784241   -0.400149
     18          6           0      -28.288230   -4.271795    0.762749
     19          6           0      -29.239637   -3.284000    1.164431
     20          6           0      -26.560899   -4.361814   -1.270499
     21          6           0      -28.085898   -5.721183    1.327480
     22          8           0      -28.816496   -6.230934    2.201156
     23          6           0      -27.007792   -6.606200    0.758341
     24          7           0      -31.200089   -1.102032    2.151109
     25          6           0      -31.022768   -2.403151    2.700134
     26          6           0      -32.081994   -2.701861    3.736812
     27          6           0      -32.426049   -1.280136    4.176713
     28          6           0      -31.999091   -0.405567    3.006434
     29          6           0      -33.311687   -3.473316    3.150328
     30          6           0      -31.630196   -0.830131    5.422264
     31          6           0      -32.168905   -1.181714    6.783024
     32          7           0      -31.417862    1.281408    0.788441
     33          6           0      -32.168711    1.756718    1.795120
     34          6           0      -32.665656    3.054670    1.445538
     35          6           0      -32.045867    3.385955    0.259394
     36          6           0      -31.250957    2.283009   -0.089278
     37          6           0      -33.576356    3.829862    2.332466
     38          6           0      -31.927839    4.406301   -0.692715
     39          8           0      -32.409873    5.521180   -0.748081
     40          6           0      -30.905704    3.817855   -1.774617
     41          6           0      -31.579612    3.843901   -3.100663
     42          8           0      -32.525916    3.181783   -3.451218
     43          8           0      -30.912857    4.612345   -3.967155
     44          6           0      -31.470483    4.679452   -5.372791
     45          1           0      -27.083315   -1.871689   -2.437233
     46          1           0      -30.163529   -4.275814    2.770137
     47          1           0      -33.167071    1.410949    3.516263
     48          1           0      -29.673600    1.766011   -4.091472
     49          1           0      -27.151735    0.465511   -3.211304
     50          1           0      -27.378489   -1.127743   -4.931456
     51          1           0      -28.745951   -0.022064   -5.483378
     52          1           0      -28.972053   -1.390349   -4.400347
     53          1           0      -27.313371    2.751404   -2.452739
     54          1           0      -28.525078    3.825227   -3.144260
     55          1           0      -27.228307    2.049258   -5.185909
     56          1           0      -26.164893    3.231247   -4.444818
     57          1           0      -27.022483   -5.140517   -1.877975
     58          1           0      -25.743241   -4.638301   -0.604830
     59          1           0      -26.132837   -3.597976   -1.919825
     60          1           0      -26.972366   -7.546987    1.307680
     61          1           0      -26.083059   -6.091680    1.023155
     62          1           0      -27.034553   -6.792437   -0.314978
     63          1           0      -31.678540   -3.306231    4.549727
     64          1           0      -33.489156   -1.129811    4.363495
     65          1           0      -33.937209   -2.815243    2.548455
     66          1           0      -33.894090   -3.923936    3.954415
     67          1           0      -32.886343   -4.270925    2.542226
     68          1           0      -31.417543    0.238162    5.426496
     69          1           0      -30.612525   -1.215969    5.360851
     70          1           0      -31.405339   -1.785781    7.272265
     71          1           0      -32.974473   -1.879400    6.553598
     72          1           0      -32.523639   -0.330642    7.364577
     73          1           0      -33.008156    4.543078    2.928337
     74          1           0      -34.307530    3.284379    2.929860
     75          1           0      -34.179478    4.435220    1.655571
     76          1           0      -30.023235    4.457801   -1.793260
     77          1           0      -31.616848    3.651564   -5.705368
     78          1           0      -30.786452    5.141317   -6.085229
     79          1           0      -32.416652    5.219252   -5.328474
     80         12           0       30.864050    0.459535   -0.040367
     81          6           0       28.145973   -1.591285   -0.656588
     82          6           0       28.827112    2.561004    1.803127
     83          6           0       33.647575    1.964793    1.134802
     84          6           0       32.816867   -1.986417   -1.665628
     85          7           0       28.771169    0.319973    0.746177
     86          6           0       27.870624   -0.492990    0.186776
     87          6           0       26.469338   -0.263447    0.832837
     88          6           0       26.635141    1.226198    1.396673
     89          6           0       28.189340    1.448465    1.252765
     90          6           0       25.707385    2.244654    0.691317
     91          6           0       26.247952   -1.233157    1.971285
     92          6           0       24.848562   -1.820285    2.069252
     93          1           0       24.133598   -2.096473    3.445361
     94          7           0       31.141025    2.190297    1.178854
     95          6           0       30.229448    2.868247    1.897307
     96          6           0       30.908053    3.939952    2.550840
     97          6           0       32.299517    3.902176    2.232588
     98          6           0       32.439482    2.669522    1.447464
     99          6           0       30.167112    5.013718    3.258194
    100          6           0       33.314687    4.819941    2.815299
    101          8           0       32.967305    5.739259    3.537865
    102          6           0       34.795467    4.689781    2.479248
    103          7           0       33.022841    0.058966   -0.333050
    104          6           0       33.920677    0.824346    0.348378
    105          6           0       35.288518    0.228079    0.270401
    106          6           0       34.998582   -1.059427   -0.637137
    107          6           0       33.532830   -1.011321   -0.990745
    108          6           0       36.379957    1.181011   -0.251885
    109          6           0       35.434795   -2.461081   -0.019056
    110          6           0       36.319703   -3.436613   -0.830163
    111          7           0       30.587479   -1.362132   -0.981523
    112          6           0       31.443874   -2.184776   -1.643410
    113          6           0       30.728551   -3.087506   -2.431398
    114          6           0       29.387902   -2.908278   -2.120017
    115          6           0       29.359935   -1.904710   -1.184363
    116          6           0       31.377023   -4.164296   -3.349981
    117          6           0       28.086571   -3.319124   -2.371418
    118          8           0       27.711956   -4.269428   -3.049459
    119          6           0       27.109928   -2.513332   -1.386041
    120          6           0       26.213565   -1.674353   -2.096364
    121          8           0       26.393387   -0.589754   -2.655297
    122          8           0       24.976794   -2.310421   -2.050829
    123          6           0       23.812887   -1.720857   -2.690036
    124          1           0       28.168504    3.307468    2.251479
    125          1           0       34.628342    2.344758    1.429931
    126          1           0       33.506877   -2.629371   -2.216233
    127          1           0       25.717695   -0.402994    0.056376
    128          1           0       26.508904    1.309167    2.475667
    129          1           0       25.173179    1.793932   -0.144858
    130          1           0       26.297552    3.091951    0.340733
    131          1           0       25.022326    2.637103    1.442481
    132          1           0       26.511234   -0.901743    2.975954
    133          1           0       27.016618   -1.993031    1.830523
    134          1           0       24.851655   -2.724125    1.460257
    135          1           0       24.271725   -1.075449    1.521027
    136          1           0       30.126126    5.806209    2.511180
    137          1           0       30.683778    5.325907    4.165973
    138          1           0       29.160079    4.718413    3.552980
    139          1           0       35.168653    3.880855    3.107502
    140          1           0       35.266153    5.586801    2.880889
    141          1           0       34.936578    4.517777    1.412273
    142          1           0       35.441910   -0.025005    1.318961
    143          1           0       35.604794   -1.055612   -1.543022
    144          1           0       36.977856    1.453001    0.618593
    145          1           0       35.972968    2.059275   -0.754061
    146          1           0       37.037225    0.638301   -0.930837
    147          1           0       34.531821   -3.021675    0.222328
    148          1           0       36.023724   -2.357077    0.892497
    149          1           0       35.539945   -4.005771   -1.336098
    150          1           0       36.861109   -4.103326   -0.160240
    151          1           0       36.902338   -3.073756   -1.676801
    152          1           0       31.781227   -4.955469   -2.719795
    153          1           0       32.238237   -3.840900   -3.934961
    154          1           0       30.636205   -4.601701   -4.019857
    155          1           0       26.626639   -3.269709   -0.767443
    156          1           0       23.178838   -2.544823   -3.015942
    157          1           0       24.030789   -0.991320   -3.470486
    158          1           0       23.225483   -1.232977   -1.912070
 ---------------------------------------------------------------------

 SCF Done:  E(RCAM-B3LYP) =  -4069.81164379     A.U. after   18 cycles

 Excitation energies and oscillator strengths:

 Excited State   1:      Singlet-A      1.6534 eV  749.86 nm  f=0.3888  <S**2>=0.000
     309 -> 316        0.16013
     312 -> 314        0.69079
     309 <- 316        0.10388
 This state for optimization and/or second-order correction.
 Total Energy, E(TD-HF/TD-DFT) =  -4069.75088157
 Copying the excited state density for this state as the 1-particle RhoCI density.

 Excited State   2:      Singlet-A      1.6990 eV  729.74 nm  f=0.4040  <S**2>=0.000
     310 -> 315        0.18502
     311 -> 313        0.68487
     310 <- 315        0.10995

 Excited State   3:      Singlet-A      2.2279 eV  556.51 nm  f=0.1004  <S**2>=0.000
     310 -> 313        0.63665
     311 -> 315       -0.29395

 Excited State   4:      Singlet-A      2.2510 eV  550.79 nm  f=0.1080  <S**2>=0.000
     309 -> 314        0.63838
     312 -> 316       -0.28837

 Excited State   5:      Singlet-A      3.0888 eV  401.39 nm  f=0.0000  <S**2>=0.000
     312 -> 313        0.70711

 The electronic state is 1-A.
 Alpha  occ. eigenvalues --  -46.89716 -46.87516 -19.24929 -19.24668 -19.20220
 Alpha  occ. eigenvalues --  -19.19389 -19.19273 -19.18752 -19.18566 -19.18380
 Alpha  occ. eigenvalues --  -14.42733 -14.42377 -14.42046 -14.41755 -14.39833
 Alpha  occ. eigenvalues --  -14.39227 -14.38879 -14.38864 -10.39651 -10.38541
 Alpha  occ. eigenvalues --  -10.35257 -10.35227 -10.34954 -10.34647 -10.32304
 Alpha  occ. eigenvalues --  -10.32068 -10.31613 -10.31572 -10.31422 -10.31371
 Alpha  occ. eigenvalues --  -10.31335 -10.31169 -10.30931 -10.30578 -10.30024
 Alpha  occ. eigenvalues --  -10.29802 -10.29575 -10.29484 -10.29465 -10.29281
 Alpha  occ. eigenvalues --  -10.29006 -10.28994 -10.28861 -10.28747 -10.28614
 Alpha  occ. eigenvalues --  -10.28528 -10.28493 -10.28363 -10.28355 -10.28340
 Alpha  occ. eigenvalues --  -10.28205 -10.28203 -10.28110 -10.28071 -10.27839
 Alpha  occ. eigenvalues --  -10.27824 -10.27801 -10.27787 -10.27771 -10.27469
 Alpha  occ. eigenvalues --  -10.27398 -10.27382 -10.27381 -10.27131 -10.27066
 Alpha  occ. eigenvalues --  -10.26882 -10.26821 -10.26778 -10.26685 -10.26631
 Alpha  occ. eigenvalues --  -10.26557 -10.26545 -10.26365 -10.26179 -10.26095
 Alpha  occ. eigenvalues --  -10.26055 -10.25923 -10.25880 -10.25847 -10.25751
 Alpha  occ. eigenvalues --  -10.25590 -10.25540 -10.25114 -10.25030 -10.24933
 Alpha  occ. eigenvalues --  -10.24877  -3.18038  -3.16296  -1.92952  -1.92488
 Alpha  occ. eigenvalues --   -1.92331  -1.91198  -1.90767  -1.90595  -1.16924
 Alpha  occ. eigenvalues --   -1.15776  -1.10452  -1.10060  -1.10015  -1.08293
 Alpha  occ. eigenvalues --   -1.07553  -1.07154  -1.05538  -1.05454  -1.04112
 Alpha  occ. eigenvalues --   -1.03936  -1.03889  -1.03114  -1.02639  -1.01975
 Alpha  occ. eigenvalues --   -0.93927  -0.93348  -0.89506  -0.89184  -0.89097
 Alpha  occ. eigenvalues --   -0.88793  -0.88676  -0.88431  -0.87923  -0.87920
 Alpha  occ. eigenvalues --   -0.87186  -0.86907  -0.86583  -0.86223  -0.85455
 Alpha  occ. eigenvalues --   -0.84672  -0.84341  -0.83983  -0.83080  -0.82543
 Alpha  occ. eigenvalues --   -0.82286  -0.81596  -0.81512  -0.81227  -0.80828
 Alpha  occ. eigenvalues --   -0.80650  -0.78401  -0.78211  -0.77645  -0.77570
 Alpha  occ. eigenvalues --   -0.77231  -0.76596  -0.76541  -0.76225  -0.75216
 Alpha  occ. eigenvalues --   -0.75209  -0.73544  -0.73234  -0.72422  -0.71824
 Alpha  occ. eigenvalues --   -0.69854  -0.69460  -0.69290  -0.68971  -0.68331
 Alpha  occ. eigenvalues --   -0.68156  -0.67453  -0.66213  -0.66096  -0.65947
 Alpha  occ. eigenvalues --   -0.65814  -0.65518  -0.64968  -0.64893  -0.64637
 Alpha  occ. eigenvalues --   -0.64200  -0.62739  -0.62097  -0.60533  -0.60266
 Alpha  occ. eigenvalues --   -0.60007  -0.59921  -0.59159  -0.59134  -0.59131
 Alpha  occ. eigenvalues --   -0.58895  -0.58340  -0.58216  -0.58033  -0.58028
 Alpha  occ. eigenvalues --   -0.56565  -0.56387  -0.56186  -0.56097  -0.55492
 Alpha  occ. eigenvalues --   -0.55038  -0.54907  -0.54770  -0.54408  -0.54262
 Alpha  occ. eigenvalues --   -0.53573  -0.53479  -0.53432  -0.53365  -0.52951
 Alpha  occ. eigenvalues --   -0.52729  -0.52686  -0.52367  -0.52301  -0.52119
 Alpha  occ. eigenvalues --   -0.52113  -0.51865  -0.51778  -0.51683  -0.51535
 Alpha  occ. eigenvalues --   -0.51348  -0.51341  -0.50411  -0.50386  -0.50265
 Alpha  occ. eigenvalues --   -0.50171  -0.50047  -0.49999  -0.49916  -0.49747
 Alpha  occ. eigenvalues --   -0.49623  -0.49472  -0.49288  -0.49058  -0.49020
 Alpha  occ. eigenvalues --   -0.48959  -0.48775  -0.48419  -0.48326  -0.48276
 Alpha  occ. eigenvalues --   -0.48097  -0.47755  -0.47564  -0.47515  -0.47136
 Alpha  occ. eigenvalues --   -0.46941  -0.46915  -0.46785  -0.46739  -0.46642
 Alpha  occ. eigenvalues --   -0.46534  -0.46470  -0.46159  -0.46047  -0.45995
 Alpha  occ. eigenvalues --   -0.45869  -0.45851  -0.45513  -0.45510  -0.45330
 Alpha  occ. eigenvalues --   -0.45288  -0.45110  -0.44735  -0.44709  -0.44551
 Alpha  occ. eigenvalues --   -0.44240  -0.43937  -0.43766  -0.43728  -0.43643
 Alpha  occ. eigenvalues --   -0.43570  -0.43423  -0.43350  -0.43197  -0.42903
 Alpha  occ. eigenvalues --   -0.42861  -0.42219  -0.42087  -0.42019  -0.41956
 Alpha  occ. eigenvalues --   -0.41868  -0.41822  -0.41641  -0.41566  -0.41473
 Alpha  occ. eigenvalues --   -0.41139  -0.41100  -0.40893  -0.40653  -0.40426
 Alpha  occ. eigenvalues --   -0.40277  -0.40058  -0.39836  -0.39763  -0.38453
 Alpha  occ. eigenvalues --   -0.38323  -0.38245  -0.38075  -0.37999  -0.37491
 Alpha  occ. eigenvalues --   -0.37407  -0.37301  -0.36947  -0.36678  -0.36581
 Alpha  occ. eigenvalues --   -0.36306  -0.35704  -0.34950  -0.34394  -0.34231
 Alpha  occ. eigenvalues --   -0.34022  -0.33648  -0.33291  -0.31858  -0.31474
 Alpha  occ. eigenvalues --   -0.31259  -0.31235  -0.30745  -0.30664  -0.30528
 Alpha  occ. eigenvalues --   -0.30491  -0.29475  -0.29110  -0.24621  -0.24582
 Alpha  occ. eigenvalues --   -0.21575  -0.21129
 Alpha virt. eigenvalues --   -0.09214  -0.09083  -0.02303  -0.01559  -0.00208
 Alpha virt. eigenvalues --    0.00394   0.02307   0.02345   0.02486   0.03401
 Alpha virt. eigenvalues --    0.04021   0.04608   0.04645   0.05351   0.05475

 Mulliken charges:
               1
     1  Mg   0.828517
     2  C    0.007469
     3  C   -0.059521
     4  C   -0.069219
     5  C   -0.093586
     6  N   -0.267912
     7  C   -0.051197
     8  C    0.020223
     9  C   -0.103969
    10  C    0.038334
    11  C    0.063724
    12  C    0.034972
    13  C   -0.056571
    14  H    0.031812
    15  N   -0.358582
    16  C    0.139201
    17  C   -0.203018
    18  C   -0.035933
    19  C    0.110391
    20  C    0.139562
    21  C    0.019210
    22  O   -0.225612
    23  C    0.056034
    24  N   -0.391516
    25  C    0.083617
    26  C   -0.019347
    27  C   -0.020651
    28  C    0.118477
    29  C    0.088227
    30  C   -0.004931
    31  C    0.053335
    32  N   -0.339564
    33  C    0.089623
    34  C   -0.168124
    35  C    0.069276
    36  C    0.103919
    37  C    0.107990
    38  C    0.017660
    39  O   -0.153778
    40  C   -0.052425
    41  C    0.180638
    42  O   -0.217044
    43  O   -0.331556
    44  C    0.179194
    45  H   -0.027504
    46  H   -0.006595
    47  H   -0.026949
    48  H    0.017584
    49  H    0.009459
    50  H    0.020288
    51  H    0.021749
    52  H    0.015392
    53  H    0.010963
    54  H    0.033013
    55  H    0.030017
    56  H    0.029327
    57  H    0.042921
    58  H    0.027699
    59  H    0.001095
    60  H    0.024410
    61  H    0.024853
    62  H    0.039983
    63  H    0.000235
    64  H   -0.003821
    65  H    0.020451
    66  H    0.019236
    67  H    0.019159
    68  H   -0.002524
    69  H   -0.003877
    70  H    0.012706
    71  H   -0.002483
    72  H    0.028756
    73  H    0.038341
    74  H    0.023668
    75  H    0.027420
    76  H    0.043190
    77  H    0.041482
    78  H    0.041640
    79  H    0.051366
    80  Mg   0.803432
    81  C   -0.053550
    82  C   -0.077669
    83  C   -0.031497
    84  C   -0.113878
    85  N   -0.266412
    86  C   -0.028576
    87  C   -0.077963
    88  C   -0.056787
    89  C    0.065577
    90  C    0.083069
    91  C    0.065153
    92  C   -0.060420
    93  H    0.028829
    94  N   -0.375699
    95  C    0.137248
    96  C   -0.161469
    97  C   -0.018957
    98  C    0.178075
    99  C    0.123845
   100  C   -0.042894
   101  O   -0.205019
   102  C    0.068026
   103  N   -0.281934
   104  C   -0.040114
   105  C   -0.032401
   106  C   -0.000414
   107  C    0.029919
   108  C    0.073841
   109  C   -0.008476
   110  C   -0.012547
   111  N   -0.343831
   112  C    0.184287
   113  C   -0.180468
   114  C    0.103173
   115  C    0.131995
   116  C    0.117898
   117  C   -0.022216
   118  O   -0.171199
   119  C   -0.002511
   120  C    0.227952
   121  O   -0.227798
   122  O   -0.357580
   123  C    0.177865
   124  H   -0.025150
   125  H   -0.050636
   126  H   -0.029520
   127  H    0.016100
   128  H    0.020245
   129  H    0.026932
   130  H    0.012904
   131  H    0.013818
   132  H    0.013075
   133  H    0.002790
   134  H    0.032691
   135  H    0.023560
   136  H    0.036657
   137  H    0.042133
   138  H    0.002272
   139  H    0.036918
   140  H    0.025015
   141  H    0.043449
   142  H    0.026543
   143  H   -0.001257
   144  H    0.020703
   145  H    0.031763
   146  H    0.017657
   147  H    0.019561
   148  H    0.006273
   149  H    0.003063
   150  H    0.024547
   151  H    0.019085
   152  H    0.024513
   153  H    0.016658
   154  H    0.037798
   155  H    0.052370
   156  H    0.038610
   157  H    0.051825
   158  H    0.019129
 Sum of Mulliken charges =  -0.00000

 Dipole moment (field-independent basis, Debye):
    X=              5.9136    Y=             -1.2262    Z=             -0.6585  Tot=              6.0752
 Quadrupole moment (field-independent basis, Debye-Ang):
   XX=           -553.9071   YY=           -572.0072   ZZ=           -501.6892
   XY=            -22.1072   XZ=             10.9274   YZ=             -9.9872

 Normal termination of Gaussian 16 at Thu Sep  2 09:05:39 2021.
