 Gaussian 16, Revision A.03,
 Gaussian 16:  ES64L-G16RevA.03 25-Dec-2016

 -----------------------------------
 #p cam-b3lyp/Def2SVP td=(nstates=5)
 -----------------------------------

 --------------------------------
 TDDFT excited states in gaussian
 --------------------------------
 Symbolic Z-matrix:
 Charge =  0 Multiplicity = 1

                         Standard orientation:
 ---------------------------------------------------------------------
 Center     Atomic      Atomic             Coordinates (Angstroms)
 Number     Number       Type             X           Y           Z
 ---------------------------------------------------------------------
      1         12           0       -8.737739   -0.464623   -0.197855
      2          6           0       -7.073182    2.497834    0.937012
      3          6           0      -11.015651    1.701308   -1.798925
      4          6           0      -10.763986   -2.980302   -0.717320
      5          6           0       -6.632548   -2.326126    1.716680
      6          7           0       -8.949900    1.827990   -0.426619
      7          6           0       -8.072235    2.742894    0.050824
      8          6           0       -8.439193    4.106515   -0.511063
      9          6           0       -9.683819    3.929924   -1.425877
     10          6           0       -9.893940    2.413662   -1.249864
     11          6           0      -10.950697    4.863853   -0.995951
     12          6           0       -7.255892    4.769471   -1.338175
     13          6           0       -6.930886    6.228784   -1.017672
     14          1           0       -8.066160    7.240008   -0.582446
     15          7           0      -10.673399   -0.608818   -1.093485
     16          6           0      -11.365931    0.345501   -1.678326
     17          6           0      -12.587145   -0.240981   -2.153852
     18          6           0      -12.534118   -1.650686   -2.010539
     19          6           0      -11.332500   -1.791373   -1.230503
     20          6           0      -13.606657    0.535394   -2.985716
     21          6           0      -13.364140   -2.805992   -2.547864
     22          8           0      -13.169305   -3.965296   -2.231523
     23          6           0      -14.420208   -2.447984   -3.557068
     24          7           0       -8.870679   -2.293354    0.715904
     25          6           0       -9.709982   -3.257087    0.153867
     26          6           0       -9.319083   -4.708087    0.545401
     27          6           0       -7.905342   -4.423864    1.179365
     28          6           0       -7.774382   -2.901176    1.210902
     29          6           0      -10.366334   -5.322195    1.485664
     30          6           0       -6.686849   -4.988766    0.306762
     31          6           0       -5.973703   -6.208359    0.786369
     32          7           0       -7.133027   -0.062547    0.958245
     33          6           0       -6.385971   -0.941297    1.712598
     34          6           0       -5.392450   -0.269510    2.546188
     35          6           0       -5.619345    1.125930    2.269705
     36          6           0       -6.745205    1.193950    1.415485
     37          6           0       -4.307509   -0.969423    3.281690
     38          6           0       -5.123898    2.477296    2.481563
     39          8           0       -4.134875    2.817252    3.156164
     40          6           0       -6.094041    3.471732    1.622889
     41          6           0       -6.711397    4.337004    2.615523
     42          8           0       -7.348505    3.928569    3.561683
     43          8           0       -6.495645    5.629200    2.342303
     44          6           0       -6.974912    6.726564    3.239993
     45          1           0      -11.707880    2.319537   -2.374158
     46          1           0      -11.123030   -3.904495   -1.176360
     47          1           0       -5.929812   -2.970989    2.247933
     48          1           0       -8.719660    4.734257    0.334752
     49          1           0       -9.492552    4.267411   -2.444655
     50          1           0      -10.618538    5.726262   -0.417923
     51          1           0      -11.600946    4.202033   -0.423287
     52          1           0      -11.484675    5.190815   -1.888026
     53          1           0       -7.343015    4.682699   -2.420352
     54          1           0       -6.327715    4.242102   -1.118350
     55          1           0       -6.406966    6.713822   -1.841561
     56          1           0       -6.180222    6.137758   -0.232605
     57          1           0      -13.501872    0.398431   -4.062117
     58          1           0      -13.648166    1.585165   -2.693709
     59          1           0      -14.584890    0.157967   -2.688734
     60          1           0      -14.124030   -1.701995   -4.295166
     61          1           0      -15.351654   -2.076622   -3.132039
     62          1           0      -14.566392   -3.294385   -4.228190
     63          1           0       -9.271132   -5.289042   -0.375224
     64          1           0       -7.885367   -4.882799    2.167926
     65          1           0      -11.283505   -4.741255    1.581660
     66          1           0       -9.987478   -5.416138    2.502773
     67          1           0      -10.618809   -6.323470    1.135120
     68          1           0       -5.870853   -4.283392    0.149705
     69          1           0       -6.967532   -5.183409   -0.727682
     70          1           0       -6.103814   -7.024115    0.076381
     71          1           0       -6.468948   -6.423104    1.733503
     72          1           0       -4.907083   -6.010319    0.891783
     73          1           0       -3.392358   -0.378461    3.296189
     74          1           0       -4.231434   -1.962267    2.838705
     75          1           0       -4.654558   -1.085903    4.309290
     76          1           0       -5.527377    4.082023    0.920945
     77          1           0       -6.670093    6.513759    4.264808
     78          1           0       -8.060005    6.832366    3.230816
     79          1           0       -6.679653    7.722464    2.910836
     80         12           0        8.322641   -1.023723   -0.462038
     81          6           0       10.136124    2.060588   -0.321728
     82          6           0        5.390381    0.742852   -0.188231
     83          6           0        6.561207   -3.885094   -0.118922
     84          6           0       11.367894   -2.659354    0.239747
     85          7           0        7.854280    1.143754   -0.290416
     86          6           0        8.719107    2.249034   -0.322119
     87          6           0        7.901463    3.515168   -0.315109
     88          6           0        6.503941    3.013054    0.244254
     89          6           0        6.595172    1.485519   -0.043067
     90          6           0        6.452482    3.340970    1.779078
     91          6           0        7.890635    4.281199   -1.684933
     92          6           0        8.065882    5.700103   -1.472121
     93          1           0        8.427150    6.546682   -2.794056
     94          7           0        6.227230   -1.418810   -0.368318
     95          6           0        5.200129   -0.563019   -0.305207
     96          6           0        3.971524   -1.293669   -0.364294
     97          6           0        4.266573   -2.640286   -0.326333
     98          6           0        5.799191   -2.735184   -0.322576
     99          6           0        2.580883   -0.592835   -0.245760
    100          6           0        3.308870   -3.847324   -0.398919
    101          8           0        3.762954   -4.960359   -0.315716
    102          6           0        1.834714   -3.649868   -0.662686
    103          7           0        8.893286   -2.952803    0.271504
    104          6           0        7.965684   -3.984198    0.174640
    105          6           0        8.636358   -5.313837    0.295806
    106          6           0       10.193006   -4.929222    0.390155
    107          6           0       10.178746   -3.427281    0.229646
    108          6           0        8.100619   -6.141214    1.415047
    109          6           0       11.209662   -5.655892   -0.650709
    110          6           0       12.291582   -6.495433   -0.095764
    111          7           0       10.368251   -0.485686   -0.153134
    112          6           0       11.453555   -1.286406    0.122904
    113          6           0       12.691826   -0.393301    0.166341
    114          6           0       12.239900    0.911429   -0.115926
    115          6           0       10.810866    0.809520   -0.250242
    116          6           0       14.109037   -0.886316    0.488806
    117          6           0       12.685011    2.271553   -0.153457
    118          8           0       13.834891    2.751971   -0.036060
    119          6           0       11.334289    3.097748   -0.118357
    120          6           0       11.510511    4.220676   -1.184323
    121          8           0       10.987059    4.118241   -2.308934
    122          8           0       12.196143    5.260210   -0.648558
    123          6           0       12.529455    6.233329   -1.744936
    124          1           0        4.456735    1.292759   -0.326422
    125          1           0        6.014256   -4.826283   -0.025112
    126          1           0       12.367906   -3.082278    0.355092
    127          1           0        8.328756    4.136962    0.471264
    128          1           0        5.669278    3.509618   -0.249307
    129          1           0        7.077371    2.686441    2.386195
    130          1           0        5.414036    3.319287    2.106882
    131          1           0        6.791841    4.366151    1.929011
    132          1           0        6.870114    4.213074   -2.062510
    133          1           0        8.583841    3.843609   -2.403713
    134          1           0        8.953741    5.901035   -0.872353
    135          1           0        7.144872    6.079372   -1.028720
    136          1           0        2.061349   -0.934706   -1.140876
    137          1           0        2.611368    0.496273   -0.273814
    138          1           0        2.103768   -0.873907    0.693007
    139          1           0        1.303562   -4.599455   -0.596442
    140          1           0        1.943388   -3.269154   -1.678192
    141          1           0        1.457703   -2.920502    0.054185
    142          1           0        8.420498   -5.774680   -0.668288
    143          1           0       10.518708   -5.203926    1.393118
    144          1           0        7.563593   -6.949043    0.919554
    145          1           0        7.336850   -5.626596    1.997880
    146          1           0        8.843541   -6.521899    2.116312
    147          1           0       11.705064   -4.801678   -1.112143
    148          1           0       10.605375   -6.154566   -1.407335
    149          1           0       13.271936   -6.086500   -0.338877
    150          1           0       12.122545   -7.355129   -0.743286
    151          1           0       12.122218   -6.787112    0.941638
    152          1           0       14.233897   -0.736910    1.560691
    153          1           0       14.877351   -0.330322   -0.048386
    154          1           0       14.202044   -1.925659    0.173728
    155          1           0       11.313943    3.489348    0.897748
    156          1           0       13.322590    5.910854   -2.419310
    157          1           0       12.787749    7.235010   -1.402934
    158          1           0       11.597513    6.386369   -2.289515
 ---------------------------------------------------------------------

 SCF Done:  E(RCAM-B3LYP) =  -4069.77444848     A.U. after   18 cycles

 Excitation energies and oscillator strengths:

 Excited State   1:      Singlet-A      1.6797 eV  738.12 nm  f=0.5945  <S**2>=0.000
     310 -> 316        0.16576
     311 -> 313        0.66173
     312 -> 314        0.18504
     310 <- 316        0.10308
 This state for optimization and/or second-order correction.
 Total Energy, E(TD-HF/TD-DFT) =  -4069.71271940
 Copying the excited state density for this state as the 1-particle RhoCI density.

 Excited State   2:      Singlet-A      1.7216 eV  720.16 nm  f=0.1990  <S**2>=0.000
     309 -> 315       -0.18121
     311 -> 313       -0.18481
     312 -> 314        0.65681
     309 <- 315       -0.10321

 Excited State   3:      Singlet-A      2.1985 eV  563.94 nm  f=0.1261  <S**2>=0.000
     310 -> 313        0.65045
     311 -> 316       -0.26257

 Excited State   4:      Singlet-A      2.2690 eV  546.43 nm  f=0.0060  <S**2>=0.000
     309 -> 314        0.54886
     312 -> 315        0.43668

 Excited State   5:      Singlet-A      2.5018 eV  495.57 nm  f=0.0000  <S**2>=0.000
     312 -> 313        0.70688

 The electronic state is 1-A.
 Alpha  occ. eigenvalues --  -46.89342 -46.88844 -19.26083 -19.25479 -19.19721
 Alpha  occ. eigenvalues --  -19.19680 -19.19439 -19.19272 -19.18738 -19.18663
 Alpha  occ. eigenvalues --  -14.42173 -14.42105 -14.41930 -14.41828 -14.39607
 Alpha  occ. eigenvalues --  -14.39308 -14.39277 -14.39065 -10.39641 -10.38724
 Alpha  occ. eigenvalues --  -10.35977 -10.35719 -10.35631 -10.34822 -10.32740
 Alpha  occ. eigenvalues --  -10.31565 -10.31466 -10.31273 -10.31227 -10.31124
 Alpha  occ. eigenvalues --  -10.30973 -10.30832 -10.30729 -10.30485 -10.30395
 Alpha  occ. eigenvalues --  -10.29883 -10.29804 -10.29402 -10.29260 -10.29084
 Alpha  occ. eigenvalues --  -10.28962 -10.28908 -10.28882 -10.28809 -10.28676
 Alpha  occ. eigenvalues --  -10.28571 -10.28525 -10.28418 -10.28411 -10.28247
 Alpha  occ. eigenvalues --  -10.28139 -10.28064 -10.28015 -10.27999 -10.27982
 Alpha  occ. eigenvalues --  -10.27954 -10.27897 -10.27831 -10.27721 -10.27309
 Alpha  occ. eigenvalues --  -10.27282 -10.27259 -10.27230 -10.26947 -10.26915
 Alpha  occ. eigenvalues --  -10.26850 -10.26791 -10.26620 -10.26447 -10.26370
 Alpha  occ. eigenvalues --  -10.26337 -10.26302 -10.26224 -10.26188 -10.26080
 Alpha  occ. eigenvalues --  -10.26022 -10.25874 -10.25818 -10.25806 -10.25795
 Alpha  occ. eigenvalues --  -10.25642 -10.25296 -10.25222 -10.25006 -10.24972
 Alpha  occ. eigenvalues --  -10.24841  -3.17680  -3.17473  -1.92576  -1.92339
 Alpha  occ. eigenvalues --   -1.92122  -1.91981  -1.91934  -1.91784  -1.16779
 Alpha  occ. eigenvalues --   -1.15967  -1.11692  -1.11034  -1.08699  -1.07764
 Alpha  occ. eigenvalues --   -1.07592  -1.07050  -1.04876  -1.03989  -1.03732
 Alpha  occ. eigenvalues --   -1.03366  -1.02936  -1.02617  -1.02111  -1.01344
 Alpha  occ. eigenvalues --   -0.92396  -0.91129  -0.88850  -0.88835  -0.88590
 Alpha  occ. eigenvalues --   -0.88477  -0.88315  -0.88120  -0.87412  -0.87331
 Alpha  occ. eigenvalues --   -0.87232  -0.87160  -0.86653  -0.85381  -0.84448
 Alpha  occ. eigenvalues --   -0.84336  -0.84311  -0.83696  -0.82879  -0.82550
 Alpha  occ. eigenvalues --   -0.82433  -0.82024  -0.81510  -0.80913  -0.80588
 Alpha  occ. eigenvalues --   -0.80376  -0.78486  -0.78105  -0.77887  -0.77460
 Alpha  occ. eigenvalues --   -0.77089  -0.76485  -0.76435  -0.75373  -0.75055
 Alpha  occ. eigenvalues --   -0.74824  -0.72720  -0.72071  -0.71633  -0.71346
 Alpha  occ. eigenvalues --   -0.68967  -0.68710  -0.68014  -0.67865  -0.67796
 Alpha  occ. eigenvalues --   -0.67324  -0.67191  -0.66276  -0.65768  -0.65378
 Alpha  occ. eigenvalues --   -0.65018  -0.64867  -0.64847  -0.64723  -0.64343
 Alpha  occ. eigenvalues --   -0.64206  -0.62642  -0.61955  -0.60711  -0.59837
 Alpha  occ. eigenvalues --   -0.59452  -0.59046  -0.59010  -0.58707  -0.58341
 Alpha  occ. eigenvalues --   -0.58280  -0.58144  -0.57699  -0.57333  -0.57012
 Alpha  occ. eigenvalues --   -0.56300  -0.55978  -0.55888  -0.55472  -0.55384
 Alpha  occ. eigenvalues --   -0.54970  -0.54589  -0.54242  -0.53940  -0.53900
 Alpha  occ. eigenvalues --   -0.53710  -0.53533  -0.53459  -0.53201  -0.53122
 Alpha  occ. eigenvalues --   -0.52882  -0.52819  -0.52675  -0.52579  -0.52490
 Alpha  occ. eigenvalues --   -0.52354  -0.52316  -0.51825  -0.51505  -0.51419
 Alpha  occ. eigenvalues --   -0.51157  -0.50809  -0.50740  -0.50473  -0.50333
 Alpha  occ. eigenvalues --   -0.50284  -0.50169  -0.50138  -0.50071  -0.49506
 Alpha  occ. eigenvalues --   -0.49428  -0.49259  -0.49029  -0.48967  -0.48806
 Alpha  occ. eigenvalues --   -0.48786  -0.48628  -0.48569  -0.48353  -0.48082
 Alpha  occ. eigenvalues --   -0.47934  -0.47908  -0.47724  -0.47634  -0.47338
 Alpha  occ. eigenvalues --   -0.46947  -0.46815  -0.46538  -0.46453  -0.46446
 Alpha  occ. eigenvalues --   -0.46350  -0.46141  -0.46116  -0.46004  -0.45750
 Alpha  occ. eigenvalues --   -0.45538  -0.45319  -0.45304  -0.44735  -0.44554
 Alpha  occ. eigenvalues --   -0.44455  -0.44449  -0.44258  -0.44054  -0.43996
 Alpha  occ. eigenvalues --   -0.43810  -0.43665  -0.43511  -0.43347  -0.43216
 Alpha  occ. eigenvalues --   -0.43088  -0.42973  -0.42930  -0.42832  -0.42744
 Alpha  occ. eigenvalues --   -0.42670  -0.42271  -0.42065  -0.41908  -0.41820
 Alpha  occ. eigenvalues --   -0.41728  -0.41634  -0.41505  -0.41365  -0.41220
 Alpha  occ. eigenvalues --   -0.41039  -0.40764  -0.40698  -0.40503  -0.40116
 Alpha  occ. eigenvalues --   -0.39926  -0.39757  -0.39541  -0.38763  -0.38606
 Alpha  occ. eigenvalues --   -0.38453  -0.38147  -0.37797  -0.37192  -0.37183
 Alpha  occ. eigenvalues --   -0.36998  -0.36867  -0.36768  -0.36439  -0.36365
 Alpha  occ. eigenvalues --   -0.36051  -0.34695  -0.34677  -0.33982  -0.33911
 Alpha  occ. eigenvalues --   -0.33733  -0.33233  -0.33008  -0.31890  -0.31646
 Alpha  occ. eigenvalues --   -0.31463  -0.31347  -0.30992  -0.30542  -0.30307
 Alpha  occ. eigenvalues --   -0.29987  -0.29640  -0.29244  -0.24162  -0.24056
 Alpha  occ. eigenvalues --   -0.21187  -0.20113
 Alpha virt. eigenvalues --   -0.08947  -0.07483  -0.02420  -0.01338  -0.00107
 Alpha virt. eigenvalues --    0.00090   0.01539   0.01845   0.01887   0.02476
 Alpha virt. eigenvalues --    0.04563   0.04950   0.05303   0.05543   0.05810

 Mulliken charges:
               1
     1  Mg   0.829096
     2  C   -0.027540
     3  C   -0.081198
     4  C   -0.048264
     5  C   -0.098342
     6  N   -0.248683
     7  C   -0.030371
     8  C    0.007341
     9  C   -0.059549
    10  C    0.026720
    11  C    0.039518
    12  C    0.031999
    13  C   -0.059167
    14  H    0.004816
    15  N   -0.302988
    16  C    0.146355
    17  C   -0.168699
    18  C   -0.019776
    19  C    0.093607
    20  C    0.099806
    21  C    0.034039
    22  O   -0.186603
    23  C    0.023901
    24  N   -0.332267
    25  C   -0.000806
    26  C   -0.024927
    27  C   -0.002604
    28  C    0.080334
    29  C    0.078337
    30  C   -0.014890
    31  C    0.023967
    32  N   -0.395208
    33  C    0.148248
    34  C   -0.179741
    35  C    0.024506
    36  C    0.119051
    37  C    0.137655
    38  C    0.043847
    39  O   -0.192886
    40  C    0.009123
    41  C    0.183344
    42  O   -0.214983
    43  O   -0.324877
    44  C    0.185952
    45  H   -0.034091
    46  H   -0.001448
    47  H   -0.023924
    48  H    0.020468
    49  H    0.021145
    50  H    0.027875
    51  H    0.024179
    52  H    0.016401
    53  H    0.005730
    54  H    0.004000
    55  H    0.020179
    56  H    0.032638
    57  H    0.044807
    58  H    0.015796
    59  H    0.008994
    60  H    0.015518
    61  H    0.052484
    62  H    0.023976
    63  H    0.017907
    64  H    0.013003
    65  H    0.031535
    66  H    0.005164
    67  H    0.019797
    68  H    0.005042
    69  H   -0.004100
    70  H    0.014823
    71  H    0.005593
    72  H    0.016405
    73  H    0.039879
    74  H    0.016114
    75  H    0.032100
    76  H    0.028971
    77  H    0.052891
    78  H    0.030242
    79  H    0.042710
    80  Mg   0.811043
    81  C    0.053080
    82  C   -0.122315
    83  C   -0.064127
    84  C   -0.065546
    85  N   -0.267919
    86  C   -0.054825
    87  C   -0.044055
    88  C   -0.100050
    89  C    0.112621
    90  C    0.068610
    91  C    0.138567
    92  C   -0.082984
    93  H   -0.007239
    94  N   -0.362768
    95  C    0.147973
    96  C   -0.139279
    97  C   -0.064935
    98  C    0.139446
    99  C    0.103104
   100  C   -0.015244
   101  O   -0.185385
   102  C    0.068931
   103  N   -0.322209
   104  C    0.034248
   105  C   -0.049030
   106  C   -0.011735
   107  C    0.064065
   108  C    0.079028
   109  C    0.007248
   110  C    0.030078
   111  N   -0.332844
   112  C    0.080381
   113  C   -0.182423
   114  C    0.030835
   115  C    0.076630
   116  C    0.117244
   117  C    0.052222
   118  O   -0.200872
   119  C   -0.080649
   120  C    0.223719
   121  O   -0.248697
   122  O   -0.309924
   123  C    0.170807
   124  H   -0.034298
   125  H    0.001671
   126  H   -0.033243
   127  H   -0.004676
   128  H   -0.000549
   129  H    0.028114
   130  H    0.013578
   131  H    0.014487
   132  H   -0.009337
   133  H    0.049289
   134  H    0.031249
   135  H    0.021645
   136  H    0.029269
   137  H    0.015045
   138  H    0.052204
   139  H    0.033678
   140  H    0.044784
   141  H    0.035192
   142  H    0.016198
   143  H    0.007032
   144  H    0.017293
   145  H    0.024437
   146  H    0.016093
   147  H    0.003755
   148  H    0.003738
   149  H    0.022731
   150  H    0.008158
   151  H    0.020805
   152  H    0.040152
   153  H    0.033772
   154  H    0.013333
   155  H    0.060588
   156  H    0.051459
   157  H    0.033547
   158  H    0.043978
 Sum of Mulliken charges =  -0.00000

 Dipole moment (field-independent basis, Debye):
    X=             -6.1054    Y=              0.1063    Z=             -4.1880  Tot=              7.4045
 Quadrupole moment (field-independent basis, Debye-Ang):
   XX=           -562.3066   YY=           -479.0158   ZZ=           -519.4320
   XY=            -57.3033   XZ=             41.2967   YZ=            -10.4252

 Normal termination of Gaussian 16 at Wed Sep 15 07:27:51 2021.
