 Gaussian 16, Revision A.03,
 Gaussian 16:  ES64L-G16RevA.03 25-Dec-2016

 -----------------------------------
 #p cam-b3lyp/Def2SVP td=(nstates=5)
 -----------------------------------

 --------------------------------
 TDDFT excited states in gaussian
 --------------------------------
 Symbolic Z-matrix:
 Charge =  0 Multiplicity = 1

                         Standard orientation:
 ---------------------------------------------------------------------
 Center     Atomic      Atomic             Coordinates (Angstroms)
 Number     Number       Type             X           Y           Z
 ---------------------------------------------------------------------
      1         12           0       -4.176812   -0.485327    1.054609
      2          6           0       -5.486410    2.296036   -0.616803
      3          6           0       -2.138589    1.573051    2.868261
      4          6           0       -2.749968   -3.178402    2.340166
      5          6           0       -6.223078   -2.531227   -1.043846
      6          7           0       -3.836481    1.704629    1.061351
      7          6           0       -4.508393    2.684215    0.364472
      8          6           0       -4.180073    4.055695    0.925012
      9          6           0       -2.912020    3.776877    1.825112
     10          6           0       -3.046826    2.224109    1.984755
     11          6           0       -1.597151    4.179832    1.169773
     12          6           0       -5.465293    4.695823    1.565577
     13          6           0       -5.177131    6.005024    2.351501
     14          1           0       -4.014047    6.846205    1.868184
     15          7           0       -2.717454   -0.751756    2.382685
     16          6           0       -1.900316    0.210452    2.962570
     17          6           0       -0.871271   -0.395833    3.825514
     18          6           0       -1.097745   -1.799564    3.684336
     19          6           0       -2.221628   -1.951251    2.763992
     20          6           0        0.077779    0.399960    4.640833
     21          6           0       -0.308831   -2.897381    4.350202
     22          8           0       -0.606182   -4.115610    4.205965
     23          6           0        0.826704   -2.585696    5.286947
     24          7           0       -4.498864   -2.581327    0.728001
     25          6           0       -3.753617   -3.449565    1.412326
     26          6           0       -4.042520   -4.935617    0.920077
     27          6           0       -5.169528   -4.721463   -0.237048
     28          6           0       -5.301596   -3.198302   -0.201535
     29          6           0       -2.683814   -5.569100    0.409671
     30          6           0       -6.575583   -5.387476    0.083241
     31          6           0       -6.726071   -6.881324   -0.324212
     32          7           0       -5.502619   -0.251892   -0.529146
     33          6           0       -6.361117   -1.143957   -1.224440
     34          6           0       -7.255265   -0.352731   -2.178234
     35          6           0       -6.902805    0.985253   -2.033056
     36          6           0       -5.883390    0.995422   -0.952983
     37          6           0       -8.339029   -0.877503   -3.067041
     38          6           0       -7.176538    2.347021   -2.428454
     39          8           0       -7.962526    2.829457   -3.249960
     40          6           0       -6.390788    3.288532   -1.387158
     41          6           0       -5.621894    4.398305   -2.066888
     42          8           0       -4.503125    4.281220   -2.488697
     43          8           0       -6.286862    5.637659   -1.928973
     44          6           0       -5.487146    6.856465   -2.123111
     45          1           0       -1.525533    2.351676    3.327703
     46          1           0       -2.264358   -4.063564    2.756622
     47          1           0       -6.794241   -3.094768   -1.784687
     48          1           0       -3.910690    4.695130    0.085345
     49          1           0       -2.944616    4.201338    2.829062
     50          1           0       -1.126944    4.878067    1.862049
     51          1           0       -1.812181    4.560117    0.171415
     52          1           0       -0.860696    3.376614    1.172244
     53          1           0       -5.928321    3.824333    2.027357
     54          1           0       -6.117808    4.927729    0.724497
     55          1           0       -5.013104    5.648415    3.368411
     56          1           0       -6.070939    6.627139    2.307049
     57          1           0        1.038968    0.140671    4.197335
     58          1           0        0.010485    0.189387    5.707847
     59          1           0        0.043038    1.489157    4.594103
     60          1           0        0.433828   -2.056066    6.153757
     61          1           0        1.441380   -2.001925    4.600625
     62          1           0        1.437391   -3.429433    5.607107
     63          1           0       -4.459006   -5.357546    1.835572
     64          1           0       -4.856030   -4.844469   -1.274592
     65          1           0       -1.826033   -4.898421    0.456668
     66          1           0       -2.786558   -5.874091   -0.632080
     67          1           0       -2.460777   -6.375476    1.107697
     68          1           0       -7.411008   -4.756509   -0.218804
     69          1           0       -6.658369   -5.385301    1.169607
     70          1           0       -7.021095   -7.421145    0.574900
     71          1           0       -5.791254   -7.211420   -0.777448
     72          1           0       -7.514980   -7.026657   -1.062567
     73          1           0       -9.279799   -0.573097   -2.607842
     74          1           0       -8.261693   -1.961704   -3.156999
     75          1           0       -8.395422   -0.489959   -4.084045
     76          1           0       -7.148571    3.684670   -0.711806
     77          1           0       -5.396435    6.958622   -3.204189
     78          1           0       -4.564090    6.809758   -1.544928
     79          1           0       -6.062662    7.668645   -1.679795
     80         12           0        3.762352   -0.779268   -0.785558
     81          6           0        5.757763    2.013003   -0.053011
     82          6           0        0.991527    0.913870   -0.025739
     83          6           0        2.098494   -3.479668   -1.428240
     84          6           0        6.819972   -2.700142   -0.562235
     85          7           0        3.478326    1.213026   -0.015898
     86          6           0        4.348960    2.227904    0.053606
     87          6           0        3.707134    3.486565    0.577693
     88          6           0        2.258363    2.989764    0.971411
     89          6           0        2.217350    1.646692    0.268508
     90          6           0        1.890116    2.893460    2.487548
     91          6           0        3.606789    4.597888   -0.587778
     92          6           0        4.102279    6.012815   -0.142561
     93          1           0        4.278211    7.010366   -1.411549
     94          7           0        1.860876   -1.137781   -0.972765
     95          6           0        0.811660   -0.293639   -0.651313
     96          6           0       -0.404960   -0.866039   -1.158515
     97          6           0       -0.148976   -2.213622   -1.643404
     98          6           0        1.351018   -2.321251   -1.476718
     99          6           0       -1.739994   -0.092809   -0.958168
    100          6           0       -0.988285   -3.340623   -2.234458
    101          8           0       -0.563225   -4.419900   -2.684733
    102          6           0       -2.428808   -2.984224   -2.340259
    103          7           0        4.422345   -2.778380   -0.797405
    104          6           0        3.445113   -3.693993   -1.100575
    105          6           0        3.991158   -5.120528   -1.029824
    106          6           0        5.520356   -4.863452   -1.073038
    107          6           0        5.625132   -3.375781   -0.731625
    108          6           0        3.382659   -5.870778    0.220775
    109          6           0        6.249348   -5.218072   -2.438096
    110          6           0        7.753475   -5.524836   -2.360006
    111          7           0        5.883554   -0.456937   -0.429401
    112          6           0        6.934550   -1.321862   -0.381305
    113          6           0        8.188277   -0.614399   -0.247277
    114          6           0        7.742515    0.718721   -0.188048
    115          6           0        6.341947    0.765719   -0.237145
    116          6           0        9.653307   -1.103741   -0.180801
    117          6           0        8.216702    2.071320   -0.095347
    118          8           0        9.306146    2.574012   -0.184797
    119          6           0        6.893139    2.960734    0.166901
    120          6           0        7.145404    4.093965   -0.727093
    121          8           0        6.935358    4.189690   -1.962717
    122          8           0        7.680730    5.043242    0.059771
    123          6           0        8.085492    6.307333   -0.556910
    124          1           0        0.075397    1.486868    0.132773
    125          1           0        1.550621   -4.378647   -1.718969
    126          1           0        7.719478   -3.318146   -0.599866
    127          1           0        4.232886    3.966824    1.403409
    128          1           0        1.427084    3.540847    0.531252
    129          1           0        1.803213    1.836726    2.740199
    130          1           0        0.918126    3.379033    2.572688
    131          1           0        2.577168    3.315304    3.220270
    132          1           0        2.629483    4.706050   -1.059659
    133          1           0        4.168881    4.199945   -1.432716
    134          1           0        5.062406    5.938711    0.367673
    135          1           0        3.414334    6.565660    0.496670
    136          1           0       -1.887344    0.549500   -1.825307
    137          1           0       -1.685071    0.685859   -0.196413
    138          1           0       -2.596054   -0.664970   -0.601308
    139          1           0       -2.639293   -2.128536   -2.980841
    140          1           0       -2.699752   -2.831686   -1.294835
    141          1           0       -3.059066   -3.804509   -2.684943
    142          1           0        3.627523   -5.609920   -1.933450
    143          1           0        6.009719   -5.489194   -0.326722
    144          1           0        4.139553   -5.984817    0.996692
    145          1           0        2.987654   -6.877379    0.086026
    146          1           0        2.603831   -5.347119    0.775523
    147          1           0        6.201850   -4.275399   -2.983944
    148          1           0        5.820565   -6.013576   -3.047918
    149          1           0        8.353410   -4.772455   -2.873609
    150          1           0        8.121998   -6.478557   -2.738327
    151          1           0        8.017820   -5.393439   -1.311678
    152          1           0        9.604667   -2.128488    0.187481
    153          1           0       10.247110   -0.476607    0.485498
    154          1           0       10.023766   -1.096563   -1.205837
    155          1           0        6.898950    3.330501    1.192402
    156          1           0        7.408111    7.089856   -0.215432
    157          1           0        8.199118    6.221951   -1.637080
    158          1           0        9.050825    6.593956   -0.139866
 ---------------------------------------------------------------------

 SCF Done:  E(RCAM-B3LYP) =  -4069.81512468     A.U. after   17 cycles

 Excitation energies and oscillator strengths:

 Excited State   1:      Singlet-A      1.7003 eV  729.21 nm  f=0.5190  <S**2>=0.000
     309 -> 315        0.18760
     311 -> 313       -0.12259
     311 -> 314       -0.13400
     312 -> 313       -0.45438
     312 -> 314        0.47413
     309 <- 315        0.10605
 This state for optimization and/or second-order correction.
 Total Energy, E(TD-HF/TD-DFT) =  -4069.75264155
 Copying the excited state density for this state as the 1-particle RhoCI density.

 Excited State   2:      Singlet-A      1.7191 eV  721.23 nm  f=0.2612  <S**2>=0.000
     310 -> 316        0.18745
     311 -> 313        0.49775
     311 -> 314        0.42879
     312 -> 313       -0.10688
     312 -> 314        0.14556
     310 <- 316        0.10584

 Excited State   3:      Singlet-A      2.2251 eV  557.21 nm  f=0.0141  <S**2>=0.000
     310 -> 313        0.25344
     310 -> 314        0.22656
     311 -> 316       -0.18440
     312 -> 313        0.42128
     312 -> 314        0.39781

 Excited State   4:      Singlet-A      2.2519 eV  550.57 nm  f=0.0144  <S**2>=0.000
     309 -> 313       -0.12671
     309 -> 314        0.11449
     310 -> 313        0.35111
     310 -> 314        0.31917
     311 -> 316       -0.25129
     312 -> 313       -0.28707
     312 -> 314       -0.26831

 Excited State   5:      Singlet-A      2.2756 eV  544.83 nm  f=0.0478  <S**2>=0.000
     309 -> 313       -0.36967
     309 -> 314        0.40907
     310 -> 313       -0.15708
     310 -> 314       -0.10252
     311 -> 316        0.10955
     312 -> 315       -0.36245

 The electronic state is 1-A.
 Alpha  occ. eigenvalues --  -46.88734 -46.87613 -19.24940 -19.24458 -19.20846
 Alpha  occ. eigenvalues --  -19.19695 -19.19665 -19.19084 -19.18770 -19.18487
 Alpha  occ. eigenvalues --  -14.42811 -14.42677 -14.42137 -14.41743 -14.40522
 Alpha  occ. eigenvalues --  -14.40357 -14.39475 -14.38450 -10.39955 -10.38632
 Alpha  occ. eigenvalues --  -10.36049 -10.35934 -10.35619 -10.34711 -10.32175
 Alpha  occ. eigenvalues --  -10.31798 -10.31548 -10.31286 -10.31251 -10.31184
 Alpha  occ. eigenvalues --  -10.31080 -10.31072 -10.30905 -10.30843 -10.30797
 Alpha  occ. eigenvalues --  -10.30713 -10.30617 -10.30279 -10.30149 -10.30127
 Alpha  occ. eigenvalues --  -10.30066 -10.30057 -10.29727 -10.29647 -10.29586
 Alpha  occ. eigenvalues --  -10.29250 -10.29079 -10.28900 -10.28756 -10.28649
 Alpha  occ. eigenvalues --  -10.28601 -10.28539 -10.28538 -10.28536 -10.28428
 Alpha  occ. eigenvalues --  -10.28048 -10.27987 -10.27887 -10.27874 -10.27800
 Alpha  occ. eigenvalues --  -10.27775 -10.27725 -10.27702 -10.27652 -10.27621
 Alpha  occ. eigenvalues --  -10.27570 -10.27373 -10.27165 -10.27134 -10.26956
 Alpha  occ. eigenvalues --  -10.26897 -10.26743 -10.26715 -10.26680 -10.26643
 Alpha  occ. eigenvalues --  -10.26540 -10.26402 -10.26271 -10.25820 -10.25792
 Alpha  occ. eigenvalues --  -10.25715 -10.25671 -10.25593 -10.25567 -10.25340
 Alpha  occ. eigenvalues --  -10.24474  -3.17434  -3.16457  -1.92363  -1.91867
 Alpha  occ. eigenvalues --   -1.91754  -1.91343  -1.90924  -1.90770  -1.16005
 Alpha  occ. eigenvalues --   -1.15993  -1.10823  -1.09619  -1.09364  -1.08280
 Alpha  occ. eigenvalues --   -1.08174  -1.05611  -1.05264  -1.05009  -1.04347
 Alpha  occ. eigenvalues --   -1.04053  -1.03609  -1.03350  -1.02423  -1.01962
 Alpha  occ. eigenvalues --   -0.92770  -0.92187  -0.89469  -0.89267  -0.89134
 Alpha  occ. eigenvalues --   -0.88492  -0.88270  -0.88139  -0.88013  -0.87487
 Alpha  occ. eigenvalues --   -0.87201  -0.86972  -0.86825  -0.86283  -0.84898
 Alpha  occ. eigenvalues --   -0.84632  -0.83854  -0.83396  -0.82646  -0.82441
 Alpha  occ. eigenvalues --   -0.82370  -0.82228  -0.81323  -0.81241  -0.80516
 Alpha  occ. eigenvalues --   -0.80338  -0.79447  -0.78299  -0.77891  -0.77523
 Alpha  occ. eigenvalues --   -0.77334  -0.77056  -0.76368  -0.76089  -0.75447
 Alpha  occ. eigenvalues --   -0.74991  -0.72839  -0.72611  -0.72217  -0.72065
 Alpha  occ. eigenvalues --   -0.70039  -0.69324  -0.68922  -0.68800  -0.68776
 Alpha  occ. eigenvalues --   -0.68008  -0.67553  -0.67241  -0.66204  -0.65886
 Alpha  occ. eigenvalues --   -0.65734  -0.65532  -0.64920  -0.64574  -0.64476
 Alpha  occ. eigenvalues --   -0.64331  -0.61825  -0.61778  -0.61120  -0.60400
 Alpha  occ. eigenvalues --   -0.60081  -0.59949  -0.59293  -0.59165  -0.58705
 Alpha  occ. eigenvalues --   -0.58318  -0.58108  -0.58013  -0.57233  -0.57224
 Alpha  occ. eigenvalues --   -0.56678  -0.56530  -0.56371  -0.55979  -0.55536
 Alpha  occ. eigenvalues --   -0.55066  -0.54935  -0.54478  -0.54455  -0.54144
 Alpha  occ. eigenvalues --   -0.53971  -0.53819  -0.53634  -0.53436  -0.52991
 Alpha  occ. eigenvalues --   -0.52883  -0.52792  -0.52695  -0.52437  -0.52229
 Alpha  occ. eigenvalues --   -0.52150  -0.51893  -0.51699  -0.51585  -0.51451
 Alpha  occ. eigenvalues --   -0.51295  -0.51087  -0.50968  -0.50931  -0.50619
 Alpha  occ. eigenvalues --   -0.50405  -0.50295  -0.50068  -0.50029  -0.49952
 Alpha  occ. eigenvalues --   -0.49785  -0.49564  -0.49385  -0.49243  -0.49086
 Alpha  occ. eigenvalues --   -0.49004  -0.48941  -0.48731  -0.48624  -0.48469
 Alpha  occ. eigenvalues --   -0.48254  -0.48207  -0.47795  -0.47485  -0.47355
 Alpha  occ. eigenvalues --   -0.47210  -0.46911  -0.46767  -0.46745  -0.46559
 Alpha  occ. eigenvalues --   -0.46409  -0.46189  -0.46110  -0.45851  -0.45752
 Alpha  occ. eigenvalues --   -0.45677  -0.45566  -0.45497  -0.45234  -0.45141
 Alpha  occ. eigenvalues --   -0.45096  -0.44973  -0.44703  -0.44453  -0.44079
 Alpha  occ. eigenvalues --   -0.44004  -0.43870  -0.43773  -0.43595  -0.43565
 Alpha  occ. eigenvalues --   -0.43468  -0.43331  -0.43175  -0.43117  -0.42993
 Alpha  occ. eigenvalues --   -0.42881  -0.42793  -0.42602  -0.42564  -0.42306
 Alpha  occ. eigenvalues --   -0.42124  -0.41947  -0.41800  -0.41671  -0.41429
 Alpha  occ. eigenvalues --   -0.41346  -0.41267  -0.40911  -0.40851  -0.40596
 Alpha  occ. eigenvalues --   -0.40568  -0.40365  -0.39860  -0.39630  -0.39434
 Alpha  occ. eigenvalues --   -0.39072  -0.38764  -0.38527  -0.38472  -0.37854
 Alpha  occ. eigenvalues --   -0.37436  -0.37209  -0.37038  -0.36796  -0.36493
 Alpha  occ. eigenvalues --   -0.35568  -0.35337  -0.35077  -0.34692  -0.34019
 Alpha  occ. eigenvalues --   -0.33976  -0.33760  -0.33017  -0.31851  -0.31655
 Alpha  occ. eigenvalues --   -0.31414  -0.31275  -0.30997  -0.30884  -0.30625
 Alpha  occ. eigenvalues --   -0.30588  -0.30346  -0.29647  -0.24534  -0.24209
 Alpha  occ. eigenvalues --   -0.21153  -0.21015
 Alpha virt. eigenvalues --   -0.08497  -0.08416  -0.02777  -0.02337  -0.00719
 Alpha virt. eigenvalues --   -0.00318   0.01662   0.02356   0.02806   0.03116
 Alpha virt. eigenvalues --    0.03959   0.04491   0.04661   0.04678   0.05640

 Mulliken charges:
               1
     1  Mg   0.724500
     2  C   -0.015750
     3  C   -0.087267
     4  C   -0.069462
     5  C   -0.072734
     6  N   -0.256198
     7  C   -0.051406
     8  C   -0.007801
     9  C   -0.085248
    10  C   -0.019413
    11  C    0.088727
    12  C    0.016712
    13  C   -0.045048
    14  H    0.032104
    15  N   -0.404940
    16  C    0.198131
    17  C   -0.140206
    18  C   -0.029320
    19  C    0.153539
    20  C    0.109625
    21  C   -0.006936
    22  O   -0.240571
    23  C    0.079798
    24  N   -0.277784
    25  C    0.008750
    26  C   -0.029692
    27  C    0.005657
    28  C    0.002071
    29  C    0.050116
    30  C    0.004584
    31  C    0.023249
    32  N   -0.363785
    33  C    0.110728
    34  C   -0.177455
    35  C    0.034685
    36  C    0.109366
    37  C    0.111456
    38  C    0.071825
    39  O   -0.177003
    40  C   -0.073198
    41  C    0.226007
    42  O   -0.192687
    43  O   -0.374968
    44  C    0.183430
    45  H   -0.037055
    46  H   -0.004633
    47  H   -0.023423
    48  H    0.007901
    49  H    0.005782
    50  H    0.011783
    51  H    0.037783
    52  H    0.011928
    53  H    0.018229
    54  H    0.016020
    55  H    0.037309
    56  H    0.037675
    57  H    0.049637
    58  H    0.034459
    59  H    0.015209
    60  H    0.044842
    61  H    0.021699
    62  H    0.028757
    63  H    0.025196
    64  H    0.015690
    65  H    0.038442
    66  H    0.027555
    67  H    0.026907
    68  H    0.010652
    69  H   -0.004754
    70  H    0.020287
    71  H    0.021444
    72  H    0.015209
    73  H    0.039056
    74  H    0.006884
    75  H    0.038521
    76  H    0.064321
    77  H    0.051275
    78  H    0.032567
    79  H    0.035197
    80  Mg   0.850644
    81  C    0.059322
    82  C   -0.053341
    83  C   -0.055938
    84  C   -0.106790
    85  N   -0.271337
    86  C    0.000545
    87  C   -0.065661
    88  C   -0.031935
    89  C    0.007179
    90  C    0.078538
    91  C    0.056007
    92  C   -0.089855
    93  H    0.005382
    94  N   -0.474233
    95  C    0.167847
    96  C   -0.089494
    97  C   -0.087842
    98  C    0.153017
    99  C    0.063128
   100  C    0.043163
   101  O   -0.211139
   102  C    0.028960
   103  N   -0.292374
   104  C    0.057044
   105  C   -0.031980
   106  C   -0.009651
   107  C    0.036759
   108  C    0.060891
   109  C    0.033951
   110  C   -0.009035
   111  N   -0.270714
   112  C    0.123857
   113  C   -0.200085
   114  C    0.032815
   115  C    0.058519
   116  C    0.139620
   117  C    0.025773
   118  O   -0.148576
   119  C   -0.069722
   120  C    0.203290
   121  O   -0.255985
   122  O   -0.320024
   123  C    0.175276
   124  H   -0.059096
   125  H    0.001356
   126  H   -0.042795
   127  H    0.009996
   128  H    0.007174
   129  H    0.010061
   130  H    0.002072
   131  H    0.018311
   132  H    0.010333
   133  H    0.036548
   134  H    0.036056
   135  H    0.031936
   136  H    0.047659
   137  H    0.058892
   138  H    0.068245
   139  H    0.060560
   140  H    0.044604
   141  H    0.017172
   142  H    0.015869
   143  H    0.001469
   144  H   -0.000669
   145  H    0.022264
   146  H    0.024755
   147  H    0.012311
   148  H    0.018125
   149  H    0.013031
   150  H    0.020706
   151  H    0.010036
   152  H    0.013357
   153  H    0.042838
   154  H    0.041581
   155  H    0.042366
   156  H    0.031619
   157  H    0.059808
   158  H    0.031095
 Sum of Mulliken charges =  -0.00000

 Dipole moment (field-independent basis, Debye):
    X=             -2.4660    Y=              0.8808    Z=              6.7714  Tot=              7.2601
 Quadrupole moment (field-independent basis, Debye-Ang):
   XX=           -547.3836   YY=           -484.6208   ZZ=           -522.8634
   XY=            -11.6571   XZ=             -5.6292   YZ=             32.4022

 Normal termination of Gaussian 16 at Wed Sep  1 19:23:27 2021.
