 Gaussian 16, Revision A.03,
 Gaussian 16:  ES64L-G16RevA.03 25-Dec-2016

 ----------------------------------------------------------
 #p cam-b3lyp/Def2SVP td=(nstates=5) density=(transition=1)
 ----------------------------------------------------------

 --------------------------------
 TDDFT excited states in gaussian
 --------------------------------
 Symbolic Z-matrix:
 Charge =  0 Multiplicity = 1

                         Standard orientation:
 ---------------------------------------------------------------------
 Center     Atomic      Atomic             Coordinates (Angstroms)
 Number     Number       Type             X           Y           Z
 ---------------------------------------------------------------------
      1         12           0      -23.793046   -0.695017    0.071715
      2          6           0      -23.201726    2.454861   -1.259821
      3          6           0      -23.992475    0.632859    3.165434
      4          6           0      -24.177451   -3.802202    1.255993
      5          6           0      -23.408704   -1.997726   -3.155855
      6          7           0      -23.633063    1.364337    0.792096
      7          6           0      -23.490410    2.474748    0.108803
      8          6           0      -23.544797    3.688662    1.146553
      9          6           0      -23.022290    2.952995    2.362381
     10          6           0      -23.620687    1.528373    2.135008
     11          6           0      -21.482265    3.044556    2.422801
     12          6           0      -24.980819    4.369130    1.138730
     13          6           0      -25.016009    5.790714    1.708145
     14          1           0      -23.788000    6.321860    2.427216
     15          7           0      -24.221965   -1.449867    1.899221
     16          6           0      -24.341307   -0.699890    3.066881
     17          6           0      -24.878446   -1.603276    4.128263
     18          6           0      -24.878761   -2.960061    3.590066
     19          6           0      -24.334208   -2.741517    2.223636
     20          6           0      -25.256102   -1.112962    5.506014
     21          6           0      -25.368230   -4.345563    4.218614
     22          8           0      -25.373320   -5.415356    3.600226
     23          6           0      -25.863891   -4.299544    5.648932
     24          7           0      -23.683978   -2.580620   -0.773541
     25          6           0      -23.859827   -3.710581   -0.093830
     26          6           0      -23.629588   -4.983112   -0.966163
     27          6           0      -23.638190   -4.353089   -2.366355
     28          6           0      -23.633464   -2.877133   -2.119746
     29          6           0      -22.338696   -5.778955   -0.625693
     30          6           0      -24.696383   -4.886308   -3.431595
     31          6           0      -25.891035   -4.032005   -3.702172
     32          7           0      -23.187277   -0.003620   -1.805549
     33          6           0      -23.140069   -0.610523   -3.015240
     34          6           0      -22.754465    0.263870   -4.064851
     35          6           0      -22.766879    1.536882   -3.412632
     36          6           0      -23.038494    1.267683   -2.090634
     37          6           0      -22.404696    0.068827   -5.517379
     38          6           0      -22.606790    2.954311   -3.545567
     39          8           0      -22.339311    3.654572   -4.498129
     40          6           0      -23.028008    3.647464   -2.210659
     41          6           0      -21.986727    4.593645   -1.798837
     42          8           0      -20.845907    4.240826   -1.541103
     43          8           0      -22.373204    5.954206   -1.905081
     44          6           0      -21.326377    6.947092   -1.616733
     45          1           0      -23.983735    1.091253    4.155396
     46          1           0      -24.263726   -4.803955    1.680224
     47          1           0      -23.246830   -2.445805   -4.138091
     48          1           0      -22.882050    4.486615    0.814402
     49          1           0      -23.450266    3.285827    3.307650
     50          1           0      -21.325407    3.660311    3.309073
     51          1           0      -21.048989    3.522787    1.543368
     52          1           0      -21.133166    2.038291    2.653395
     53          1           0      -25.680781    3.773004    1.724893
     54          1           0      -25.242419    4.455463    0.083857
     55          1           0      -25.870185    5.832683    2.383257
     56          1           0      -25.250612    6.455287    0.876998
     57          1           0      -25.653122   -0.097741    5.472753
     58          1           0      -24.481250   -1.136423    6.271587
     59          1           0      -26.084890   -1.720022    5.869975
     60          1           0      -25.054730   -3.799131    6.180334
     61          1           0      -25.985656   -5.274888    6.119186
     62          1           0      -26.827251   -3.790971    5.689719
     63          1           0      -24.449562   -5.692838   -0.857553
     64          1           0      -22.626281   -4.486632   -2.747107
     65          1           0      -21.907381   -6.042503   -1.591716
     66          1           0      -22.454531   -6.667068   -0.006387
     67          1           0      -21.695898   -5.129208   -0.031711
     68          1           0      -24.968672   -5.907041   -3.162903
     69          1           0      -24.221881   -4.919569   -4.412066
     70          1           0      -25.797328   -3.656578   -4.721453
     71          1           0      -25.935590   -3.082895   -3.166609
     72          1           0      -26.844545   -4.558041   -3.653948
     73          1           0      -22.375511   -0.983970   -5.800418
     74          1           0      -21.491048    0.621517   -5.738117
     75          1           0      -23.139921    0.412811   -6.245172
     76          1           0      -23.965843    4.192267   -2.315800
     77          1           0      -21.677075    7.975323   -1.531609
     78          1           0      -20.649346    6.842178   -2.464945
     79          1           0      -20.817335    6.577468   -0.727367
     80         12           0       23.988839   -0.779083    0.164567
     81          6           0       22.060304    2.022995    1.186000
     82          6           0       26.533826    1.557896   -0.592788
     83          6           0       25.736413   -3.204704   -1.141833
     84          6           0       21.225556   -2.816435    0.721390
     85          7           0       24.267678    1.577428    0.277064
     86          6           0       23.341211    2.425924    0.831867
     87          6           0       23.844425    3.852765    0.970532
     88          6           0       25.255808    3.683624    0.260859
     89          6           0       25.395568    2.177406   -0.008305
     90          6           0       25.384390    4.626003   -0.932289
     91          6           0       23.947200    4.254673    2.458293
     92          6           0       23.608983    5.740047    2.863007
     93          1           0       23.657205    6.824446    1.760933
     94          7           0       25.914578   -0.845750   -0.678561
     95          6           0       26.750132    0.233437   -0.967889
     96          6           0       27.982152   -0.293910   -1.575627
     97          6           0       27.793177   -1.712630   -1.647897
     98          6           0       26.445409   -1.948726   -1.095811
     99          6           0       29.049905    0.541740   -2.044755
    100          6           0       28.747086   -2.771334   -2.191917
    101          8           0       28.401293   -3.960338   -2.278221
    102          6           0       30.162610   -2.444330   -2.465187
    103          7           0       23.505274   -2.719468   -0.260166
    104          6           0       24.443577   -3.556184   -0.711152
    105          6           0       23.861672   -4.991530   -0.923392
    106          6           0       22.507734   -4.892942   -0.151338
    107          6           0       22.359881   -3.427780    0.115393
    108          6           0       23.769652   -5.436663   -2.427336
    109          6           0       22.735479   -5.698290    1.184611
    110          6           0       23.200769   -4.957651    2.485506
    111          7           0       22.078138   -0.530847    0.906934
    112          6           0       21.050830   -1.479744    1.058393
    113          6           0       19.835424   -0.775774    1.537549
    114          6           0       20.191286    0.567868    1.534929
    115          6           0       21.519687    0.716419    1.196578
    116          6           0       18.559648   -1.468517    1.591649
    117          6           0       19.604434    1.896849    1.688098
    118          8           0       18.436177    2.181543    1.926476
    119          6           0       20.801539    2.929998    1.440382
    120          6           0       20.488026    3.857922    0.326651
    121          8           0       20.809892    3.713804   -0.849254
    122          8           0       19.769982    4.957060    0.834579
    123          6           0       19.274718    6.002295   -0.032322
    124          1           0       27.444189    2.160852   -0.623272
    125          1           0       26.274020   -4.064915   -1.547081
    126          1           0       20.447438   -3.561615    0.897766
    127          1           0       23.214254    4.573222    0.448423
    128          1           0       25.989825    4.076968    0.963605
    129          1           0       26.250930    5.285754   -0.905696
    130          1           0       24.525785    5.266666   -1.133550
    131          1           0       25.571097    3.995102   -1.802331
    132          1           0       24.941079    4.038809    2.850165
    133          1           0       23.249792    3.542843    2.901269
    134          1           0       24.339408    6.111822    3.580814
    135          1           0       22.712749    5.666762    3.479020
    136          1           0       29.960046    0.160339   -1.581401
    137          1           0       28.783571    1.595438   -1.967573
    138          1           0       28.979600    0.355096   -3.116818
    139          1           0       30.303764   -1.828022   -3.353587
    140          1           0       30.715330   -3.364396   -2.654169
    141          1           0       30.518055   -1.815230   -1.649613
    142          1           0       24.653466   -5.550572   -0.424703
    143          1           0       21.692807   -5.368563   -0.697610
    144          1           0       24.640926   -6.035525   -2.692896
    145          1           0       23.623968   -4.529296   -3.012586
    146          1           0       22.867944   -6.044248   -2.502073
    147          1           0       23.291658   -6.609519    0.963630
    148          1           0       21.718075   -5.919398    1.508627
    149          1           0       23.966908   -5.619661    2.888042
    150          1           0       22.409411   -4.865223    3.230472
    151          1           0       23.665316   -3.982506    2.343319
    152          1           0       18.410475   -1.992460    0.648407
    153          1           0       17.793898   -0.696702    1.675657
    154          1           0       18.460508   -2.034529    2.517482
    155          1           0       20.842025    3.491054    2.374534
    156          1           0       18.233714    5.865512   -0.324058
    157          1           0       19.998002    6.250680   -0.809171
    158          1           0       19.392061    6.871218    0.615845
 ---------------------------------------------------------------------

 SCF Done:  E(RCAM-B3LYP) =  -4069.81857638     A.U. after   17 cycles

 Excitation energies and oscillator strengths:

 Excited State   1:      Singlet-A      1.7355 eV  714.39 nm  f=0.3927  <S**2>=0.000
     309 -> 316        0.17783
     311 -> 313        0.68648
     309 <- 316        0.10692
 This state for optimization and/or second-order correction.
 Total Energy, E(TD-HF/TD-DFT) =  -4069.75479661
 Copying the excited state density for this state as the 1-particle RhoCI density.

 Excited State   2:      Singlet-A      1.7491 eV  708.84 nm  f=0.3738  <S**2>=0.000
     310 -> 315        0.18984
     312 -> 314        0.68132
     310 <- 315        0.10804

 Excited State   3:      Singlet-A      2.2152 eV  559.70 nm  f=0.1498  <S**2>=0.000
     309 -> 313        0.65494
     311 -> 316       -0.25752

 Excited State   4:      Singlet-A      2.2728 eV  545.50 nm  f=0.0725  <S**2>=0.000
     310 -> 314        0.62313
     312 -> 315       -0.32197

 Excited State   5:      Singlet-A      3.0515 eV  406.31 nm  f=0.0000  <S**2>=0.000
     312 -> 313        0.70710

 The electronic state is 1-A.
 Alpha  occ. eigenvalues --  -46.88488 -46.87747 -19.23962 -19.23896 -19.20462
 Alpha  occ. eigenvalues --  -19.19864 -19.19469 -19.19301 -19.18719 -19.17885
 Alpha  occ. eigenvalues --  -14.42107 -14.41996 -14.41443 -14.41267 -14.40094
 Alpha  occ. eigenvalues --  -14.39667 -14.38900 -14.38616 -10.39464 -10.38856
 Alpha  occ. eigenvalues --  -10.37220 -10.35357 -10.35269 -10.34089 -10.31313
 Alpha  occ. eigenvalues --  -10.31165 -10.31121 -10.31046 -10.30991 -10.30981
 Alpha  occ. eigenvalues --  -10.30752 -10.30575 -10.30439 -10.30434 -10.30371
 Alpha  occ. eigenvalues --  -10.30298 -10.30291 -10.30198 -10.29834 -10.29218
 Alpha  occ. eigenvalues --  -10.29170 -10.29011 -10.28998 -10.28853 -10.28804
 Alpha  occ. eigenvalues --  -10.28655 -10.28218 -10.28103 -10.28079 -10.28023
 Alpha  occ. eigenvalues --  -10.27941 -10.27933 -10.27611 -10.27575 -10.27565
 Alpha  occ. eigenvalues --  -10.27537 -10.27532 -10.27429 -10.27376 -10.27276
 Alpha  occ. eigenvalues --  -10.27264 -10.27225 -10.27222 -10.27147 -10.27124
 Alpha  occ. eigenvalues --  -10.27046 -10.27024 -10.26793 -10.26746 -10.26490
 Alpha  occ. eigenvalues --  -10.26413 -10.26353 -10.26315 -10.25877 -10.25746
 Alpha  occ. eigenvalues --  -10.25734 -10.25725 -10.25652 -10.25563 -10.25321
 Alpha  occ. eigenvalues --  -10.25293 -10.25263 -10.25076 -10.24678 -10.24506
 Alpha  occ. eigenvalues --  -10.24166  -3.17031  -3.16513  -1.91938  -1.91499
 Alpha  occ. eigenvalues --   -1.91424  -1.91319  -1.90932  -1.90860  -1.14635
 Alpha  occ. eigenvalues --   -1.14480  -1.10469  -1.09640  -1.09558  -1.09187
 Alpha  occ. eigenvalues --   -1.07227  -1.06726  -1.05568  -1.04741  -1.04711
 Alpha  occ. eigenvalues --   -1.04131  -1.04023  -1.03145  -1.03075  -1.01356
 Alpha  occ. eigenvalues --   -0.92114  -0.91961  -0.89864  -0.89192  -0.88640
 Alpha  occ. eigenvalues --   -0.88564  -0.88368  -0.88269  -0.87315  -0.87279
 Alpha  occ. eigenvalues --   -0.87103  -0.86717  -0.86245  -0.86165  -0.84317
 Alpha  occ. eigenvalues --   -0.84113  -0.83649  -0.83280  -0.82746  -0.82625
 Alpha  occ. eigenvalues --   -0.82550  -0.81974  -0.80937  -0.80812  -0.80420
 Alpha  occ. eigenvalues --   -0.80053  -0.78926  -0.78571  -0.77226  -0.77086
 Alpha  occ. eigenvalues --   -0.76835  -0.76646  -0.75842  -0.75766  -0.75054
 Alpha  occ. eigenvalues --   -0.74759  -0.72801  -0.72106  -0.71282  -0.71160
 Alpha  occ. eigenvalues --   -0.69236  -0.69216  -0.68890  -0.68736  -0.67915
 Alpha  occ. eigenvalues --   -0.67819  -0.66686  -0.66600  -0.65037  -0.64982
 Alpha  occ. eigenvalues --   -0.64659  -0.64648  -0.64439  -0.64174  -0.64163
 Alpha  occ. eigenvalues --   -0.63987  -0.61512  -0.61233  -0.60620  -0.60308
 Alpha  occ. eigenvalues --   -0.59571  -0.59342  -0.59112  -0.59022  -0.58040
 Alpha  occ. eigenvalues --   -0.58000  -0.57963  -0.57852  -0.57603  -0.57144
 Alpha  occ. eigenvalues --   -0.56256  -0.55785  -0.55655  -0.55469  -0.55423
 Alpha  occ. eigenvalues --   -0.55307  -0.54771  -0.54255  -0.53974  -0.53935
 Alpha  occ. eigenvalues --   -0.53828  -0.53671  -0.53343  -0.53302  -0.53130
 Alpha  occ. eigenvalues --   -0.52979  -0.52744  -0.52644  -0.52320  -0.52305
 Alpha  occ. eigenvalues --   -0.52119  -0.51787  -0.51781  -0.51477  -0.51283
 Alpha  occ. eigenvalues --   -0.51193  -0.50741  -0.50709  -0.50678  -0.50584
 Alpha  occ. eigenvalues --   -0.50329  -0.49882  -0.49873  -0.49761  -0.49536
 Alpha  occ. eigenvalues --   -0.49488  -0.49217  -0.49002  -0.48991  -0.48884
 Alpha  occ. eigenvalues --   -0.48791  -0.48528  -0.48502  -0.48481  -0.48363
 Alpha  occ. eigenvalues --   -0.48057  -0.47739  -0.47571  -0.47361  -0.47338
 Alpha  occ. eigenvalues --   -0.46927  -0.46860  -0.46655  -0.46438  -0.46273
 Alpha  occ. eigenvalues --   -0.46081  -0.46005  -0.45970  -0.45770  -0.45555
 Alpha  occ. eigenvalues --   -0.45369  -0.44994  -0.44927  -0.44627  -0.44590
 Alpha  occ. eigenvalues --   -0.44309  -0.44230  -0.44210  -0.44025  -0.43993
 Alpha  occ. eigenvalues --   -0.43929  -0.43907  -0.43640  -0.43428  -0.43396
 Alpha  occ. eigenvalues --   -0.43304  -0.43292  -0.43206  -0.42961  -0.42934
 Alpha  occ. eigenvalues --   -0.42530  -0.42461  -0.42050  -0.41928  -0.41776
 Alpha  occ. eigenvalues --   -0.41670  -0.41391  -0.41279  -0.41009  -0.40998
 Alpha  occ. eigenvalues --   -0.40954  -0.40639  -0.40508  -0.40321  -0.40201
 Alpha  occ. eigenvalues --   -0.39957  -0.39830  -0.39348  -0.39168  -0.38554
 Alpha  occ. eigenvalues --   -0.38176  -0.38039  -0.37725  -0.37549  -0.37400
 Alpha  occ. eigenvalues --   -0.37088  -0.36612  -0.36605  -0.36132  -0.36096
 Alpha  occ. eigenvalues --   -0.35659  -0.35606  -0.34422  -0.34151  -0.34012
 Alpha  occ. eigenvalues --   -0.33918  -0.33271  -0.33234  -0.32178  -0.31173
 Alpha  occ. eigenvalues --   -0.31136  -0.30937  -0.30799  -0.30488  -0.30163
 Alpha  occ. eigenvalues --   -0.30131  -0.29542  -0.29319  -0.23878  -0.23856
 Alpha  occ. eigenvalues --   -0.21374  -0.20759
 Alpha virt. eigenvalues --   -0.08818  -0.08120  -0.01682  -0.01238   0.00001
 Alpha virt. eigenvalues --    0.00261   0.02208   0.02492   0.03354   0.03521
 Alpha virt. eigenvalues --    0.04814   0.04854   0.05112   0.05343   0.05756

 Mulliken charges:
               1
     1  Mg  12.002777
     2  C    5.974870
     3  C    6.016683
     4  C    6.026525
     5  C    5.990256
     6  N    6.987097
     7  C    6.035624
     8  C    5.999429
     9  C    6.003276
    10  C    5.969593
    11  C    5.996518
    12  C    5.996735
    13  C    5.999942
    14  H    1.003572
    15  N    7.009745
    16  C    5.949520
    17  C    5.983678
    18  C    5.975051
    19  C    5.967575
    20  C    6.005609
    21  C    5.986425
    22  O    7.970482
    23  C    6.005329
    24  N    7.006257
    25  C    5.963749
    26  C    6.010377
    27  C    5.990572
    28  C    6.028412
    29  C    6.000713
    30  C    5.998934
    31  C    5.997436
    32  N    7.002704
    33  C    6.036045
    34  C    6.032116
    35  C    6.005190
    36  C    6.027333
    37  C    5.994260
    38  C    6.013276
    39  O    8.031408
    40  C    6.002248
    41  C    6.006345
    42  O    8.004624
    43  O    8.001577
    44  C    5.998496
    45  H    0.988210
    46  H    0.996673
    47  H    1.012375
    48  H    0.996822
    49  H    1.000989
    50  H    0.996790
    51  H    0.984191
    52  H    1.003117
    53  H    1.013031
    54  H    0.991354
    55  H    1.004032
    56  H    0.996340
    57  H    0.982630
    58  H    0.977835
    59  H    0.983881
    60  H    0.995796
    61  H    0.984705
    62  H    0.991341
    63  H    1.000913
    64  H    1.001657
    65  H    0.988318
    66  H    1.002954
    67  H    1.001643
    68  H    1.011239
    69  H    0.999270
    70  H    0.997731
    71  H    0.997936
    72  H    1.010260
    73  H    1.019561
    74  H    1.018638
    75  H    1.023721
    76  H    1.007213
    77  H    1.004974
    78  H    0.999361
    79  H    1.006112
    80  Mg  12.000005
    81  C    6.000012
    82  C    5.999988
    83  C    5.999973
    84  C    6.000010
    85  N    6.999995
    86  C    5.999984
    87  C    6.000008
    88  C    5.999988
    89  C    6.000031
    90  C    5.999999
    91  C    6.000003
    92  C    5.999996
    93  H    0.999967
    94  N    6.999988
    95  C    6.000041
    96  C    6.000018
    97  C    6.000020
    98  C    6.000029
    99  C    5.999999
   100  C    6.000005
   101  O    8.000033
   102  C    5.999993
   103  N    7.000004
   104  C    6.000035
   105  C    6.000004
   106  C    5.999998
   107  C    5.999969
   108  C    5.999991
   109  C    5.999999
   110  C    6.000002
   111  N    7.000001
   112  C    5.999963
   113  C    5.999970
   114  C    6.000002
   115  C    5.999968
   116  C    6.000006
   117  C    5.999992
   118  O    7.999966
   119  C    5.999992
   120  C    5.999993
   121  O    7.999976
   122  O    8.000008
   123  C    6.000010
   124  H    1.000014
   125  H    1.000007
   126  H    1.000000
   127  H    0.999977
   128  H    1.000020
   129  H    1.000007
   130  H    0.999993
   131  H    0.999982
   132  H    1.000009
   133  H    1.000022
   134  H    1.000017
   135  H    1.000014
   136  H    1.000031
   137  H    1.000007
   138  H    1.000000
   139  H    0.999993
   140  H    1.000022
   141  H    1.000020
   142  H    1.000015
   143  H    0.999984
   144  H    1.000003
   145  H    0.999976
   146  H    1.000002
   147  H    1.000000
   148  H    1.000011
   149  H    1.000016
   150  H    1.000023
   151  H    0.999990
   152  H    0.999955
   153  H    0.999975
   154  H    1.000019
   155  H    1.000011
   156  H    0.999967
   157  H    0.999979
   158  H    1.000008
 Sum of Mulliken charges = 624.00000

 Dipole moment (field-independent basis, Debye):
    X=              2.2324    Y=              3.5454    Z=            -10.0880  Tot=             10.9235
 Quadrupole moment (field-independent basis, Debye-Ang):
   XX=           -105.4326   YY=             -2.7462   ZZ=             -0.5748
   XY=            -85.7477   XZ=            240.6570   YZ=              8.1048

 Normal termination of Gaussian 16 at Thu Sep 23 13:57:41 2021.
