 Gaussian 16, Revision A.03,
 Gaussian 16:  ES64L-G16RevA.03 25-Dec-2016

 ----------------------------------------------------------
 #p cam-b3lyp/Def2SVP td=(nstates=5) density=(transition=1)
 ----------------------------------------------------------

 --------------------------------
 TDDFT excited states in gaussian
 --------------------------------
 Symbolic Z-matrix:
 Charge =  0 Multiplicity = 1

                         Standard orientation:
 ---------------------------------------------------------------------
 Center     Atomic      Atomic             Coordinates (Angstroms)
 Number     Number       Type             X           Y           Z
 ---------------------------------------------------------------------
      1         12           0       19.569647   -0.714827   -0.213695
      2          6           0       21.474526    2.264833   -0.118791
      3          6           0       17.163632    0.836932    1.713688
      4          6           0       17.907193   -3.664160   -0.074761
      5          6           0       22.136777   -2.312091   -1.987956
      6          7           0       19.487222    1.287173    0.728225
      7          6           0       20.256251    2.417068    0.459947
      8          6           0       19.651553    3.706050    1.152970
      9          6           0       18.448232    3.112336    1.932736
     10          6           0       18.363057    1.634136    1.491067
     11          6           0       18.453856    3.223484    3.503324
     12          6           0       19.385457    4.956870    0.218977
     13          6           0       20.128316    6.203378    0.594135
     14          1           0       19.350839    7.563319    0.387783
     15          7           0       17.827390   -1.267395    0.696362
     16          6           0       16.920999   -0.494897    1.393819
     17          6           0       15.820486   -1.331138    1.846887
     18          6           0       15.986833   -2.654856    1.350000
     19          6           0       17.286756   -2.579142    0.586991
     20          6           0       14.583177   -0.797612    2.596611
     21          6           0       15.083505   -3.876521    1.484278
     22          8           0       15.296171   -4.938094    0.935453
     23          6           0       13.705258   -3.883771    2.264257
     24          7           0       20.024382   -2.751625   -0.860381
     25          6           0       19.184404   -3.763624   -0.686662
     26          6           0       19.728891   -5.095846   -1.315017
     27          6           0       21.007201   -4.601752   -2.101163
     28          6           0       21.068939   -3.109948   -1.653956
     29          6           0       19.918776   -6.210119   -0.245537
     30          6           0       20.891852   -4.846877   -3.592652
     31          6           0       22.175808   -5.361645   -4.240877
     32          7           0       21.507695   -0.272247   -0.836118
     33          6           0       22.399391   -0.970801   -1.627354
     34          6           0       23.578402   -0.169787   -1.749080
     35          6           0       23.278204    1.113603   -1.228967
     36          6           0       21.978415    1.025747   -0.656950
     37          6           0       24.847463   -0.579692   -2.394714
     38          6           0       23.772498    2.494817   -1.092526
     39          8           0       24.860755    3.016828   -1.316354
     40          6           0       22.478344    3.330651   -0.340060
     41          6           0       22.934642    3.929945    0.875067
     42          8           0       22.687623    3.512060    1.985528
     43          8           0       23.579033    5.119681    0.621573
     44          6           0       24.120593    5.750521    1.850985
     45          1           0       16.323513    1.322148    2.215284
     46          1           0       17.439904   -4.649111   -0.020663
     47          1           0       22.844924   -2.858089   -2.615786
     48          1           0       20.357371    3.931722    1.951616
     49          1           0       17.516200    3.580214    1.615566
     50          1           0       17.432092    3.461264    3.800874
     51          1           0       19.158922    4.003095    3.790704
     52          1           0       18.749183    2.308880    4.017887
     53          1           0       18.305725    5.106637    0.225392
     54          1           0       19.726303    4.679859   -0.778761
     55          1           0       21.036078    6.284238   -0.005247
     56          1           0       20.384567    6.038850    1.640352
     57          1           0       13.756885   -0.920982    1.897424
     58          1           0       14.677994    0.282338    2.712290
     59          1           0       14.326389   -1.316283    3.521102
     60          1           0       13.073242   -3.106323    1.833680
     61          1           0       13.831663   -3.934689    3.346110
     62          1           0       13.327872   -4.897604    2.134156
     63          1           0       19.071387   -5.518603   -2.074402
     64          1           0       21.853218   -5.112467   -1.640820
     65          1           0       20.925284   -6.616287   -0.349834
     66          1           0       19.145551   -6.978091   -0.278441
     67          1           0       19.838885   -5.777412    0.750355
     68          1           0       20.564084   -3.958362   -4.131297
     69          1           0       20.100637   -5.544374   -3.871920
     70          1           0       23.020486   -5.302723   -3.554397
     71          1           0       22.378468   -4.697766   -5.081759
     72          1           0       22.050984   -6.348236   -4.687428
     73          1           0       24.900545   -1.590143   -2.799900
     74          1           0       25.645137   -0.243995   -1.730953
     75          1           0       24.811043   -0.050718   -3.347360
     76          1           0       22.115775    4.104081   -1.017749
     77          1           0       24.833496    5.077863    2.328363
     78          1           0       23.255073    6.018180    2.457011
     79          1           0       24.684879    6.659945    1.648227
     80         12           0      -20.099856   -0.548450    0.250274
     81          6           0      -19.753686    2.469950   -1.500211
     82          6           0      -19.442190    1.176969    3.156236
     83          6           0      -20.399780   -3.407232    1.871721
     84          6           0      -20.595030   -2.164526   -2.829628
     85          7           0      -19.742618    1.588570    0.711749
     86          6           0      -19.614705    2.684158   -0.142264
     87          6           0      -19.643967    4.070899    0.612557
     88          6           0      -19.395242    3.571557    2.022699
     89          6           0      -19.541200    1.994225    1.984440
     90          6           0      -17.898520    3.891119    2.479824
     91          6           0      -21.149127    4.566845    0.449613
     92          6           0      -21.373730    6.112440    0.141735
     93          1           0      -20.302165    6.926030    0.821355
     94          7           0      -19.801354   -1.043115    2.166559
     95          6           0      -19.538781   -0.244447    3.197234
     96          6           0      -19.477893   -0.954711    4.447231
     97          6           0      -19.927191   -2.256348    4.148813
     98          6           0      -20.011285   -2.308377    2.640645
     99          6           0      -19.106884   -0.378782    5.764563
    100          6           0      -20.351762   -3.384393    5.066376
    101          8           0      -20.962854   -4.381689    4.665916
    102          6           0      -19.930563   -3.370557    6.538447
    103          7           0      -20.405215   -2.535973   -0.426967
    104          6           0      -20.557983   -3.513422    0.527869
    105          6           0      -21.004047   -4.799228   -0.165023
    106          6           0      -21.193179   -4.381735   -1.704256
    107          6           0      -20.773034   -2.935565   -1.684007
    108          6           0      -19.994165   -5.956400    0.158576
    109          6           0      -22.559650   -4.632131   -2.322694
    110          6           0      -22.506958   -5.437456   -3.658677
    111          7           0      -20.139018    0.022045   -1.750445
    112          6           0      -20.336458   -0.767110   -2.926832
    113          6           0      -20.244383    0.044779   -4.087368
    114          6           0      -20.018373    1.324056   -3.552018
    115          6           0      -19.916448    1.226199   -2.148780
    116          6           0      -20.397134   -0.298884   -5.534089
    117          6           0      -19.833623    2.703245   -3.872440
    118          8           0      -19.772967    3.301914   -4.920610
    119          6           0      -19.767167    3.494673   -2.535653
    120          6           0      -18.607647    4.422189   -2.582390
    121          8           0      -17.414938    4.134255   -2.537992
    122          8           0      -19.105991    5.661604   -2.625956
    123          6           0      -18.154716    6.752630   -2.592857
    124          1           0      -19.384108    1.614809    4.154793
    125          1           0      -20.475710   -4.321371    2.465867
    126          1           0      -20.805048   -2.613902   -3.802531
    127          1           0      -18.959870    4.707963    0.052819
    128          1           0      -20.135556    3.987424    2.705321
    129          1           0      -17.320123    4.381559    1.696615
    130          1           0      -17.413962    2.951142    2.743219
    131          1           0      -18.021815    4.521141    3.360785
    132          1           0      -21.760704    4.384680    1.332797
    133          1           0      -21.585345    3.951686   -0.337837
    134          1           0      -22.262879    6.479656    0.654379
    135          1           0      -21.618695    6.280169   -0.907374
    136          1           0      -20.013609   -0.384429    6.371008
    137          1           0      -18.779328    0.655522    5.669250
    138          1           0      -18.328860   -0.941697    6.279368
    139          1           0      -20.060567   -4.426821    6.772919
    140          1           0      -20.526858   -2.705242    7.163973
    141          1           0      -18.878227   -3.188682    6.755819
    142          1           0      -21.957890   -5.208427    0.167779
    143          1           0      -20.456392   -4.923275   -2.297677
    144          1           0      -20.609504   -6.818722    0.415453
    145          1           0      -19.273174   -5.710463    0.938247
    146          1           0      -19.535644   -6.346471   -0.750873
    147          1           0      -23.143651   -3.729576   -2.500043
    148          1           0      -23.030992   -5.337499   -1.636841
    149          1           0      -21.493737   -5.786230   -3.858942
    150          1           0      -22.678955   -4.795665   -4.522512
    151          1           0      -23.179048   -6.295401   -3.631227
    152          1           0      -21.477509   -0.426557   -5.607271
    153          1           0      -19.776359   -1.176873   -5.711266
    154          1           0      -20.129228    0.528095   -6.190180
    155          1           0      -20.653000    4.129539   -2.581771
    156          1           0      -17.414545    6.625110   -3.383281
    157          1           0      -17.539915    6.841661   -1.696568
    158          1           0      -18.732278    7.661238   -2.763968
 ---------------------------------------------------------------------

 SCF Done:  E(RCAM-B3LYP) =  -4069.83677442     A.U. after   18 cycles

 Excitation energies and oscillator strengths:

 Excited State   1:      Singlet-A      1.7258 eV  718.41 nm  f=0.3810  <S**2>=0.000
     309 -> 316        0.16129
     312 -> 313        0.68777
 This state for optimization and/or second-order correction.
 Total Energy, E(TD-HF/TD-DFT) =  -4069.77335228
 Copying the excited state density for this state as the 1-particle RhoCI density.

 Excited State   2:      Singlet-A      1.7837 eV  695.08 nm  f=0.3750  <S**2>=0.000
     310 -> 315        0.17650
     311 -> 314        0.68528
     310 <- 315        0.10145

 Excited State   3:      Singlet-A      2.2587 eV  548.93 nm  f=0.1129  <S**2>=0.000
     310 -> 314        0.63967
     311 -> 315       -0.28423

 Excited State   4:      Singlet-A      2.2842 eV  542.80 nm  f=0.1227  <S**2>=0.000
     309 -> 313        0.63701
     312 -> 316       -0.28303

 Excited State   5:      Singlet-A      3.1836 eV  389.44 nm  f=0.0000  <S**2>=0.000
     312 -> 314        0.70710

 The electronic state is 1-A.
 Alpha  occ. eigenvalues --  -46.88215 -46.87794 -19.25287 -19.24315 -19.19945
 Alpha  occ. eigenvalues --  -19.19865 -19.19368 -19.19207 -19.18821 -19.17431
 Alpha  occ. eigenvalues --  -14.42267 -14.42252 -14.41744 -14.41646 -14.40322
 Alpha  occ. eigenvalues --  -14.40248 -14.38703 -14.38495 -10.38341 -10.38306
 Alpha  occ. eigenvalues --  -10.36383 -10.36261 -10.35977 -10.33180 -10.32500
 Alpha  occ. eigenvalues --  -10.31959 -10.31931 -10.31393 -10.31253 -10.31253
 Alpha  occ. eigenvalues --  -10.31110 -10.31039 -10.30706 -10.30653 -10.30475
 Alpha  occ. eigenvalues --  -10.30168 -10.30152 -10.30142 -10.29791 -10.29092
 Alpha  occ. eigenvalues --  -10.29033 -10.28939 -10.28846 -10.28689 -10.28636
 Alpha  occ. eigenvalues --  -10.28478 -10.28466 -10.28366 -10.28008 -10.28005
 Alpha  occ. eigenvalues --  -10.27977 -10.27855 -10.27789 -10.27765 -10.27647
 Alpha  occ. eigenvalues --  -10.27591 -10.27575 -10.27554 -10.27551 -10.27347
 Alpha  occ. eigenvalues --  -10.27170 -10.27122 -10.27106 -10.27099 -10.26889
 Alpha  occ. eigenvalues --  -10.26759 -10.26721 -10.26702 -10.26657 -10.26560
 Alpha  occ. eigenvalues --  -10.26478 -10.26316 -10.26248 -10.26233 -10.26189
 Alpha  occ. eigenvalues --  -10.26060 -10.25961 -10.25913 -10.25824 -10.25805
 Alpha  occ. eigenvalues --  -10.25735 -10.25447 -10.25271 -10.25127 -10.24859
 Alpha  occ. eigenvalues --  -10.23609  -3.16744  -3.16504  -1.91652  -1.91414
 Alpha  occ. eigenvalues --   -1.91194  -1.91051  -1.90939  -1.90835  -1.17127
 Alpha  occ. eigenvalues --   -1.15859  -1.11495  -1.10382  -1.09395  -1.09247
 Alpha  occ. eigenvalues --   -1.07417  -1.07112  -1.05011  -1.04070  -1.03940
 Alpha  occ. eigenvalues --   -1.02947  -1.02452  -1.02370  -1.01946  -1.00925
 Alpha  occ. eigenvalues --   -0.92677  -0.91834  -0.89670  -0.89120  -0.88508
 Alpha  occ. eigenvalues --   -0.88448  -0.88420  -0.88027  -0.88002  -0.87204
 Alpha  occ. eigenvalues --   -0.87059  -0.86877  -0.86662  -0.85593  -0.84364
 Alpha  occ. eigenvalues --   -0.83981  -0.83625  -0.83553  -0.82491  -0.82379
 Alpha  occ. eigenvalues --   -0.81870  -0.81298  -0.81022  -0.80704  -0.80404
 Alpha  occ. eigenvalues --   -0.80085  -0.78933  -0.78419  -0.77449  -0.76926
 Alpha  occ. eigenvalues --   -0.76791  -0.76439  -0.75750  -0.75627  -0.75005
 Alpha  occ. eigenvalues --   -0.74704  -0.73128  -0.72230  -0.71431  -0.71287
 Alpha  occ. eigenvalues --   -0.69212  -0.69041  -0.68895  -0.68833  -0.67634
 Alpha  occ. eigenvalues --   -0.67415  -0.67410  -0.67223  -0.65615  -0.65440
 Alpha  occ. eigenvalues --   -0.65269  -0.65040  -0.64787  -0.64572  -0.64531
 Alpha  occ. eigenvalues --   -0.64337  -0.62501  -0.61133  -0.60815  -0.60022
 Alpha  occ. eigenvalues --   -0.59620  -0.59166  -0.59154  -0.58784  -0.58655
 Alpha  occ. eigenvalues --   -0.58011  -0.57795  -0.57791  -0.57326  -0.56992
 Alpha  occ. eigenvalues --   -0.56668  -0.55932  -0.55753  -0.55690  -0.55355
 Alpha  occ. eigenvalues --   -0.54724  -0.54487  -0.54229  -0.53850  -0.53682
 Alpha  occ. eigenvalues --   -0.53564  -0.53228  -0.53195  -0.53191  -0.53025
 Alpha  occ. eigenvalues --   -0.52621  -0.52568  -0.52540  -0.52179  -0.52115
 Alpha  occ. eigenvalues --   -0.51798  -0.51682  -0.51396  -0.51341  -0.51061
 Alpha  occ. eigenvalues --   -0.51005  -0.50901  -0.50760  -0.50575  -0.50438
 Alpha  occ. eigenvalues --   -0.50325  -0.50131  -0.50008  -0.49664  -0.49564
 Alpha  occ. eigenvalues --   -0.49502  -0.49452  -0.49287  -0.48660  -0.48634
 Alpha  occ. eigenvalues --   -0.48548  -0.48530  -0.48442  -0.48054  -0.47991
 Alpha  occ. eigenvalues --   -0.47925  -0.47722  -0.47701  -0.47564  -0.47480
 Alpha  occ. eigenvalues --   -0.47204  -0.46767  -0.46766  -0.46588  -0.46420
 Alpha  occ. eigenvalues --   -0.46409  -0.46203  -0.46103  -0.45984  -0.45513
 Alpha  occ. eigenvalues --   -0.45300  -0.45129  -0.45089  -0.44833  -0.44732
 Alpha  occ. eigenvalues --   -0.44665  -0.44580  -0.44474  -0.44457  -0.44316
 Alpha  occ. eigenvalues --   -0.43981  -0.43918  -0.43718  -0.43686  -0.43554
 Alpha  occ. eigenvalues --   -0.43274  -0.43181  -0.43108  -0.42948  -0.42875
 Alpha  occ. eigenvalues --   -0.42639  -0.42395  -0.42372  -0.42280  -0.41982
 Alpha  occ. eigenvalues --   -0.41965  -0.41599  -0.41495  -0.41161  -0.41140
 Alpha  occ. eigenvalues --   -0.40841  -0.40549  -0.40402  -0.40271  -0.40088
 Alpha  occ. eigenvalues --   -0.40012  -0.39759  -0.39662  -0.39417  -0.38836
 Alpha  occ. eigenvalues --   -0.38671  -0.38300  -0.37653  -0.37648  -0.37442
 Alpha  occ. eigenvalues --   -0.37159  -0.36936  -0.36852  -0.36494  -0.36336
 Alpha  occ. eigenvalues --   -0.36234  -0.35899  -0.34274  -0.34265  -0.33872
 Alpha  occ. eigenvalues --   -0.33830  -0.33068  -0.32834  -0.32291  -0.31642
 Alpha  occ. eigenvalues --   -0.31467  -0.31417  -0.30925  -0.30632  -0.30216
 Alpha  occ. eigenvalues --   -0.29710  -0.29291  -0.28645  -0.24148  -0.24049
 Alpha  occ. eigenvalues --   -0.21299  -0.21083
 Alpha virt. eigenvalues --   -0.08609  -0.08503  -0.01761  -0.01723   0.00059
 Alpha virt. eigenvalues --    0.00496   0.02115   0.02789   0.02981   0.03391
 Alpha virt. eigenvalues --    0.04553   0.05412   0.05540   0.05858   0.05954

 Mulliken charges:
               1
     1  Mg  11.999947
     2  C    6.000054
     3  C    5.999950
     4  C    5.999857
     5  C    6.000057
     6  N    7.000072
     7  C    5.999893
     8  C    6.000048
     9  C    5.999955
    10  C    6.000167
    11  C    5.999951
    12  C    6.000014
    13  C    6.000015
    14  H    0.999931
    15  N    6.999994
    16  C    6.000193
    17  C    6.000099
    18  C    6.000131
    19  C    6.000179
    20  C    5.999978
    21  C    6.000026
    22  O    8.000136
    23  C    5.999968
    24  N    6.999972
    25  C    6.000169
    26  C    5.999952
    27  C    6.000044
    28  C    5.999876
    29  C    5.999981
    30  C    6.000061
    31  C    6.000004
    32  N    6.999992
    33  C    5.999771
    34  C    5.999876
    35  C    5.999945
    36  C    5.999816
    37  C    6.000048
    38  C    5.999897
    39  O    7.999823
    40  C    5.999985
    41  C    5.999983
    42  O    7.999971
    43  O    7.999987
    44  C    6.000014
    45  H    1.000090
    46  H    1.000038
    47  H    0.999909
    48  H    0.999997
    49  H    1.000004
    50  H    1.000040
    51  H    1.000096
    52  H    1.000042
    53  H    0.999938
    54  H    1.000002
    55  H    1.000014
    56  H    1.000022
    57  H    1.000085
    58  H    1.000105
    59  H    1.000187
    60  H    1.000021
    61  H    1.000132
    62  H    1.000107
    63  H    0.999984
    64  H    1.000002
    65  H    1.000058
    66  H    1.000005
    67  H    1.000019
    68  H    0.999965
    69  H    0.999913
    70  H    1.000036
    71  H    0.999975
    72  H    0.999952
    73  H    0.999869
    74  H    0.999900
    75  H    0.999839
    76  H    0.999928
    77  H    1.000006
    78  H    0.999979
    79  H    0.999959
    80  Mg  12.003419
    81  C    5.969268
    82  C    6.003459
    83  C    6.032682
    84  C    5.997176
    85  N    6.981496
    86  C    6.036917
    87  C    5.996761
    88  C    6.002491
    89  C    5.978386
    90  C    6.003987
    91  C    5.998889
    92  C    5.996754
    93  H    1.006638
    94  N    7.011559
    95  C    5.963064
    96  C    5.974196
    97  C    5.990501
    98  C    5.951012
    99  C    6.006303
   100  C    5.987818
   101  O    7.971270
   102  C    6.006885
   103  N    7.009041
   104  C    5.961476
   105  C    6.013333
   106  C    5.987486
   107  C    6.027525
   108  C    6.004298
   109  C    5.992199
   110  C    5.999715
   111  N    6.998535
   112  C    6.040974
   113  C    6.024663
   114  C    6.004593
   115  C    6.033744
   116  C    6.000892
   117  C    6.016636
   118  O    8.033419
   119  C    6.005933
   120  C    6.002902
   121  O    8.005517
   122  O    8.001054
   123  C    5.997605
   124  H    0.986883
   125  H    0.998133
   126  H    1.015273
   127  H    0.996178
   128  H    0.997110
   129  H    0.984793
   130  H    1.004824
   131  H    0.996104
   132  H    1.011912
   133  H    0.992620
   134  H    1.003568
   135  H    0.995449
   136  H    0.979869
   137  H    0.982589
   138  H    0.980211
   139  H    0.986063
   140  H    0.991452
   141  H    0.992126
   142  H    0.997510
   143  H    1.002880
   144  H    0.996987
   145  H    1.006273
   146  H    0.989580
   147  H    0.998851
   148  H    1.013336
   149  H    1.002156
   150  H    0.996106
   151  H    1.006512
   152  H    1.016749
   153  H    1.015712
   154  H    1.013787
   155  H    1.004448
   156  H    1.000681
   157  H    1.007085
   158  H    1.003721
 Sum of Mulliken charges = 624.00000

 Dipole moment (field-independent basis, Debye):
    X=             -0.8571    Y=              2.2452    Z=            -10.5188  Tot=             10.7899
 Quadrupole moment (field-independent basis, Debye-Ang):
   XX=             29.9426   YY=              0.6333   ZZ=             -5.9707
   XY=            -44.4664   XZ=            210.7367   YZ=              5.8054

 Normal termination of Gaussian 16 at Thu Sep 23 09:52:26 2021.
