 Gaussian 16, Revision A.03,
 Gaussian 16:  ES64L-G16RevA.03 25-Dec-2016

 -----------------------------------
 #p cam-b3lyp/Def2SVP td=(nstates=5)
 -----------------------------------

 --------------------------------
 TDDFT excited states in gaussian
 --------------------------------
 Symbolic Z-matrix:
 Charge =  0 Multiplicity = 1

                         Standard orientation:
 ---------------------------------------------------------------------
 Center     Atomic      Atomic             Coordinates (Angstroms)
 Number     Number       Type             X           Y           Z
 ---------------------------------------------------------------------
      1         12           0      -22.049458   -0.749649   -0.208770
      2          6           0      -23.662856    2.102198    1.283250
      3          6           0      -19.936578    1.453429   -1.737178
      4          6           0      -20.750532   -3.384507   -1.827959
      5          6           0      -24.551589   -2.689372    1.027344
      6          7           0      -21.808886    1.616315   -0.164094
      7          6           0      -22.576512    2.481812    0.559853
      8          6           0      -21.946847    3.818740    0.452682
      9          6           0      -20.833812    3.663108   -0.620305
     10          6           0      -20.829371    2.146038   -0.953401
     11          6           0      -21.134439    4.509580   -1.898024
     12          6           0      -21.444679    4.415788    1.743463
     13          6           0      -21.003369    5.870329    1.765809
     14          1           0      -21.552987    6.714674    2.837691
     15          7           0      -20.501333   -0.946536   -1.485825
     16          6           0      -19.787732    0.120424   -2.098325
     17          6           0      -18.705336   -0.498235   -2.886545
     18          6           0      -19.016714   -1.853170   -2.964619
     19          6           0      -20.188688   -2.107747   -2.107401
     20          6           0      -17.654410    0.346816   -3.575705
     21          6           0      -18.280353   -2.991941   -3.702790
     22          8           0      -18.761290   -4.124249   -3.895915
     23          6           0      -16.912968   -2.705338   -4.173389
     24          7           0      -22.600957   -2.781387   -0.447942
     25          6           0      -21.945263   -3.699318   -1.128072
     26          6           0      -22.614714   -5.100217   -1.079227
     27          6           0      -23.651900   -4.879390    0.024033
     28          6           0      -23.572319   -3.386679    0.248092
     29          6           0      -23.259180   -5.478869   -2.455329
     30          6           0      -23.465661   -5.662189    1.304236
     31          6           0      -24.730548   -6.281587    1.924737
     32          7           0      -23.685335   -0.387274    0.986330
     33          6           0      -24.614310   -1.310300    1.414457
     34          6           0      -25.627348   -0.683685    2.316326
     35          6           0      -25.235094    0.636104    2.218499
     36          6           0      -24.119005    0.793841    1.387982
     37          6           0      -26.647138   -1.351706    3.181644
     38          6           0      -25.593382    1.964964    2.692033
     39          8           0      -26.487574    2.263787    3.475507
     40          6           0      -24.591541    2.990236    2.113256
     41          6           0      -25.378317    4.043955    1.524879
     42          8           0      -25.993532    4.005764    0.432096
     43          8           0      -25.238449    5.193161    2.241976
     44          6           0      -25.722609    6.431177    1.671355
     45          1           0      -19.200434    2.136847   -2.164930
     46          1           0      -20.438811   -4.207672   -2.474006
     47          1           0      -25.415392   -3.341101    1.172833
     48          1           0      -22.754449    4.431494    0.054314
     49          1           0      -19.855930    3.975567   -0.253537
     50          1           0      -20.416494    5.196283   -2.347570
     51          1           0      -21.996258    5.114351   -1.616298
     52          1           0      -21.551939    3.949922   -2.735460
     53          1           0      -20.539862    3.912640    2.084833
     54          1           0      -22.071046    4.139237    2.591117
     55          1           0      -21.277204    6.369686    0.837631
     56          1           0      -19.957227    5.844953    2.069734
     57          1           0      -17.464420    0.068171   -4.612009
     58          1           0      -16.691471    0.360425   -3.065551
     59          1           0      -17.915108    1.399155   -3.691152
     60          1           0      -16.341356   -2.296023   -3.340309
     61          1           0      -17.086117   -1.942625   -4.931793
     62          1           0      -16.465839   -3.668107   -4.418131
     63          1           0      -21.831383   -5.798183   -0.781729
     64          1           0      -24.690942   -5.056272   -0.252355
     65          1           0      -24.346618   -5.509811   -2.394118
     66          1           0      -22.960784   -6.478774   -2.770416
     67          1           0      -22.950084   -4.691420   -3.142872
     68          1           0      -22.969966   -5.069688    2.072558
     69          1           0      -22.629269   -6.325029    1.084820
     70          1           0      -24.406916   -7.162360    2.478501
     71          1           0      -25.527969   -6.443670    1.198857
     72          1           0      -25.060506   -5.470877    2.573995
     73          1           0      -26.359522   -1.436372    4.229765
     74          1           0      -26.900372   -2.275509    2.662270
     75          1           0      -27.604036   -0.841813    3.063325
     76          1           0      -24.147008    3.456453    2.992490
     77          1           0      -26.068748    6.352174    0.640454
     78          1           0      -24.988028    7.225932    1.798283
     79          1           0      -26.580310    6.824633    2.217548
     80         12           0       22.379993   -0.612821    0.541576
     81          6           0       22.591411    2.413124   -1.435122
     82          6           0       23.339092    1.201824    3.036486
     83          6           0       22.392236   -3.518555    2.096922
     84          6           0       22.115410   -2.577110   -2.504932
     85          7           0       22.789074    1.636486    0.767532
     86          6           0       22.835701    2.691393   -0.120075
     87          6           0       23.246927    3.936878    0.578879
     88          6           0       23.939017    3.418680    1.865777
     89          6           0       23.370254    1.980419    1.895886
     90          6           0       25.481760    3.398565    1.796240
     91          6           0       21.982796    4.759915    0.973229
     92          6           0       22.048429    6.315174    0.715417
     93          1           0       20.714948    7.159020    0.627215
     94          7           0       22.789921   -1.067776    2.437616
     95          6           0       23.061300   -0.191430    3.367702
     96          6           0       23.136747   -0.888388    4.637835
     97          6           0       22.735615   -2.211047    4.335594
     98          6           0       22.650913   -2.304304    2.903329
     99          6           0       23.411481   -0.123514    5.945312
    100          6           0       22.512044   -3.322373    5.323003
    101          8           0       22.203128   -4.411759    4.941987
    102          6           0       22.580257   -3.023286    6.785117
    103          7           0       22.547140   -2.812107   -0.213357
    104          6           0       22.369689   -3.737499    0.727278
    105          6           0       22.027327   -5.060056    0.151316
    106          6           0       22.145064   -4.750135   -1.374624
    107          6           0       22.289078   -3.251952   -1.423937
    108          6           0       22.825311   -6.313670    0.661141
    109          6           0       20.900820   -5.311544   -2.167450
    110          6           0       21.059648   -6.578563   -3.053382
    111          7           0       22.353626   -0.272963   -1.466158
    112          6           0       22.166913   -1.103410   -2.593786
    113          6           0       22.120622   -0.271312   -3.813838
    114          6           0       22.259519    1.041759   -3.384436
    115          6           0       22.440733    1.024799   -2.011857
    116          6           0       22.090288   -0.813843   -5.263260
    117          6           0       22.309572    2.445889   -3.904900
    118          8           0       22.182920    2.938017   -5.001227
    119          6           0       22.703884    3.392755   -2.663650
    120          6           0       21.920422    4.572843   -2.632205
    121          8           0       20.867865    4.646339   -1.982771
    122          8           0       22.365692    5.641961   -3.403387
    123          6           0       21.695555    6.970254   -3.255004
    124          1           0       23.611826    1.703628    3.966550
    125          1           0       22.332084   -4.475521    2.619281
    126          1           0       22.026783   -3.151713   -3.428206
    127          1           0       24.012396    4.452664   -0.001471
    128          1           0       23.718344    3.957131    2.787241
    129          1           0       25.907286    4.037288    2.570802
    130          1           0       25.758480    3.771027    0.810372
    131          1           0       25.927989    2.406919    1.876297
    132          1           0       21.869771    4.594276    2.044782
    133          1           0       21.148135    4.284978    0.457994
    134          1           0       22.639535    6.473520   -0.186185
    135          1           0       22.622939    6.663677    1.574487
    136          1           0       22.521069   -0.184567    6.572389
    137          1           0       23.736203    0.910507    5.834499
    138          1           0       24.141645   -0.662644    6.548208
    139          1           0       21.821362   -2.307561    7.100127
    140          1           0       23.477426   -2.517570    7.141931
    141          1           0       22.363907   -3.937310    7.338723
    142          1           0       20.978120   -5.253067    0.374988
    143          1           0       23.097604   -5.129060   -1.745642
    144          1           0       23.451827   -5.962100    1.480224
    145          1           0       23.373038   -6.894986   -0.081430
    146          1           0       22.109417   -7.044549    1.037569
    147          1           0       20.545762   -4.543372   -2.854973
    148          1           0       20.087737   -5.301858   -1.441579
    149          1           0       20.233063   -7.264608   -2.869172
    150          1           0       22.017987   -7.052525   -2.840454
    151          1           0       21.020970   -6.315290   -4.111084
    152          1           0       21.534002   -1.750736   -5.253729
    153          1           0       23.102788   -1.085157   -5.563048
    154          1           0       21.638882   -0.104741   -5.957555
    155          1           0       23.753767    3.663438   -2.771877
    156          1           0       21.823826    7.363901   -2.245704
    157          1           0       20.694874    6.963897   -3.685421
    158          1           0       22.315446    7.688522   -3.791443
 ---------------------------------------------------------------------

 SCF Done:  E(RCAM-B3LYP) =  -4069.79171002     A.U. after   18 cycles

 Excitation energies and oscillator strengths:

 Excited State   1:      Singlet-A      1.7382 eV  713.31 nm  f=0.3720  <S**2>=0.000
     310 -> 316       -0.16384
     311 -> 313        0.68880
     310 <- 316       -0.10276
 This state for optimization and/or second-order correction.
 Total Energy, E(TD-HF/TD-DFT) =  -4069.72783379
 Copying the excited state density for this state as the 1-particle RhoCI density.

 Excited State   2:      Singlet-A      1.7540 eV  706.86 nm  f=0.3864  <S**2>=0.000
     309 -> 315        0.19889
     312 -> 314        0.68113
     309 <- 315        0.11269

 Excited State   3:      Singlet-A      2.1720 eV  570.83 nm  f=0.2257  <S**2>=0.000
     310 -> 313        0.67445
     311 -> 316        0.20200

 Excited State   4:      Singlet-A      2.3188 eV  534.70 nm  f=0.0718  <S**2>=0.000
     309 -> 314        0.61702
     312 -> 315       -0.33883

 Excited State   5:      Singlet-A      3.0061 eV  412.44 nm  f=0.0000  <S**2>=0.000
     312 -> 313        0.70711

 The electronic state is 1-A.
 Alpha  occ. eigenvalues --  -46.89475 -46.88502 -19.25165 -19.24006 -19.19676
 Alpha  occ. eigenvalues --  -19.19292 -19.19030 -19.18839 -19.18610 -19.18565
 Alpha  occ. eigenvalues --  -14.41908 -14.41795 -14.41104 -14.40206 -14.39857
 Alpha  occ. eigenvalues --  -14.39807 -14.39766 -14.39601 -10.39142 -10.38553
 Alpha  occ. eigenvalues --  -10.35991 -10.35248 -10.35165 -10.34453 -10.31654
 Alpha  occ. eigenvalues --  -10.31220 -10.31174 -10.31057 -10.30752 -10.30631
 Alpha  occ. eigenvalues --  -10.30608 -10.30562 -10.30476 -10.30407 -10.30395
 Alpha  occ. eigenvalues --  -10.30083 -10.30073 -10.30058 -10.29873 -10.29407
 Alpha  occ. eigenvalues --  -10.29350 -10.29036 -10.28980 -10.28745 -10.28602
 Alpha  occ. eigenvalues --  -10.28403 -10.28280 -10.28221 -10.28141 -10.28120
 Alpha  occ. eigenvalues --  -10.28037 -10.28013 -10.27993 -10.27954 -10.27941
 Alpha  occ. eigenvalues --  -10.27605 -10.27536 -10.27327 -10.27298 -10.27224
 Alpha  occ. eigenvalues --  -10.27196 -10.27174 -10.27081 -10.26967 -10.26919
 Alpha  occ. eigenvalues --  -10.26838 -10.26557 -10.26389 -10.26325 -10.26316
 Alpha  occ. eigenvalues --  -10.26286 -10.26218 -10.26092 -10.26083 -10.25986
 Alpha  occ. eigenvalues --  -10.25955 -10.25938 -10.25923 -10.25766 -10.25762
 Alpha  occ. eigenvalues --  -10.25741 -10.25696 -10.25566 -10.25476 -10.25136
 Alpha  occ. eigenvalues --  -10.24606  -3.17998  -3.17108  -1.92885  -1.92461
 Alpha  occ. eigenvalues --   -1.92298  -1.92016  -1.91555  -1.91420  -1.16113
 Alpha  occ. eigenvalues --   -1.14220  -1.12202  -1.10884  -1.09476  -1.09061
 Alpha  occ. eigenvalues --   -1.06444  -1.05959  -1.05769  -1.05691  -1.04990
 Alpha  occ. eigenvalues --   -1.04917  -1.04580  -1.03077  -1.02183  -1.01020
 Alpha  occ. eigenvalues --   -0.93165  -0.91291  -0.90094  -0.89317  -0.89292
 Alpha  occ. eigenvalues --   -0.88903  -0.88478  -0.88025  -0.87831  -0.87671
 Alpha  occ. eigenvalues --   -0.87590  -0.87081  -0.86625  -0.85228  -0.84675
 Alpha  occ. eigenvalues --   -0.84377  -0.84067  -0.83090  -0.82935  -0.82605
 Alpha  occ. eigenvalues --   -0.82174  -0.82049  -0.81244  -0.80989  -0.80879
 Alpha  occ. eigenvalues --   -0.80437  -0.78802  -0.78668  -0.77721  -0.77443
 Alpha  occ. eigenvalues --   -0.77158  -0.76733  -0.76575  -0.76255  -0.75439
 Alpha  occ. eigenvalues --   -0.75247  -0.72991  -0.72808  -0.71955  -0.71135
 Alpha  occ. eigenvalues --   -0.69546  -0.69263  -0.69249  -0.68816  -0.68086
 Alpha  occ. eigenvalues --   -0.67969  -0.67372  -0.66531  -0.66422  -0.66144
 Alpha  occ. eigenvalues --   -0.65656  -0.65410  -0.65109  -0.65007  -0.64559
 Alpha  occ. eigenvalues --   -0.64256  -0.62543  -0.61471  -0.61077  -0.60409
 Alpha  occ. eigenvalues --   -0.60139  -0.59905  -0.59490  -0.59096  -0.58777
 Alpha  occ. eigenvalues --   -0.58396  -0.58086  -0.57612  -0.57602  -0.57213
 Alpha  occ. eigenvalues --   -0.56583  -0.56467  -0.55778  -0.55751  -0.55540
 Alpha  occ. eigenvalues --   -0.55517  -0.54440  -0.54042  -0.54030  -0.53906
 Alpha  occ. eigenvalues --   -0.53893  -0.53486  -0.53424  -0.53168  -0.53067
 Alpha  occ. eigenvalues --   -0.52967  -0.52672  -0.52464  -0.52016  -0.51973
 Alpha  occ. eigenvalues --   -0.51884  -0.51881  -0.51689  -0.51347  -0.51210
 Alpha  occ. eigenvalues --   -0.50790  -0.50582  -0.50485  -0.50293  -0.50272
 Alpha  occ. eigenvalues --   -0.50119  -0.49931  -0.49889  -0.49736  -0.49653
 Alpha  occ. eigenvalues --   -0.49591  -0.49307  -0.49076  -0.48867  -0.48773
 Alpha  occ. eigenvalues --   -0.48640  -0.48382  -0.48342  -0.48340  -0.47973
 Alpha  occ. eigenvalues --   -0.47958  -0.47810  -0.47800  -0.47588  -0.47473
 Alpha  occ. eigenvalues --   -0.47363  -0.47233  -0.47004  -0.46540  -0.46464
 Alpha  occ. eigenvalues --   -0.46266  -0.46230  -0.46043  -0.45817  -0.45571
 Alpha  occ. eigenvalues --   -0.45563  -0.45436  -0.45140  -0.45054  -0.44953
 Alpha  occ. eigenvalues --   -0.44812  -0.44584  -0.44527  -0.44497  -0.44051
 Alpha  occ. eigenvalues --   -0.43961  -0.43861  -0.43708  -0.43472  -0.43417
 Alpha  occ. eigenvalues --   -0.43366  -0.43150  -0.43024  -0.42781  -0.42697
 Alpha  occ. eigenvalues --   -0.42499  -0.42434  -0.42249  -0.42042  -0.41908
 Alpha  occ. eigenvalues --   -0.41752  -0.41681  -0.41563  -0.41333  -0.41234
 Alpha  occ. eigenvalues --   -0.41075  -0.41067  -0.40868  -0.40666  -0.40399
 Alpha  occ. eigenvalues --   -0.40228  -0.40121  -0.39934  -0.39927  -0.39886
 Alpha  occ. eigenvalues --   -0.38815  -0.38358  -0.37911  -0.37695  -0.37071
 Alpha  occ. eigenvalues --   -0.37041  -0.36554  -0.36093  -0.36067  -0.36002
 Alpha  occ. eigenvalues --   -0.35762  -0.35643  -0.33813  -0.33626  -0.33534
 Alpha  occ. eigenvalues --   -0.33087  -0.33008  -0.32640  -0.31877  -0.31565
 Alpha  occ. eigenvalues --   -0.31559  -0.31131  -0.31044  -0.30775  -0.30589
 Alpha  occ. eigenvalues --   -0.30541  -0.30261  -0.29712  -0.24073  -0.23567
 Alpha  occ. eigenvalues --   -0.21655  -0.20912
 Alpha virt. eigenvalues --   -0.09102  -0.08148  -0.01792  -0.00384   0.00749
 Alpha virt. eigenvalues --    0.00906   0.02286   0.02521   0.02629   0.03019
 Alpha virt. eigenvalues --    0.04500   0.04557   0.05121   0.05523   0.06128

 Mulliken charges:
               1
     1  Mg   0.834402
     2  C    0.024656
     3  C   -0.055714
     4  C   -0.051637
     5  C   -0.106231
     6  N   -0.264131
     7  C   -0.113535
     8  C    0.060321
     9  C   -0.062135
    10  C    0.034812
    11  C    0.055111
    12  C    0.051949
    13  C   -0.062149
    14  H    0.017749
    15  N   -0.433210
    16  C    0.175023
    17  C   -0.115155
    18  C   -0.045474
    19  C    0.143484
    20  C    0.083554
    21  C    0.007305
    22  O   -0.223197
    23  C    0.070559
    24  N   -0.254201
    25  C   -0.036997
    26  C   -0.004019
    27  C   -0.057298
    28  C    0.011877
    29  C    0.079537
    30  C    0.047609
    31  C    0.022753
    32  N   -0.327806
    33  C    0.125499
    34  C   -0.201413
    35  C    0.044234
    36  C    0.113383
    37  C    0.151100
    38  C   -0.008651
    39  O   -0.172859
    40  C    0.036419
    41  C    0.195467
    42  O   -0.253667
    43  O   -0.318317
    44  C    0.171983
    45  H   -0.038288
    46  H    0.004206
    47  H   -0.019212
    48  H    0.008463
    49  H    0.010566
    50  H    0.018395
    51  H   -0.002286
    52  H    0.013814
    53  H   -0.010883
    54  H    0.002143
    55  H    0.034905
    56  H    0.034200
    57  H    0.018609
    58  H    0.030394
    59  H    0.016793
    60  H    0.031166
    61  H    0.040943
    62  H    0.035945
    63  H    0.017079
    64  H    0.006251
    65  H    0.011849
    66  H    0.025618
    67  H    0.033371
    68  H   -0.002035
    69  H   -0.015554
    70  H    0.028540
    71  H    0.017471
    72  H    0.021550
    73  H    0.054864
    74  H   -0.004397
    75  H    0.025625
    76  H    0.050956
    77  H    0.049999
    78  H    0.029565
    79  H    0.028382
    80  Mg   0.836459
    81  C   -0.017223
    82  C   -0.043212
    83  C   -0.045037
    84  C   -0.101715
    85  N   -0.239111
    86  C   -0.040158
    87  C   -0.024269
    88  C   -0.084533
    89  C    0.050327
    90  C    0.081893
    91  C    0.071414
    92  C   -0.043335
    93  H    0.034199
    94  N   -0.366940
    95  C    0.065580
    96  C   -0.128869
    97  C   -0.029954
    98  C    0.104882
    99  C    0.110684
   100  C    0.002104
   101  O   -0.168067
   102  C    0.040324
   103  N   -0.199794
   104  C   -0.011547
   105  C   -0.045230
   106  C    0.011787
   107  C    0.027155
   108  C    0.070636
   109  C    0.014213
   110  C    0.026942
   111  N   -0.397689
   112  C    0.109395
   113  C   -0.209698
   114  C   -0.008123
   115  C    0.122794
   116  C    0.119318
   117  C    0.086579
   118  O   -0.138070
   119  C   -0.010445
   120  C    0.199167
   121  O   -0.246440
   122  O   -0.357429
   123  C    0.195813
   124  H   -0.050852
   125  H   -0.004294
   126  H   -0.024466
   127  H   -0.003096
   128  H    0.009580
   129  H    0.019463
   130  H    0.006418
   131  H    0.023235
   132  H    0.001083
   133  H    0.050092
   134  H    0.026221
   135  H    0.014086
   136  H    0.026294
   137  H    0.029689
   138  H    0.019843
   139  H    0.028377
   140  H    0.022333
   141  H    0.029403
   142  H    0.020262
   143  H    0.004816
   144  H    0.029011
   145  H    0.015528
   146  H    0.009549
   147  H   -0.002238
   148  H   -0.009422
   149  H    0.017890
   150  H    0.014491
   151  H    0.016690
   152  H    0.008477
   153  H    0.029981
   154  H    0.038346
   155  H    0.050242
   156  H    0.028690
   157  H    0.055433
   158  H    0.024065
 Sum of Mulliken charges =  -0.00000

 Dipole moment (field-independent basis, Debye):
    X=              6.6856    Y=              0.2211    Z=              4.0688  Tot=              7.8295
 Quadrupole moment (field-independent basis, Debye-Ang):
   XX=           -619.9269   YY=           -476.9366   ZZ=           -518.1965
   XY=             42.1126   XZ=            120.4875   YZ=              9.7729

 Normal termination of Gaussian 16 at Thu Sep 16 00:37:07 2021.
