 Gaussian 16, Revision A.03,
 Gaussian 16:  ES64L-G16RevA.03 25-Dec-2016

 ----------------------------------------------------------
 #p cam-b3lyp/Def2SVP td=(nstates=5) density=(transition=1)
 ----------------------------------------------------------

 --------------------------------
 TDDFT excited states in gaussian
 --------------------------------
 Symbolic Z-matrix:
 Charge =  0 Multiplicity = 1

                         Standard orientation:
 ---------------------------------------------------------------------
 Center     Atomic      Atomic             Coordinates (Angstroms)
 Number     Number       Type             X           Y           Z
 ---------------------------------------------------------------------
      1         12           0      -30.001293    0.133884    0.277817
      2          6           0      -28.017948   -1.969149   -1.682436
      3          6           0      -29.297273    2.665475   -2.043784
      4          6           0      -31.392246    2.402927    2.306529
      5          6           0      -29.706123   -2.107815    2.872226
      6          7           0      -28.855460    0.325610   -1.756816
      7          6           0      -28.105581   -0.698536   -2.243883
      8          6           0      -27.365720   -0.261787   -3.570029
      9          6           0      -27.598656    1.332117   -3.521752
     10          6           0      -28.597501    1.488125   -2.362792
     11          6           0      -26.242224    1.988723   -3.081344
     12          6           0      -28.142075   -0.909826   -4.774755
     13          6           0      -27.688248   -0.522953   -6.208695
     14          1           0      -28.527518   -0.163953   -7.398694
     15          7           0      -30.460114    2.160706    0.039304
     16          6           0      -30.136039    3.054947   -0.994620
     17          6           0      -30.650755    4.313416   -0.650751
     18          6           0      -31.417336    4.218711    0.503038
     19          6           0      -31.117314    2.885416    0.998300
     20          6           0      -30.504604    5.466130   -1.589305
     21          6           0      -32.262111    5.293913    1.262960
     22          8           0      -32.916038    5.082189    2.278584
     23          6           0      -32.524718    6.683967    0.677191
     24          7           0      -30.360952    0.161962    2.320558
     25          6           0      -31.077717    1.162838    2.878891
     26          6           0      -31.564865    0.851751    4.307625
     27          6           0      -30.905198   -0.535852    4.540351
     28          6           0      -30.389359   -0.929433    3.167835
     29          6           0      -31.306983    1.993798    5.345818
     30          6           0      -31.773769   -1.631227    5.217499
     31          6           0      -32.803140   -2.263248    4.380045
     32          7           0      -29.154374   -1.713154    0.564450
     33          6           0      -29.109115   -2.488545    1.622898
     34          6           0      -28.490924   -3.785118    1.327309
     35          6           0      -28.052486   -3.580503   -0.019981
     36          6           0      -28.436321   -2.316355   -0.422770
     37          6           0      -28.662163   -5.062001    2.007989
     38          6           0      -27.380200   -4.248206   -1.120810
     39          8           0      -26.992866   -5.389115   -1.233773
     40          6           0      -27.283280   -3.169531   -2.206484
     41          6           0      -25.832774   -2.922525   -2.634198
     42          8           0      -25.042036   -2.267374   -2.006459
     43          8           0      -25.573619   -3.622858   -3.788067
     44          6           0      -24.187400   -3.426665   -4.271272
     45          1           0      -29.179990    3.406438   -2.836226
     46          1           0      -32.033751    3.038594    2.920835
     47          1           0      -29.877502   -2.678550    3.786558
     48          1           0      -26.295865   -0.469765   -3.539973
     49          1           0      -27.943312    1.769774   -4.459475
     50          1           0      -26.191069    2.362304   -2.059143
     51          1           0      -26.091954    2.955209   -3.563038
     52          1           0      -25.372385    1.349126   -3.229618
     53          1           0      -29.197793   -0.675942   -4.640124
     54          1           0      -28.092329   -1.990376   -4.637748
     55          1           0      -26.990713   -1.315684   -6.480700
     56          1           0      -27.156180    0.404476   -6.000481
     57          1           0      -29.927919    5.269434   -2.493497
     58          1           0      -30.187611    6.331943   -1.006329
     59          1           0      -31.524807    5.649859   -1.927368
     60          1           0      -31.634383    7.309702    0.614107
     61          1           0      -33.347780    7.225993    1.143165
     62          1           0      -32.920111    6.520688   -0.325534
     63          1           0      -32.628024    0.786360    4.077974
     64          1           0      -30.029606   -0.311055    5.149377
     65          1           0      -31.313415    2.969902    4.861891
     66          1           0      -30.328499    1.847265    5.803952
     67          1           0      -32.074672    2.043489    6.118291
     68          1           0      -32.238326   -1.065038    6.024178
     69          1           0      -31.128252   -2.364485    5.701353
     70          1           0      -32.352205   -3.063493    3.793431
     71          1           0      -33.313772   -1.525290    3.761665
     72          1           0      -33.555946   -2.776729    4.978880
     73          1           0      -29.626215   -4.979710    2.510476
     74          1           0      -27.994268   -5.335431    2.824998
     75          1           0      -28.626703   -5.830068    1.236111
     76          1           0      -27.870881   -3.507363   -3.060756
     77          1           0      -23.847193   -4.358045   -4.723531
     78          1           0      -23.423478   -3.306047   -3.502882
     79          1           0      -24.148798   -2.662383   -5.046790
     80         12           0       29.562339    0.605399   -0.366826
     81          6           0       27.783282   -2.344008   -0.111124
     82          6           0       26.586930    2.312860   -0.080745
     83          6           0       31.354408    3.514990   -0.017580
     84          6           0       32.505384   -1.172765   -0.533590
     85          7           0       27.477221    0.062965    0.073256
     86          6           0       26.995786   -1.231307    0.060429
     87          6           0       25.480567   -1.276434    0.238992
     88          6           0       25.092180    0.211569   -0.097355
     89          6           0       26.444366    0.900170    0.016703
     90          6           0       24.296274    0.472590   -1.455526
     91          6           0       24.958243   -1.809883    1.611054
     92          6           0       23.813441   -2.798259    1.539604
     93          1           0       22.513644   -2.209064    2.065133
     94          7           0       29.014989    2.588879   -0.076620
     95          6           0       27.773760    3.084080   -0.014855
     96          6           0       27.800663    4.533618    0.076446
     97          6           0       29.108371    4.988473    0.107566
     98          6           0       29.913929    3.693589    0.055709
     99          6           0       26.469371    5.413367    0.224006
    100          6           0       29.591240    6.478197    0.114598
    101          8           0       28.724468    7.395117    0.182218
    102          6           0       31.027676    6.837256    0.095877
    103          7           0       31.713963    1.115309   -0.036521
    104          6           0       32.181322    2.340895   -0.098894
    105          6           0       33.671220    2.389078   -0.365947
    106          6           0       34.156467    0.902521   -0.456838
    107          6           0       32.718743    0.193623   -0.418382
    108          6           0       34.246853    3.405267   -1.403354
    109          6           0       35.118642    0.317455    0.617305
    110          6           0       35.805585   -0.954896    0.166062
    111          7           0       30.068362   -1.397532   -0.318530
    112          6           0       31.335289   -2.003348   -0.484497
    113          6           0       31.137299   -3.425330   -0.556763
    114          6           0       29.741198   -3.637607   -0.449261
    115          6           0       29.190811   -2.371838   -0.267935
    116          6           0       32.176724   -4.466447   -0.944708
    117          6           0       28.789889   -4.634502   -0.467299
    118          8           0       28.806565   -5.835180   -0.479990
    119          6           0       27.428392   -3.847913   -0.092616
    120          6           0       27.220817   -4.160150    1.388590
    121          8           0       27.785537   -3.611829    2.315421
    122          8           0       26.293156   -5.187305    1.453112
    123          6           0       26.025433   -5.721630    2.784451
    124          1           0       25.676599    2.904809   -0.194866
    125          1           0       31.859873    4.477280    0.084092
    126          1           0       33.334701   -1.858128   -0.720510
    127          1           0       25.076554   -1.890148   -0.565613
    128          1           0       24.578966    0.603652    0.781455
    129          1           0       24.542006    1.515668   -1.654490
    130          1           0       23.212093    0.494570   -1.342446
    131          1           0       24.531726   -0.178752   -2.297090
    132          1           0       24.637836   -0.901945    2.122427
    133          1           0       25.707141   -2.141972    2.329764
    134          1           0       24.105367   -3.673070    2.121073
    135          1           0       23.605024   -3.123025    0.520007
    136          1           0       25.540588    4.844513    0.284394
    137          1           0       26.380278    6.114302   -0.606638
    138          1           0       26.415743    5.952410    1.168854
    139          1           0       31.490370    6.438621   -0.806402
    140          1           0       31.513814    6.599271    1.042084
    141          1           0       31.026771    7.902299   -0.132689
    142          1           0       34.292105    2.671313    0.484564
    143          1           0       34.437639    0.616492   -1.470637
    144          1           0       33.435296    4.101362   -1.619756
    145          1           0       34.702068    2.935078   -2.275781
    146          1           0       35.054029    4.028738   -1.018571
    147          1           0       34.522183    0.200305    1.521976
    148          1           0       35.811737    1.132286    0.826268
    149          1           0       36.784786   -0.985196    0.644571
    150          1           0       35.969671   -1.041073   -0.908720
    151          1           0       35.275053   -1.810839    0.583271
    152          1           0       31.761195   -5.456521   -1.132517
    153          1           0       32.923344   -4.496620   -0.152198
    154          1           0       32.709640   -4.174975   -1.849844
    155          1           0       26.619728   -4.104041   -0.777825
    156          1           0       26.923820   -6.204667    3.169092
    157          1           0       25.169615   -6.395800    2.786284
    158          1           0       25.822546   -4.899626    3.470346
 ---------------------------------------------------------------------

 SCF Done:  E(RCAM-B3LYP) =  -4069.82374086     A.U. after   19 cycles

 Excitation energies and oscillator strengths:

 Excited State   1:      Singlet-A      1.7450 eV  710.49 nm  f=0.3892  <S**2>=0.000
     310 -> 316       -0.18611
     312 -> 314        0.68384
     310 <- 316       -0.10700
 This state for optimization and/or second-order correction.
 Total Energy, E(TD-HF/TD-DFT) =  -4069.75961172
 Copying the excited state density for this state as the 1-particle RhoCI density.

 Excited State   2:      Singlet-A      1.8651 eV  664.75 nm  f=0.3723  <S**2>=0.000
     309 -> 315        0.14280
     311 -> 313        0.68808

 Excited State   3:      Singlet-A      2.2617 eV  548.19 nm  f=0.1172  <S**2>=0.000
     310 -> 314        0.64497
     312 -> 316        0.27669

 Excited State   4:      Singlet-A      2.2638 eV  547.69 nm  f=0.1263  <S**2>=0.000
     309 -> 313        0.64669
     311 -> 315       -0.24678
     311 -> 317       -0.10329

 Excited State   5:      Singlet-A      3.2762 eV  378.44 nm  f=0.0000  <S**2>=0.000
     312 -> 313        0.70711

 The electronic state is 1-A.
 Alpha  occ. eigenvalues --  -46.89400 -46.88707 -19.25787 -19.24519 -19.20415
 Alpha  occ. eigenvalues --  -19.20224 -19.19873 -19.19434 -19.18835 -19.17718
 Alpha  occ. eigenvalues --  -14.42311 -14.42245 -14.42048 -14.41062 -14.40551
 Alpha  occ. eigenvalues --  -14.39146 -14.39139 -14.38488 -10.39782 -10.39088
 Alpha  occ. eigenvalues --  -10.37030 -10.36169 -10.34511 -10.33400 -10.33075
 Alpha  occ. eigenvalues --  -10.32417 -10.31815 -10.31720 -10.31144 -10.31080
 Alpha  occ. eigenvalues --  -10.31078 -10.30632 -10.30576 -10.30360 -10.30354
 Alpha  occ. eigenvalues --  -10.29962 -10.29803 -10.29795 -10.29651 -10.29618
 Alpha  occ. eigenvalues --  -10.29164 -10.28699 -10.28677 -10.28559 -10.28413
 Alpha  occ. eigenvalues --  -10.28395 -10.28390 -10.28345 -10.28297 -10.28064
 Alpha  occ. eigenvalues --  -10.28058 -10.27963 -10.27739 -10.27645 -10.27599
 Alpha  occ. eigenvalues --  -10.27516 -10.27506 -10.27426 -10.27423 -10.27275
 Alpha  occ. eigenvalues --  -10.27233 -10.27190 -10.27153 -10.27101 -10.27036
 Alpha  occ. eigenvalues --  -10.26961 -10.26954 -10.26937 -10.26919 -10.26857
 Alpha  occ. eigenvalues --  -10.26781 -10.26757 -10.26444 -10.26352 -10.26193
 Alpha  occ. eigenvalues --  -10.25991 -10.25990 -10.25942 -10.25835 -10.25801
 Alpha  occ. eigenvalues --  -10.25294 -10.25290 -10.25272 -10.25130 -10.24296
 Alpha  occ. eigenvalues --  -10.23101  -3.17839  -3.17270  -1.92723  -1.92300
 Alpha  occ. eigenvalues --   -1.92158  -1.92143  -1.91740  -1.91558  -1.16834
 Alpha  occ. eigenvalues --   -1.15461  -1.10399  -1.10301  -1.09801  -1.09145
 Alpha  occ. eigenvalues --   -1.08770  -1.07906  -1.04972  -1.04585  -1.03841
 Alpha  occ. eigenvalues --   -1.03784  -1.03349  -1.03193  -1.02548  -1.02442
 Alpha  occ. eigenvalues --   -0.93823  -0.91562  -0.89436  -0.89181  -0.88565
 Alpha  occ. eigenvalues --   -0.88496  -0.88248  -0.87969  -0.87485  -0.87223
 Alpha  occ. eigenvalues --   -0.87057  -0.86633  -0.86200  -0.85825  -0.84505
 Alpha  occ. eigenvalues --   -0.84068  -0.83634  -0.83626  -0.83207  -0.82406
 Alpha  occ. eigenvalues --   -0.82059  -0.81539  -0.80927  -0.80708  -0.80413
 Alpha  occ. eigenvalues --   -0.80220  -0.78513  -0.77644  -0.77596  -0.77162
 Alpha  occ. eigenvalues --   -0.76741  -0.76585  -0.76154  -0.75330  -0.75142
 Alpha  occ. eigenvalues --   -0.74864  -0.72483  -0.72394  -0.71801  -0.71695
 Alpha  occ. eigenvalues --   -0.70052  -0.69725  -0.69164  -0.69115  -0.68357
 Alpha  occ. eigenvalues --   -0.67905  -0.67355  -0.67007  -0.65614  -0.65480
 Alpha  occ. eigenvalues --   -0.65373  -0.64829  -0.64679  -0.64442  -0.64042
 Alpha  occ. eigenvalues --   -0.64011  -0.62490  -0.61704  -0.60072  -0.59972
 Alpha  occ. eigenvalues --   -0.59473  -0.59449  -0.59379  -0.59028  -0.58635
 Alpha  occ. eigenvalues --   -0.58463  -0.58243  -0.57842  -0.57390  -0.57351
 Alpha  occ. eigenvalues --   -0.56553  -0.56438  -0.55729  -0.55506  -0.55490
 Alpha  occ. eigenvalues --   -0.55236  -0.55041  -0.54598  -0.54184  -0.54015
 Alpha  occ. eigenvalues --   -0.53925  -0.53730  -0.53335  -0.53250  -0.53160
 Alpha  occ. eigenvalues --   -0.53141  -0.52716  -0.52690  -0.52548  -0.52096
 Alpha  occ. eigenvalues --   -0.52010  -0.51589  -0.51133  -0.51030  -0.51016
 Alpha  occ. eigenvalues --   -0.50803  -0.50601  -0.50530  -0.50286  -0.50155
 Alpha  occ. eigenvalues --   -0.50009  -0.49923  -0.49812  -0.49629  -0.49456
 Alpha  occ. eigenvalues --   -0.49453  -0.49220  -0.49029  -0.48975  -0.48823
 Alpha  occ. eigenvalues --   -0.48706  -0.48541  -0.48497  -0.48219  -0.47903
 Alpha  occ. eigenvalues --   -0.47584  -0.47500  -0.47364  -0.47178  -0.47096
 Alpha  occ. eigenvalues --   -0.46660  -0.46548  -0.46189  -0.46133  -0.46117
 Alpha  occ. eigenvalues --   -0.46002  -0.45960  -0.45737  -0.45370  -0.45219
 Alpha  occ. eigenvalues --   -0.45191  -0.45077  -0.45045  -0.44970  -0.44880
 Alpha  occ. eigenvalues --   -0.44735  -0.44666  -0.44427  -0.44279  -0.44209
 Alpha  occ. eigenvalues --   -0.44080  -0.43944  -0.43856  -0.43667  -0.43588
 Alpha  occ. eigenvalues --   -0.43410  -0.43338  -0.43245  -0.43084  -0.42903
 Alpha  occ. eigenvalues --   -0.42707  -0.42575  -0.42554  -0.42476  -0.42406
 Alpha  occ. eigenvalues --   -0.42392  -0.42177  -0.42039  -0.41849  -0.41660
 Alpha  occ. eigenvalues --   -0.41602  -0.40772  -0.40772  -0.40409  -0.40255
 Alpha  occ. eigenvalues --   -0.40155  -0.39864  -0.39611  -0.39270  -0.38974
 Alpha  occ. eigenvalues --   -0.38842  -0.38477  -0.38059  -0.37848  -0.37748
 Alpha  occ. eigenvalues --   -0.37337  -0.37328  -0.36715  -0.36486  -0.36358
 Alpha  occ. eigenvalues --   -0.36327  -0.35335  -0.34928  -0.34419  -0.34288
 Alpha  occ. eigenvalues --   -0.34270  -0.33163  -0.33079  -0.32442  -0.31880
 Alpha  occ. eigenvalues --   -0.31443  -0.31091  -0.30857  -0.30808  -0.30053
 Alpha  occ. eigenvalues --   -0.29659  -0.29182  -0.29100  -0.24067  -0.23793
 Alpha  occ. eigenvalues --   -0.21484  -0.21075
 Alpha virt. eigenvalues --   -0.08449  -0.08384  -0.01790  -0.01330   0.00116
 Alpha virt. eigenvalues --    0.00435   0.01806   0.01899   0.01994   0.02556
 Alpha virt. eigenvalues --    0.05148   0.05176   0.05544   0.05835   0.06290

 Mulliken charges:
               1
     1  Mg  11.997807
     2  C    6.010356
     3  C    5.977416
     4  C    5.984678
     5  C    6.027708
     6  N    6.996289
     7  C    5.978406
     8  C    6.009392
     9  C    5.987825
    10  C    6.039728
    11  C    5.997224
    12  C    6.004495
    13  C    6.000374
    14  H    0.992599
    15  N    6.991537
    16  C    6.048558
    17  C    6.010213
    18  C    6.026042
    19  C    6.028064
    20  C    5.995809
    21  C    6.011453
    22  O    8.027937
    23  C    5.995066
    24  N    7.005508
    25  C    6.032667
    26  C    5.992687
    27  C    6.011398
    28  C    5.961282
    29  C    5.996831
    30  C    6.002509
    31  C    6.005910
    32  N    7.002135
    33  C    5.959903
    34  C    5.960248
    35  C    6.001018
    36  C    5.966054
    37  C    6.007487
    38  C    5.983429
    39  O    7.973773
    40  C    6.000384
    41  C    5.996214
    42  O    7.993689
    43  O    7.999325
    44  C    6.002399
    45  H    1.008240
    46  H    1.007625
    47  H    0.992998
    48  H    0.998841
    49  H    1.002245
    50  H    0.999237
    51  H    1.000295
    52  H    1.014673
    53  H    0.992179
    54  H    1.008069
    55  H    1.002534
    56  H    0.993559
    57  H    1.019428
    58  H    1.017772
    59  H    1.017955
    60  H    1.009227
    61  H    1.014788
    62  H    1.006462
    63  H    0.998707
    64  H    0.994058
    65  H    0.992071
    66  H    1.008592
    67  H    1.006773
    68  H    0.990781
    69  H    1.003501
    70  H    1.009098
    71  H    0.989564
    72  H    0.995331
    73  H    0.977352
    74  H    0.972800
    75  H    0.983705
    76  H    0.990577
    77  H    0.996704
    78  H    0.997548
    79  H    0.992888
    80  Mg  12.000001
    81  C    6.000006
    82  C    6.000028
    83  C    6.000006
    84  C    5.999993
    85  N    7.000008
    86  C    6.000012
    87  C    5.999999
    88  C    6.000009
    89  C    5.999958
    90  C    6.000003
    91  C    5.999996
    92  C    5.999987
    93  H    1.000034
    94  N    7.000000
    95  C    5.999955
    96  C    5.999986
    97  C    5.999965
    98  C    5.999964
    99  C    6.000002
   100  C    5.999988
   101  O    7.999958
   102  C    6.000009
   103  N    7.000002
   104  C    5.999963
   105  C    6.000012
   106  C    6.000000
   107  C    6.000024
   108  C    6.000003
   109  C    5.999994
   110  C    5.999997
   111  N    7.000005
   112  C    6.000046
   113  C    6.000028
   114  C    6.000028
   115  C    6.000021
   116  C    5.999992
   117  C    6.000010
   118  O    8.000052
   119  C    6.000007
   120  C    6.000003
   121  O    8.000002
   122  O    8.000008
   123  C    5.999990
   124  H    0.999999
   125  H    0.999967
   126  H    0.999999
   127  H    1.000011
   128  H    1.000003
   129  H    0.999989
   130  H    1.000009
   131  H    0.999996
   132  H    1.000006
   133  H    0.999993
   134  H    1.000009
   135  H    1.000010
   136  H    0.999988
   137  H    0.999970
   138  H    0.999973
   139  H    0.999992
   140  H    0.999990
   141  H    0.999967
   142  H    0.999979
   143  H    0.999990
   144  H    1.000001
   145  H    0.999983
   146  H    0.999980
   147  H    1.000007
   148  H    0.999998
   149  H    0.999996
   150  H    0.999998
   151  H    1.000002
   152  H    1.000029
   153  H    1.000018
   154  H    1.000019
   155  H    1.000032
   156  H    1.000001
   157  H    1.000037
   158  H    1.000004
 Sum of Mulliken charges = 624.00000

 Dipole moment (field-independent basis, Debye):
    X=             -3.5035    Y=             10.2476    Z=             -0.5859  Tot=             10.8458
 Quadrupole moment (field-independent basis, Debye-Ang):
   XX=            207.7321   YY=              6.0055   ZZ=             -2.9569
   XY=           -306.2861   XZ=             16.8054   YZ=              3.0648

 Normal termination of Gaussian 16 at Tue Sep 21 21:51:26 2021.
