 Gaussian 16, Revision A.03,
 Gaussian 16:  ES64L-G16RevA.03 25-Dec-2016

 -----------------------------------
 #p cam-b3lyp/Def2SVP td=(nstates=5)
 -----------------------------------

 --------------------------------
 TDDFT excited states in gaussian
 --------------------------------
 Symbolic Z-matrix:
 Charge =  0 Multiplicity = 1

                         Standard orientation:
 ---------------------------------------------------------------------
 Center     Atomic      Atomic             Coordinates (Angstroms)
 Number     Number       Type             X           Y           Z
 ---------------------------------------------------------------------
      1         12           0       -9.319615   -0.998231    0.517924
      2          6           0      -10.252010    2.222222   -0.484055
      3          6           0       -7.644606    0.324790    3.187113
      4          6           0       -8.197025   -4.033079    1.203989
      5          6           0      -10.947653   -2.228408   -2.416796
      6          7           0       -8.962082    1.073221    1.220089
      7          6           0       -9.476413    2.251963    0.727418
      8          6           0       -9.246364    3.384602    1.710862
      9          6           0       -8.178129    2.779654    2.705241
     10          6           0       -8.358715    1.257447    2.381166
     11          6           0       -6.757355    3.263030    2.443569
     12          6           0      -10.623363    3.901724    2.266141
     13          6           0      -10.476733    4.913821    3.436133
     14          1           0       -9.232984    5.778132    3.435658
     15          7           0       -8.145741   -1.724781    1.952722
     16          6           0       -7.444376   -1.021720    2.924122
     17          6           0       -6.607259   -1.913737    3.745540
     18          6           0       -6.818308   -3.202337    3.165323
     19          6           0       -7.746066   -3.013259    2.053267
     20          6           0       -5.823574   -1.445132    4.913862
     21          6           0       -6.184545   -4.493242    3.615740
     22          8           0       -6.462452   -5.598741    3.073574
     23          6           0       -5.246688   -4.534592    4.791661
     24          7           0       -9.596685   -2.890711   -0.454371
     25          6           0       -9.006714   -3.964207    0.072004
     26          6           0       -9.212504   -5.228383   -0.873317
     27          6           0      -10.093681   -4.622149   -2.102525
     28          6           0      -10.212813   -3.165649   -1.651815
     29          6           0       -7.788326   -5.780750   -1.291053
     30          6           0      -11.542547   -5.256692   -2.248446
     31          6           0      -11.628891   -6.561439   -3.091314
     32          7           0      -10.313682   -0.239967   -1.142617
     33          6           0      -11.032663   -0.840586   -2.209649
     34          6           0      -11.717851    0.245121   -3.038515
     35          6           0      -11.384687    1.461312   -2.450819
     36          6           0      -10.591740    1.098648   -1.248497
     37          6           0      -12.616535    0.065574   -4.221747
     38          6           0      -11.561871    2.894343   -2.477476
     39          8           0      -12.169844    3.640015   -3.251903
     40          6           0      -10.980197    3.449472   -1.084052
     41          6           0      -10.082481    4.652411   -1.262564
     42          8           0       -8.904913    4.585182   -1.490801
     43          8           0      -10.747445    5.843736   -0.894097
     44          6           0       -9.911544    7.011954   -0.579040
     45          1           0       -7.122450    0.899673    3.955256
     46          1           0       -7.810560   -5.029962    1.426774
     47          1           0      -11.372190   -2.520814   -3.379561
     48          1           0       -8.813428    4.215660    1.155531
     49          1           0       -8.398194    2.904748    3.765934
     50          1           0       -6.421026    3.704746    3.381462
     51          1           0       -6.772225    3.922974    1.576491
     52          1           0       -6.044263    2.444757    2.346301
     53          1           0      -11.176353    2.968053    2.364083
     54          1           0      -11.099442    4.404295    1.424865
     55          1           0      -10.515208    4.274683    4.318291
     56          1           0      -11.338226    5.581049    3.413053
     57          1           0       -4.798088   -1.631887    4.595576
     58          1           0       -6.097014   -1.943301    5.843618
     59          1           0       -5.836322   -0.387210    5.179155
     60          1           0       -5.792753   -4.246251    5.688819
     61          1           0       -4.505010   -3.822981    4.426729
     62          1           0       -4.718512   -5.472951    4.958535
     63          1           0       -9.801894   -5.862917   -0.210290
     64          1           0       -9.588090   -4.467881   -3.056720
     65          1           0       -6.948000   -5.209022   -0.897625
     66          1           0       -7.692452   -5.771861   -2.377124
     67          1           0       -7.712730   -6.764272   -0.828237
     68          1           0      -12.297154   -4.512174   -2.500529
     69          1           0      -11.832491   -5.555681   -1.241676
     70          1           0      -12.097281   -7.312235   -2.455888
     71          1           0      -10.628217   -6.811464   -3.444027
     72          1           0      -12.262834   -6.439853   -3.969949
     73          1           0      -13.624488    0.289723   -3.871946
     74          1           0      -12.535669   -0.951819   -4.606373
     75          1           0      -12.472069    0.727206   -5.075585
     76          1           0      -11.849075    3.688283   -0.471450
     77          1           0       -9.613654    7.408778   -1.549187
     78          1           0       -9.117368    6.742875    0.117659
     79          1           0      -10.552257    7.702333   -0.031092
     80         12           0        9.527335   -0.498570   -0.286478
     81          6           0        7.915784    2.755115   -0.266023
     82          6           0       12.344702    1.154939    0.546130
     83          6           0       10.937984   -3.363187   -0.369084
     84          6           0        6.503466   -1.902358   -1.479151
     85          7           0       10.043732    1.816142    0.136590
     86          6           0        9.220821    2.878475    0.170045
     87          6           0        9.965410    4.112294    0.714886
     88          6           0       11.453404    3.572304    0.485066
     89          6           0       11.287041    2.111345    0.446572
     90          6           0       12.316694    4.258539   -0.560296
     91          6           0        9.532729    4.347056    2.172483
     92          6           0        9.687630    5.830948    2.618247
     93          1           0        9.964757    7.027108    1.594862
     94          7           0       11.420624   -1.080674    0.092059
     95          6           0       12.499222   -0.253924    0.341557
     96          6           0       13.692582   -1.089314    0.435611
     97          6           0       13.282533   -2.432033    0.245414
     98          6           0       11.822255   -2.316317   -0.029350
     99          6           0       15.042242   -0.576696    0.677666
    100          6           0       14.137390   -3.802544    0.328950
    101          8           0       13.603457   -4.877761    0.313867
    102          6           0       15.622759   -3.800501    0.732587
    103          7           0        8.866525   -2.318187   -1.111535
    104          6           0        9.614375   -3.390687   -0.864648
    105          6           0        8.958824   -4.699491   -1.214731
    106          6           0        7.478286   -4.248677   -1.171643
    107          6           0        7.655202   -2.711481   -1.422428
    108          6           0        9.360705   -5.273355   -2.652540
    109          6           0        6.673300   -4.615631    0.145024
    110          6           0        7.053889   -5.886677    0.958728
    111          7           0        7.648688    0.227242   -0.883784
    112          6           0        6.517350   -0.410243   -1.274223
    113          6           0        5.429978    0.456990   -1.342322
    114          6           0        5.956036    1.673185   -1.011866
    115          6           0        7.296457    1.527526   -0.713680
    116          6           0        3.987042    0.066754   -1.650567
    117          6           0        5.549797    3.074030   -0.823882
    118          8           0        4.536452    3.694089   -1.109710
    119          6           0        6.844593    3.793874   -0.243845
    120          6           0        7.089908    4.971246   -1.058213
    121          8           0        7.607626    5.004940   -2.179081
    122          8           0        6.413442    5.989855   -0.487551
    123          6           0        6.254639    7.122599   -1.381842
    124          1           0       13.280035    1.711789    0.633764
    125          1           0       11.462499   -4.318733   -0.425275
    126          1           0        5.570157   -2.396994   -1.755481
    127          1           0        9.834576    4.978804    0.066579
    128          1           0       11.988021    3.789205    1.408850
    129          1           0       13.152490    4.796079   -0.113438
    130          1           0       11.717975    4.959166   -1.142019
    131          1           0       12.712561    3.586044   -1.321342
    132          1           0       10.230300    3.800908    2.807868
    133          1           0        8.539056    3.966414    2.408042
    134          1           0       10.383426    5.931383    3.451862
    135          1           0        8.775832    5.982474    3.195803
    136          1           0       15.023629    0.389041    1.182301
    137          1           0       15.495839   -0.497778   -0.310473
    138          1           0       15.656736   -1.221186    1.306642
    139          1           0       15.800101   -3.476177    1.757969
    140          1           0       16.118822   -3.242453   -0.061821
    141          1           0       16.041713   -4.798838    0.603794
    142          1           0        9.309461   -5.362142   -0.423859
    143          1           0        6.885476   -4.649264   -1.993600
    144          1           0        9.558367   -6.319617   -2.420497
    145          1           0       10.256711   -4.824550   -3.082750
    146          1           0        8.578312   -5.244579   -3.409957
    147          1           0        5.611162   -4.641640   -0.094289
    148          1           0        6.971124   -3.791818    0.793910
    149          1           0        7.845403   -5.657940    1.671959
    150          1           0        7.289517   -6.617046    0.183898
    151          1           0        6.200182   -6.307529    1.488795
    152          1           0        3.899177   -0.957701   -1.288030
    153          1           0        3.770991    0.026622   -2.717787
    154          1           0        3.327717    0.752426   -1.118662
    155          1           0        6.606001    4.071332    0.783665
    156          1           0        5.690251    7.944737   -0.942705
    157          1           0        5.946681    6.899206   -2.403424
    158          1           0        7.217216    7.603905   -1.558133
 ---------------------------------------------------------------------

 SCF Done:  E(RCAM-B3LYP) =  -4069.79846075     A.U. after   18 cycles

 Excitation energies and oscillator strengths:

 Excited State   1:      Singlet-A      1.7137 eV  723.50 nm  f=0.3978  <S**2>=0.000
     309 -> 315        0.19942
     312 -> 314        0.68019
     309 <- 315        0.11161
 This state for optimization and/or second-order correction.
 Total Energy, E(TD-HF/TD-DFT) =  -4069.73548474
 Copying the excited state density for this state as the 1-particle RhoCI density.

 Excited State   2:      Singlet-A      1.8345 eV  675.85 nm  f=0.3652  <S**2>=0.000
     310 -> 316       -0.18802
     311 -> 313        0.68139
     310 <- 316       -0.10394

 Excited State   3:      Singlet-A      2.2402 eV  553.46 nm  f=0.1494  <S**2>=0.000
     310 -> 313        0.65508
     311 -> 316        0.25326

 Excited State   4:      Singlet-A      2.2901 eV  541.39 nm  f=0.0361  <S**2>=0.000
     309 -> 314        0.58799
     312 -> 315       -0.38593

 Excited State   5:      Singlet-A      2.7862 eV  444.99 nm  f=0.0000  <S**2>=0.000
     312 -> 313        0.70696

 The electronic state is 1-A.
 Alpha  occ. eigenvalues --  -46.89373 -46.87931 -19.24898 -19.23809 -19.20535
 Alpha  occ. eigenvalues --  -19.20127 -19.19039 -19.18868 -19.18768 -19.18279
 Alpha  occ. eigenvalues --  -14.42005 -14.41493 -14.41424 -14.41140 -14.39964
 Alpha  occ. eigenvalues --  -14.39810 -14.39739 -14.38654 -10.39251 -10.38219
 Alpha  occ. eigenvalues --  -10.36988 -10.35389 -10.35135 -10.34825 -10.31588
 Alpha  occ. eigenvalues --  -10.31259 -10.30807 -10.30770 -10.30743 -10.30630
 Alpha  occ. eigenvalues --  -10.30623 -10.30529 -10.30474 -10.30234 -10.30208
 Alpha  occ. eigenvalues --  -10.30180 -10.29973 -10.29610 -10.29600 -10.29477
 Alpha  occ. eigenvalues --  -10.29437 -10.29335 -10.29236 -10.29093 -10.28966
 Alpha  occ. eigenvalues --  -10.28511 -10.28418 -10.28391 -10.28179 -10.28072
 Alpha  occ. eigenvalues --  -10.27995 -10.27985 -10.27847 -10.27717 -10.27580
 Alpha  occ. eigenvalues --  -10.27542 -10.27537 -10.27535 -10.27498 -10.27480
 Alpha  occ. eigenvalues --  -10.27444 -10.27373 -10.27306 -10.27268 -10.27141
 Alpha  occ. eigenvalues --  -10.27131 -10.27016 -10.26760 -10.26509 -10.26485
 Alpha  occ. eigenvalues --  -10.26337 -10.26333 -10.26226 -10.26094 -10.26090
 Alpha  occ. eigenvalues --  -10.25987 -10.25846 -10.25564 -10.25553 -10.25477
 Alpha  occ. eigenvalues --  -10.25456 -10.25378 -10.25300 -10.25222 -10.25018
 Alpha  occ. eigenvalues --  -10.23729  -3.17874  -3.16613  -1.92775  -1.92347
 Alpha  occ. eigenvalues --   -1.92159  -1.91517  -1.91053  -1.90943  -1.16490
 Alpha  occ. eigenvalues --   -1.15305  -1.12618  -1.09460  -1.08970  -1.07695
 Alpha  occ. eigenvalues --   -1.07605  -1.06638  -1.05792  -1.05214  -1.04646
 Alpha  occ. eigenvalues --   -1.04183  -1.03422  -1.03330  -1.02663  -1.01236
 Alpha  occ. eigenvalues --   -0.92355  -0.91461  -0.89179  -0.88779  -0.88764
 Alpha  occ. eigenvalues --   -0.88421  -0.88113  -0.87703  -0.87533  -0.87425
 Alpha  occ. eigenvalues --   -0.86912  -0.86594  -0.86187  -0.85595  -0.84384
 Alpha  occ. eigenvalues --   -0.84098  -0.83112  -0.82806  -0.82392  -0.82072
 Alpha  occ. eigenvalues --   -0.81949  -0.81804  -0.80739  -0.80613  -0.80102
 Alpha  occ. eigenvalues --   -0.79860  -0.78830  -0.78614  -0.77288  -0.76852
 Alpha  occ. eigenvalues --   -0.76828  -0.76642  -0.75718  -0.75607  -0.75266
 Alpha  occ. eigenvalues --   -0.74408  -0.72762  -0.71928  -0.71669  -0.71324
 Alpha  occ. eigenvalues --   -0.69671  -0.69263  -0.68775  -0.68501  -0.68137
 Alpha  occ. eigenvalues --   -0.67590  -0.66934  -0.66779  -0.65456  -0.65389
 Alpha  occ. eigenvalues --   -0.65081  -0.64983  -0.64675  -0.63794  -0.63691
 Alpha  occ. eigenvalues --   -0.63618  -0.61811  -0.61109  -0.60821  -0.60507
 Alpha  occ. eigenvalues --   -0.59517  -0.59347  -0.59249  -0.58553  -0.58413
 Alpha  occ. eigenvalues --   -0.57926  -0.57638  -0.57485  -0.57368  -0.56644
 Alpha  occ. eigenvalues --   -0.56546  -0.56015  -0.55791  -0.55483  -0.55195
 Alpha  occ. eigenvalues --   -0.54633  -0.54387  -0.54082  -0.54055  -0.53813
 Alpha  occ. eigenvalues --   -0.53793  -0.53616  -0.53552  -0.53085  -0.52965
 Alpha  occ. eigenvalues --   -0.52880  -0.52381  -0.52289  -0.52078  -0.51749
 Alpha  occ. eigenvalues --   -0.51684  -0.51627  -0.51301  -0.51299  -0.51165
 Alpha  occ. eigenvalues --   -0.51013  -0.50705  -0.50664  -0.50468  -0.50344
 Alpha  occ. eigenvalues --   -0.50041  -0.49944  -0.49722  -0.49392  -0.49277
 Alpha  occ. eigenvalues --   -0.49175  -0.49091  -0.48925  -0.48871  -0.48774
 Alpha  occ. eigenvalues --   -0.48762  -0.48616  -0.48366  -0.48302  -0.47969
 Alpha  occ. eigenvalues --   -0.47910  -0.47910  -0.47510  -0.47400  -0.47252
 Alpha  occ. eigenvalues --   -0.47052  -0.46746  -0.46737  -0.46214  -0.46035
 Alpha  occ. eigenvalues --   -0.45935  -0.45763  -0.45586  -0.45459  -0.45442
 Alpha  occ. eigenvalues --   -0.45067  -0.45012  -0.44939  -0.44731  -0.44655
 Alpha  occ. eigenvalues --   -0.44504  -0.44383  -0.44333  -0.44072  -0.44034
 Alpha  occ. eigenvalues --   -0.43907  -0.43854  -0.43812  -0.43327  -0.43318
 Alpha  occ. eigenvalues --   -0.43266  -0.42988  -0.42970  -0.42934  -0.42736
 Alpha  occ. eigenvalues --   -0.42664  -0.42486  -0.42406  -0.42265  -0.42224
 Alpha  occ. eigenvalues --   -0.42083  -0.41955  -0.41423  -0.41367  -0.41364
 Alpha  occ. eigenvalues --   -0.41144  -0.40776  -0.40409  -0.40211  -0.40034
 Alpha  occ. eigenvalues --   -0.39744  -0.39348  -0.39069  -0.38952  -0.38629
 Alpha  occ. eigenvalues --   -0.38348  -0.38266  -0.38104  -0.38097  -0.37847
 Alpha  occ. eigenvalues --   -0.37457  -0.36612  -0.36509  -0.36106  -0.35927
 Alpha  occ. eigenvalues --   -0.35741  -0.35658  -0.34363  -0.34181  -0.34005
 Alpha  occ. eigenvalues --   -0.33728  -0.33033  -0.32489  -0.31938  -0.31533
 Alpha  occ. eigenvalues --   -0.31172  -0.30793  -0.30617  -0.30399  -0.30374
 Alpha  occ. eigenvalues --   -0.30345  -0.29888  -0.29485  -0.23842  -0.23384
 Alpha  occ. eigenvalues --   -0.21375  -0.20285
 Alpha virt. eigenvalues --   -0.08264  -0.07747  -0.01996  -0.01088  -0.00072
 Alpha virt. eigenvalues --    0.00557   0.02303   0.02402   0.02730   0.03395
 Alpha virt. eigenvalues --    0.04175   0.04658   0.05113   0.05712   0.05875

 Mulliken charges:
               1
     1  Mg   0.842262
     2  C   -0.020373
     3  C   -0.090041
     4  C   -0.079802
     5  C   -0.078451
     6  N   -0.250704
     7  C   -0.044361
     8  C   -0.012981
     9  C   -0.082201
    10  C   -0.014486
    11  C    0.091484
    12  C    0.015874
    13  C   -0.044530
    14  H    0.032567
    15  N   -0.411447
    16  C    0.201158
    17  C   -0.143919
    18  C   -0.034121
    19  C    0.153250
    20  C    0.122114
    21  C   -0.007251
    22  O   -0.242270
    23  C    0.080568
    24  N   -0.275369
    25  C    0.019607
    26  C   -0.035796
    27  C    0.002804
    28  C    0.012100
    29  C    0.060887
    30  C    0.002701
    31  C    0.023804
    32  N   -0.368208
    33  C    0.111890
    34  C   -0.177351
    35  C    0.032760
    36  C    0.112101
    37  C    0.110983
    38  C    0.072184
    39  O   -0.179483
    40  C   -0.071691
    41  C    0.225313
    42  O   -0.190068
    43  O   -0.375832
    44  C    0.183793
    45  H   -0.034707
    46  H   -0.006196
    47  H   -0.024084
    48  H    0.008866
    49  H    0.003390
    50  H    0.006451
    51  H    0.037364
    52  H    0.015286
    53  H    0.016427
    54  H    0.015026
    55  H    0.036445
    56  H    0.035695
    57  H    0.032425
    58  H    0.035288
    59  H    0.012218
    60  H    0.044438
    61  H    0.020128
    62  H    0.027582
    63  H    0.024443
    64  H    0.018636
    65  H    0.031879
    66  H    0.016245
    67  H    0.027299
    68  H    0.011322
    69  H   -0.005089
    70  H    0.019748
    71  H    0.018604
    72  H    0.014581
    73  H    0.037659
    74  H    0.005511
    75  H    0.037542
    76  H    0.062796
    77  H    0.050102
    78  H    0.033560
    79  H    0.033654
    80  Mg   0.824103
    81  C    0.010030
    82  C   -0.058427
    83  C   -0.077517
    84  C   -0.071212
    85  N   -0.187772
    86  C   -0.104858
    87  C   -0.021624
    88  C   -0.035955
    89  C   -0.028573
    90  C    0.088068
    91  C    0.049063
    92  C   -0.037898
    93  H    0.035496
    94  N   -0.382893
    95  C    0.143344
    96  C   -0.138039
    97  C   -0.053134
    98  C    0.096478
    99  C    0.105637
   100  C    0.029693
   101  O   -0.167254
   102  C    0.040794
   103  N   -0.248081
   104  C    0.043856
   105  C   -0.049694
   106  C   -0.064514
   107  C    0.033837
   108  C    0.074612
   109  C    0.034614
   110  C    0.005226
   111  N   -0.317532
   112  C    0.075670
   113  C   -0.206435
   114  C    0.001101
   115  C    0.122174
   116  C    0.136492
   117  C    0.060583
   118  O   -0.161350
   119  C   -0.025032
   120  C    0.186413
   121  O   -0.243329
   122  O   -0.299588
   123  C    0.194869
   124  H   -0.035365
   125  H   -0.013976
   126  H   -0.021827
   127  H    0.018082
   128  H   -0.009445
   129  H    0.017758
   130  H    0.020767
   131  H    0.014865
   132  H    0.007708
   133  H    0.024507
   134  H    0.015618
   135  H    0.014374
   136  H    0.021365
   137  H    0.041814
   138  H    0.018402
   139  H    0.065119
   140  H    0.023236
   141  H    0.024038
   142  H    0.019458
   143  H   -0.009086
   144  H    0.020137
   145  H    0.023982
   146  H    0.021486
   147  H    0.012506
   148  H    0.003102
   149  H    0.029130
   150  H    0.014581
   151  H    0.015613
   152  H    0.005576
   153  H    0.030460
   154  H    0.032203
   155  H    0.042647
   156  H    0.030012
   157  H    0.043069
   158  H    0.006643
 Sum of Mulliken charges =  -0.00000

 Dipole moment (field-independent basis, Debye):
    X=              5.7378    Y=             -1.0512    Z=              7.7763  Tot=              9.7210
 Quadrupole moment (field-independent basis, Debye-Ang):
   XX=           -421.5883   YY=           -512.2538   ZZ=           -501.7110
   XY=             27.3543   XZ=             -5.6727   YZ=             44.6001

 Normal termination of Gaussian 16 at Wed Sep  1 19:34:42 2021.
