 Gaussian 16, Revision A.03,
 Gaussian 16:  ES64L-G16RevA.03 25-Dec-2016

 ----------------------------------------------------------
 #p cam-b3lyp/Def2SVP td=(nstates=5) density=(transition=1)
 ----------------------------------------------------------

 --------------------------------
 TDDFT excited states in gaussian
 --------------------------------
 Symbolic Z-matrix:
 Charge =  0 Multiplicity = 1

                         Standard orientation:
 ---------------------------------------------------------------------
 Center     Atomic      Atomic             Coordinates (Angstroms)
 Number     Number       Type             X           Y           Z
 ---------------------------------------------------------------------
      1         12           0        9.174858    0.457747    0.072957
      2          6           0        7.068335   -2.310372    1.229450
      3          6           0       10.647219   -1.854028   -2.109651
      4          6           0       11.321105    2.766492   -0.758251
      5          6           0        7.468296    2.580485    2.157078
      6          7           0        9.037269   -1.829223   -0.234359
      7          6           0        8.020637   -2.756380    0.247035
      8          6           0        8.179694   -4.192426   -0.296737
      9          6           0        9.512284   -3.976774   -1.223128
     10          6           0        9.798940   -2.462467   -1.206833
     11          6           0       10.701356   -4.811036   -0.787899
     12          6           0        6.874885   -4.656430   -1.012068
     13          6           0        7.001837   -5.903672   -1.834111
     14          1           0        5.929988   -6.967864   -1.754713
     15          7           0       10.812580    0.481615   -1.249382
     16          6           0       11.264073   -0.558777   -2.069336
     17          6           0       12.388786   -0.094336   -2.879275
     18          6           0       12.611551    1.292934   -2.501397
     19          6           0       11.569654    1.607672   -1.455217
     20          6           0       13.107787   -0.940219   -3.993280
     21          6           0       13.639878    2.276449   -2.930619
     22          8           0       13.699260    3.439260   -2.553666
     23          6           0       14.618307    1.914010   -3.969697
     24          7           0        9.311296    2.363929    0.532173
     25          6           0       10.354828    3.113021    0.171337
     26          6           0       10.275267    4.554935    0.725299
     27          6           0        8.856656    4.583475    1.255176
     28          6           0        8.514438    3.049618    1.395870
     29          6           0       11.319110    4.846698    1.797118
     30          6           0        7.735463    5.306735    0.555001
     31          6           0        7.404515    4.762035   -0.818061
     32          7           0        7.669586    0.218562    1.492359
     33          6           0        7.004971    1.235786    2.200875
     34          6           0        5.970807    0.640536    3.010838
     35          6           0        5.966698   -0.705641    2.563232
     36          6           0        7.017761   -0.931781    1.654184
     37          6           0        4.992229    1.315796    3.926783
     38          6           0        5.188128   -1.971094    2.735188
     39          8           0        4.124178   -2.200433    3.349154
     40          6           0        5.917023   -3.020767    1.899230
     41          6           0        6.302562   -4.213622    2.776595
     42          8           0        7.094719   -4.281751    3.762356
     43          8           0        5.732224   -5.317667    2.215203
     44          6           0        6.051468   -6.607820    2.867465
     45          1           0       10.958964   -2.515339   -2.919582
     46          1           0       12.066512    3.534892   -0.973394
     47          1           0        6.899666    3.191048    2.861746
     48          1           0        8.280054   -4.819842    0.588865
     49          1           0        9.248485   -4.158906   -2.264944
     50          1           0       11.001663   -5.445959   -1.621932
     51          1           0       10.351338   -5.437150    0.032046
     52          1           0       11.502785   -4.305006   -0.250053
     53          1           0        6.504389   -3.776570   -1.539213
     54          1           0        6.113902   -4.842778   -0.254156
     55          1           0        7.875172   -6.529612   -1.652296
     56          1           0        6.962191   -5.640090   -2.890627
     57          1           0       12.924639   -0.390384   -4.916902
     58          1           0       12.705758   -1.947504   -4.101072
     59          1           0       14.163786   -0.959188   -3.723525
     60          1           0       15.045946    0.918962   -3.845070
     61          1           0       15.399598    2.664537   -3.854982
     62          1           0       14.016680    1.839534   -4.875056
     63          1           0       10.449447    5.227572   -0.114612
     64          1           0        8.796476    5.048010    2.239797
     65          1           0       11.704784    5.852926    1.637335
     66          1           0       12.150376    4.144739    1.740403
     67          1           0       10.844522    4.913054    2.776791
     68          1           0        7.973614    6.370756    0.554727
     69          1           0        6.787657    5.147699    1.069003
     70          1           0        7.291111    5.555452   -1.555885
     71          1           0        6.447889    4.239785   -0.844931
     72          1           0        8.157111    4.088264   -1.227806
     73          1           0        3.978712    1.011338    3.666801
     74          1           0        4.957518    2.402640    4.001656
     75          1           0        5.211881    0.964827    4.935302
     76          1           0        5.212592   -3.419659    1.168766
     77          1           0        6.826236   -7.124409    2.301301
     78          1           0        5.053651   -7.046500    2.861025
     79          1           0        6.298489   -6.491249    3.923467
     80         12           0       -8.413070    0.830795   -0.412028
     81          6           0      -10.879906   -1.526509   -0.717643
     82          6           0       -6.087748   -1.575467   -0.458344
     83          6           0       -6.124373    3.244261    0.135878
     84          6           0      -10.998464    3.323773    0.153719
     85          7           0       -8.531073   -1.379649   -0.302957
     86          6           0       -9.612686   -2.126530   -0.555626
     87          6           0       -9.215615   -3.687711   -0.659266
     88          6           0       -7.647734   -3.573501   -0.571594
     89          6           0       -7.359606   -2.069811   -0.388044
     90          6           0       -7.016465   -4.506125    0.480387
     91          6           0       -9.718404   -4.378451   -1.958648
     92          6           0       -9.104474   -5.762867   -2.347746
     93          1           0       -9.973693   -7.049984   -2.081142
     94          7           0       -6.368168    0.824187   -0.141298
     95          6           0       -5.584852   -0.223193   -0.294211
     96          6           0       -4.202318    0.205121   -0.144780
     97          6           0       -4.154574    1.602245    0.143384
     98          6           0       -5.588867    1.952362    0.048604
     99          6           0       -2.991944   -0.713537   -0.118110
    100          6           0       -2.979577    2.505594    0.503134
    101          8           0       -3.161360    3.612451    1.001984
    102          6           0       -1.597004    2.019104    0.242452
    103          7           0       -8.556161    2.979741    0.122670
    104          6           0       -7.471370    3.736282    0.239682
    105          6           0       -7.818542    5.229056    0.364572
    106          6           0       -9.329481    5.189742    0.150975
    107          6           0       -9.639502    3.739631    0.179210
    108          6           0       -7.371640    5.969990    1.633570
    109          6           0       -9.811747    6.037698   -0.998695
    110          6           0      -10.760726    7.232962   -0.628814
    111          7           0      -10.454110    0.930964   -0.351458
    112          6           0      -11.390500    2.007839   -0.198165
    113          6           0      -12.748358    1.552204   -0.399842
    114          6           0      -12.534306    0.163146   -0.620520
    115          6           0      -11.168034   -0.140555   -0.569106
    116          6           0      -14.031022    2.295039   -0.531271
    117          6           0      -13.278186   -0.988581   -1.064461
    118          8           0      -14.431351   -1.164124   -1.485471
    119          6           0      -12.334393   -2.164742   -1.036874
    120          6           0      -12.717244   -3.068658    0.155706
    121          8           0      -13.030503   -2.716097    1.303136
    122          8           0      -12.644384   -4.361896   -0.269468
    123          6           0      -13.009445   -5.437416    0.706203
    124          1           0       -5.233364   -2.244013   -0.583052
    125          1           0       -5.482090    4.042967    0.512709
    126          1           0      -11.712455    4.148183    0.197235
    127          1           0       -9.635617   -4.120909    0.247775
    128          1           0       -7.246901   -3.827326   -1.552897
    129          1           0       -6.130081   -4.943734    0.022412
    130          1           0       -7.675563   -5.335033    0.738690
    131          1           0       -6.751075   -3.953302    1.381610
    132          1           0       -9.362424   -3.744081   -2.770390
    133          1           0      -10.797963   -4.520686   -1.910754
    134          1           0       -8.247918   -5.921857   -1.691856
    135          1           0       -8.878281   -5.756246   -3.413442
    136          1           0       -3.279746   -1.754855   -0.262603
    137          1           0       -2.487616   -0.625011    0.843829
    138          1           0       -2.266552   -0.451712   -0.887360
    139          1           0       -1.612011    1.660410   -0.787111
    140          1           0       -1.125682    1.228197    0.825117
    141          1           0       -0.848161    2.804747    0.336992
    142          1           0       -7.349358    5.745918   -0.471882
    143          1           0       -9.789843    5.629536    1.035528
    144          1           0       -7.056303    6.947330    1.269074
    145          1           0       -6.605775    5.401424    2.160896
    146          1           0       -8.135670    6.037214    2.408000
    147          1           0      -10.435349    5.355014   -1.575023
    148          1           0       -9.006051    6.467758   -1.592979
    149          1           0      -10.946266    7.242496    0.445567
    150          1           0      -11.710772    7.057772   -1.134546
    151          1           0      -10.445087    8.211169   -0.991841
    152          1           0      -13.839590    3.365972   -0.593420
    153          1           0      -14.537869    2.156948    0.423093
    154          1           0      -14.493195    1.892508   -1.433796
    155          1           0      -12.499886   -2.660412   -1.993630
    156          1           0      -12.568436   -5.333422    1.697865
    157          1           0      -12.823953   -6.450134    0.349825
    158          1           0      -14.079892   -5.320762    0.874560
 ---------------------------------------------------------------------

 SCF Done:  E(RCAM-B3LYP) =  -4069.82291011     A.U. after   19 cycles

 Excitation energies and oscillator strengths:

 Excited State   1:      Singlet-A      1.6612 eV  746.37 nm  f=0.5298  <S**2>=0.000
     309 -> 315       -0.16227
     311 -> 313        0.67689
     312 -> 314        0.12842
     309 <- 315       -0.10335
 This state for optimization and/or second-order correction.
 Total Energy, E(TD-HF/TD-DFT) =  -4069.76186330
 Copying the excited state density for this state as the 1-particle RhoCI density.

 Excited State   2:      Singlet-A      1.7242 eV  719.09 nm  f=0.3069  <S**2>=0.000
     310 -> 316       -0.17346
     311 -> 313       -0.12805
     312 -> 314        0.67167
     310 <- 316       -0.10163

 Excited State   3:      Singlet-A      2.1717 eV  570.91 nm  f=0.1288  <S**2>=0.000
     309 -> 313        0.65259
     311 -> 315        0.25447

 Excited State   4:      Singlet-A      2.2699 eV  546.21 nm  f=0.1124  <S**2>=0.000
     310 -> 314        0.63876
     312 -> 316        0.28722

 Excited State   5:      Singlet-A      2.5946 eV  477.85 nm  f=0.0000  <S**2>=0.000
     312 -> 313        0.70691

 The electronic state is 1-A.
 Alpha  occ. eigenvalues --  -46.89036 -46.87944 -19.25975 -19.25502 -19.19841
 Alpha  occ. eigenvalues --  -19.19341 -19.19324 -19.18930 -19.18698 -19.17535
 Alpha  occ. eigenvalues --  -14.42686 -14.42347 -14.41921 -14.41578 -14.40143
 Alpha  occ. eigenvalues --  -14.39928 -14.39128 -14.39056 -10.40164 -10.39426
 Alpha  occ. eigenvalues --  -10.35894 -10.34901 -10.34880 -10.33202 -10.32165
 Alpha  occ. eigenvalues --  -10.32119 -10.32066 -10.31699 -10.31569 -10.31525
 Alpha  occ. eigenvalues --  -10.31279 -10.30881 -10.30818 -10.30785 -10.30656
 Alpha  occ. eigenvalues --  -10.30352 -10.30232 -10.30156 -10.29865 -10.29823
 Alpha  occ. eigenvalues --  -10.29443 -10.29238 -10.29183 -10.29167 -10.29072
 Alpha  occ. eigenvalues --  -10.29015 -10.28847 -10.28826 -10.28756 -10.28647
 Alpha  occ. eigenvalues --  -10.28438 -10.28405 -10.28240 -10.27963 -10.27916
 Alpha  occ. eigenvalues --  -10.27832 -10.27718 -10.27700 -10.27617 -10.27541
 Alpha  occ. eigenvalues --  -10.27361 -10.27341 -10.27183 -10.27120 -10.27068
 Alpha  occ. eigenvalues --  -10.26900 -10.26750 -10.26628 -10.26544 -10.26461
 Alpha  occ. eigenvalues --  -10.26345 -10.26269 -10.26148 -10.26116 -10.26099
 Alpha  occ. eigenvalues --  -10.26043 -10.26006 -10.25974 -10.25929 -10.25904
 Alpha  occ. eigenvalues --  -10.25766 -10.25617 -10.25541 -10.24901 -10.24724
 Alpha  occ. eigenvalues --  -10.24243  -3.17561  -3.16684  -1.92452  -1.92010
 Alpha  occ. eigenvalues --   -1.91874  -1.91589  -1.91150  -1.90986  -1.16215
 Alpha  occ. eigenvalues --   -1.15434  -1.10548  -1.10190  -1.08039  -1.07828
 Alpha  occ. eigenvalues --   -1.06410  -1.05971  -1.05584  -1.05229  -1.04229
 Alpha  occ. eigenvalues --   -1.03721  -1.03017  -1.02801  -1.02460  -1.00799
 Alpha  occ. eigenvalues --   -0.92513  -0.91122  -0.89852  -0.89794  -0.89043
 Alpha  occ. eigenvalues --   -0.88902  -0.88581  -0.88023  -0.87505  -0.87357
 Alpha  occ. eigenvalues --   -0.87182  -0.86996  -0.86853  -0.86073  -0.84960
 Alpha  occ. eigenvalues --   -0.84229  -0.84042  -0.83207  -0.83133  -0.82465
 Alpha  occ. eigenvalues --   -0.82140  -0.82014  -0.81620  -0.80972  -0.80267
 Alpha  occ. eigenvalues --   -0.79885  -0.78702  -0.78362  -0.77452  -0.77401
 Alpha  occ. eigenvalues --   -0.77013  -0.76592  -0.76160  -0.75959  -0.75670
 Alpha  occ. eigenvalues --   -0.75197  -0.72953  -0.72478  -0.72135  -0.71534
 Alpha  occ. eigenvalues --   -0.70466  -0.69638  -0.69319  -0.68956  -0.67839
 Alpha  occ. eigenvalues --   -0.67566  -0.67407  -0.67331  -0.65710  -0.65250
 Alpha  occ. eigenvalues --   -0.64851  -0.64743  -0.64523  -0.64321  -0.64009
 Alpha  occ. eigenvalues --   -0.63795  -0.62501  -0.62140  -0.60540  -0.60405
 Alpha  occ. eigenvalues --   -0.59513  -0.59345  -0.59279  -0.58728  -0.58517
 Alpha  occ. eigenvalues --   -0.58490  -0.57930  -0.57836  -0.57592  -0.57300
 Alpha  occ. eigenvalues --   -0.56465  -0.56194  -0.56139  -0.55668  -0.55480
 Alpha  occ. eigenvalues --   -0.55462  -0.55010  -0.55005  -0.54492  -0.54407
 Alpha  occ. eigenvalues --   -0.54059  -0.53630  -0.53609  -0.53256  -0.53233
 Alpha  occ. eigenvalues --   -0.52916  -0.52668  -0.52579  -0.52438  -0.52322
 Alpha  occ. eigenvalues --   -0.52023  -0.51537  -0.51343  -0.51046  -0.51024
 Alpha  occ. eigenvalues --   -0.50972  -0.50905  -0.50582  -0.50556  -0.50343
 Alpha  occ. eigenvalues --   -0.50295  -0.49990  -0.49824  -0.49690  -0.49633
 Alpha  occ. eigenvalues --   -0.49533  -0.49211  -0.49035  -0.48999  -0.48844
 Alpha  occ. eigenvalues --   -0.48828  -0.48732  -0.48637  -0.48397  -0.48272
 Alpha  occ. eigenvalues --   -0.48006  -0.47904  -0.47748  -0.47636  -0.47466
 Alpha  occ. eigenvalues --   -0.47231  -0.47153  -0.46939  -0.46708  -0.46651
 Alpha  occ. eigenvalues --   -0.46340  -0.46227  -0.46198  -0.45995  -0.45909
 Alpha  occ. eigenvalues --   -0.45833  -0.45618  -0.45121  -0.44830  -0.44712
 Alpha  occ. eigenvalues --   -0.44555  -0.44549  -0.44366  -0.44354  -0.44268
 Alpha  occ. eigenvalues --   -0.44166  -0.43933  -0.43880  -0.43718  -0.43674
 Alpha  occ. eigenvalues --   -0.43459  -0.43362  -0.42842  -0.42766  -0.42705
 Alpha  occ. eigenvalues --   -0.42607  -0.42391  -0.42047  -0.42029  -0.41935
 Alpha  occ. eigenvalues --   -0.41870  -0.41811  -0.41691  -0.41409  -0.41390
 Alpha  occ. eigenvalues --   -0.41127  -0.40960  -0.40696  -0.40628  -0.40290
 Alpha  occ. eigenvalues --   -0.40162  -0.39425  -0.39270  -0.39156  -0.39060
 Alpha  occ. eigenvalues --   -0.38950  -0.38134  -0.37713  -0.37524  -0.37315
 Alpha  occ. eigenvalues --   -0.36974  -0.36911  -0.36707  -0.36553  -0.36326
 Alpha  occ. eigenvalues --   -0.36083  -0.35819  -0.34500  -0.34297  -0.34143
 Alpha  occ. eigenvalues --   -0.33867  -0.33259  -0.33207  -0.31771  -0.31699
 Alpha  occ. eigenvalues --   -0.31435  -0.30952  -0.30625  -0.30511  -0.30415
 Alpha  occ. eigenvalues --   -0.29832  -0.29522  -0.29377  -0.24441  -0.23764
 Alpha  occ. eigenvalues --   -0.21668  -0.20953
 Alpha virt. eigenvalues --   -0.09481  -0.08394  -0.01845  -0.01618   0.00133
 Alpha virt. eigenvalues --    0.00746   0.01989   0.02025   0.02705   0.03160
 Alpha virt. eigenvalues --    0.04298   0.04962   0.05014   0.05526   0.05808

 Mulliken charges:
               1
     1  Mg  11.997033
     2  C    6.020897
     3  C    5.986143
     4  C    5.979152
     5  C    6.014710
     6  N    7.005107
     7  C    5.966982
     8  C    6.010725
     9  C    5.991625
    10  C    6.027042
    11  C    5.992481
    12  C    6.003198
    13  C    5.999983
    14  H    0.999630
    15  N    6.990848
    16  C    6.043382
    17  C    6.020848
    18  C    6.016876
    19  C    6.036512
    20  C    6.000012
    21  C    6.011591
    22  O    8.030280
    23  C    5.996187
    24  N    7.000947
    25  C    6.037382
    26  C    5.991922
    27  C    6.001541
    28  C    5.966480
    29  C    5.997800
    30  C    6.007869
    31  C    6.005852
    32  N    7.004427
    33  C    5.953501
    34  C    5.979415
    35  C    5.991708
    36  C    5.962375
    37  C    6.004859
    38  C    5.981343
    39  O    7.967491
    40  C    6.001649
    41  C    5.997142
    42  O    7.994551
    43  O    7.998205
    44  C    6.001561
    45  H    1.010924
    46  H    1.006047
    47  H    0.990357
    48  H    1.000058
    49  H    1.000315
    50  H    1.001742
    51  H    1.013943
    52  H    0.998159
    53  H    0.997398
    54  H    1.005703
    55  H    0.995091
    56  H    0.994521
    57  H    1.017039
    58  H    1.018943
    59  H    1.016625
    60  H    1.007013
    61  H    1.014852
    62  H    1.008135
    63  H    0.999327
    64  H    0.999801
    65  H    1.003267
    66  H    0.994937
    67  H    1.014012
    68  H    0.989416
    69  H    1.004496
    70  H    0.994095
    71  H    1.005783
    72  H    0.983965
    73  H    0.983118
    74  H    0.980378
    75  H    0.981711
    76  H    0.991314
    77  H    0.993318
    78  H    0.996949
    79  H    0.997982
    80  Mg  11.999308
    81  C    6.003577
    82  C    5.994677
    83  C    5.998321
    84  C    6.002366
    85  N    6.999840
    86  C    5.993803
    87  C    6.001466
    88  C    5.997938
    89  C    6.006793
    90  C    5.999745
    91  C    6.001084
    92  C    5.999993
    93  H    0.999327
    94  N    6.998836
    95  C    6.009008
    96  C    6.003283
    97  C    6.003771
    98  C    6.006221
    99  C    5.999003
   100  C    6.002642
   101  O    8.004476
   102  C    5.997732
   103  N    7.000463
   104  C    6.006394
   105  C    5.997677
   106  C    6.002603
   107  C    5.993439
   108  C    5.999593
   109  C    6.000211
   110  C    6.000237
   111  N    7.000798
   112  C    5.991671
   113  C    5.994779
   114  C    5.997937
   115  C    5.994498
   116  C    6.000454
   117  C    5.997039
   118  O    7.992609
   119  C    6.000435
   120  C    5.998854
   121  O    7.999505
   122  O    7.999584
   123  C    6.000444
   124  H    1.001177
   125  H    1.001818
   126  H    0.997161
   127  H    0.999842
   128  H    1.000007
   129  H    1.000106
   130  H    1.001558
   131  H    1.000243
   132  H    0.999104
   133  H    1.000744
   134  H    0.999056
   135  H    0.999188
   136  H    1.003909
   137  H    1.006167
   138  H    1.004487
   139  H    0.999637
   140  H    1.005937
   141  H    1.004743
   142  H    0.999875
   143  H    0.999792
   144  H    1.000634
   145  H    0.999512
   146  H    1.001834
   147  H    1.000934
   148  H    0.997390
   149  H    0.999595
   150  H    1.000233
   151  H    0.998464
   152  H    0.996267
   153  H    0.996241
   154  H    0.997040
   155  H    0.997706
   156  H    0.999185
   157  H    0.998589
   158  H    0.999387
 Sum of Mulliken charges = 624.00000

 Dipole moment (field-independent basis, Debye):
    X=             11.1316    Y=              1.1542    Z=             -6.5531  Tot=             12.9687
 Quadrupole moment (field-independent basis, Debye-Ang):
   XX=            122.7098   YY=             -3.5382   ZZ=             -0.3720
   XY=             12.9708   XZ=            -65.3294   YZ=             -0.6016

 Normal termination of Gaussian 16 at Wed Sep 22 04:27:26 2021.
