 Gaussian 16, Revision A.03,
 Gaussian 16:  ES64L-G16RevA.03 25-Dec-2016

 ----------------------------------------------------------
 #p cam-b3lyp/Def2SVP td=(nstates=5) density=(transition=1)
 ----------------------------------------------------------

 --------------------------------
 TDDFT excited states in gaussian
 --------------------------------
 Symbolic Z-matrix:
 Charge =  0 Multiplicity = 1

                         Standard orientation:
 ---------------------------------------------------------------------
 Center     Atomic      Atomic             Coordinates (Angstroms)
 Number     Number       Type             X           Y           Z
 ---------------------------------------------------------------------
      1         12           0        4.969279   -0.701703   -0.233182
      2          6           0        3.157149    2.197825   -1.292021
      3          6           0        7.833737    1.055755   -0.824187
      4          6           0        6.587657   -3.383965    0.259713
      5          6           0        2.068306   -2.544408   -0.811504
      6          7           0        5.321054    1.358642   -0.962482
      7          6           0        4.540674    2.388199   -1.275838
      8          6           0        5.328712    3.711223   -1.512429
      9          6           0        6.748280    3.093859   -1.894121
     10          6           0        6.644866    1.771589   -1.154640
     11          6           0        6.909219    2.811883   -3.384453
     12          6           0        5.415348    4.590875   -0.219975
     13          6           0        5.878319    6.033772   -0.441467
     14          1           0        5.302389    7.087899    0.379793
     15          7           0        6.877373   -0.987068    0.191780
     16          6           0        7.906680   -0.159270   -0.109160
     17          6           0        9.123655   -0.814267    0.416796
     18          6           0        8.742789   -2.177747    0.879352
     19          6           0        7.375095   -2.248070    0.432311
     20          6           0       10.457471   -0.136339    0.488199
     21          6           0        9.495655   -3.251542    1.599274
     22          8           0        9.049203   -4.445418    1.698860
     23          6           0       10.827536   -2.887023    2.115277
     24          7           0        4.484841   -2.717586   -0.476425
     25          6           0        5.347484   -3.680751   -0.134160
     26          6           0        4.687584   -5.027758   -0.127800
     27          6           0        3.124022   -4.754859   -0.302596
     28          6           0        3.170330   -3.216004   -0.470077
     29          6           0        5.158538   -6.008846   -1.210242
     30          6           0        2.181516   -5.351751    0.772495
     31          6           0        2.414578   -4.663222    2.098658
     32          7           0        2.910024   -0.258254   -0.756506
     33          6           0        1.876300   -1.181921   -0.968466
     34          6           0        0.695207   -0.415505   -1.406292
     35          6           0        1.131510    0.907626   -1.434751
     36          6           0        2.505826    0.961218   -1.065055
     37          6           0       -0.565370   -0.964213   -1.772760
     38          6           0        0.763149    2.285842   -1.715263
     39          8           0       -0.291613    2.865074   -1.978815
     40          6           0        2.092245    3.162191   -1.751934
     41          6           0        1.849423    4.391208   -0.918949
     42          8           0        1.691491    4.306073    0.316031
     43          8           0        2.076425    5.484535   -1.663024
     44          6           0        1.881870    6.738862   -0.887804
     45          1           0        8.792101    1.424277   -1.195229
     46          1           0        7.077349   -4.322715    0.526897
     47          1           0        1.104000   -3.042241   -0.928677
     48          1           0        4.955135    4.321939   -2.334555
     49          1           0        7.570704    3.687591   -1.495597
     50          1           0        5.972825    2.961795   -3.921681
     51          1           0        7.223906    1.770250   -3.451275
     52          1           0        7.726474    3.399283   -3.803776
     53          1           0        6.229968    4.228861    0.407241
     54          1           0        4.461268    4.595438    0.308265
     55          1           0        5.839784    6.307252   -1.496281
     56          1           0        6.935606    6.096586   -0.183784
     57          1           0       10.463912    0.795334   -0.076150
     58          1           0       11.168074   -0.775807   -0.035092
     59          1           0       10.786617    0.014525    1.516418
     60          1           0       11.457145   -2.560239    1.287416
     61          1           0       11.179114   -3.751413    2.677481
     62          1           0       10.725825   -2.028950    2.780345
     63          1           0        4.856991   -5.541750    0.817472
     64          1           0        2.741743   -5.153879   -1.242447
     65          1           0        5.535256   -6.951606   -0.812759
     66          1           0        5.915854   -5.507947   -1.812624
     67          1           0        4.409452   -6.253005   -1.963020
     68          1           0        2.395135   -6.410031    0.918631
     69          1           0        1.125512   -5.258532    0.518691
     70          1           0        3.268548   -5.202956    2.506401
     71          1           0        1.540861   -4.771450    2.742176
     72          1           0        2.720465   -3.626017    1.960366
     73          1           0       -1.320671   -0.328093   -1.311413
     74          1           0       -0.659751   -1.997235   -1.438753
     75          1           0       -0.514721   -0.879275   -2.858153
     76          1           0        2.277981    3.406352   -2.797405
     77          1           0        1.150485    7.339975   -1.428150
     78          1           0        2.873337    7.165385   -0.734586
     79          1           0        1.389277    6.636060    0.079731
     80         12           0       -4.956048   -0.585516    0.208314
     81          6           0       -2.856504    2.020258    0.964379
     82          6           0       -7.518177    1.665231   -0.148130
     83          6           0       -7.118450   -3.216570   -0.447219
     84          6           0       -2.449633   -2.842281    1.011596
     85          7           0       -5.205921    1.632864    0.434847
     86          6           0       -4.146229    2.463063    0.665603
     87          6           0       -4.560311    3.854468    0.648243
     88          6           0       -6.074121    3.825784    0.508317
     89          6           0       -6.338585    2.273909    0.276990
     90          6           0       -6.950204    4.415561    1.667015
     91          6           0       -3.835023    4.661092   -0.482175
     92          6           0       -3.525062    6.170660   -0.193907
     93          1           0       -4.469562    6.911416    0.772961
     94          7           0       -7.018394   -0.709248   -0.348811
     95          6           0       -7.884759    0.365615   -0.451285
     96          6           0       -9.221331   -0.133476   -0.833338
     97          6           0       -9.118763   -1.587879   -0.933282
     98          6           0       -7.718811   -1.901808   -0.598462
     99          6           0      -10.448196    0.742335   -1.028462
    100          6           0      -10.175772   -2.555391   -1.412302
    101          8           0       -9.889857   -3.761628   -1.510731
    102          6           0      -11.570871   -2.183791   -1.750932
    103          7           0       -4.844387   -2.731178    0.343151
    104          6           0       -5.834801   -3.546470   -0.030389
    105          6           0       -5.364043   -5.010402   -0.033927
    106          6           0       -3.757454   -4.921397    0.193402
    107          6           0       -3.662346   -3.377282    0.456901
    108          6           0       -6.129538   -5.856266    1.029794
    109          6           0       -2.885954   -5.326786   -1.026827
    110          6           0       -2.072465   -6.619491   -0.863930
    111          7           0       -3.038798   -0.491059    0.929082
    112          6           0       -2.119934   -1.498837    1.230913
    113          6           0       -0.845509   -0.904806    1.692119
    114          6           0       -1.141252    0.476003    1.604243
    115          6           0       -2.473153    0.670729    1.150191
    116          6           0        0.383406   -1.578256    2.060545
    117          6           0       -0.534832    1.818443    1.719393
    118          8           0        0.586033    2.169540    1.976559
    119          6           0       -1.646814    2.863009    1.347832
    120          6           0       -1.763813    3.829772    2.451213
    121          8           0       -2.273363    3.489419    3.531049
    122          8           0       -1.408837    5.105593    2.135870
    123          6           0       -1.682329    6.167763    3.098757
    124          1           0       -8.311648    2.407812   -0.255118
    125          1           0       -7.823436   -4.032596   -0.620534
    126          1           0       -1.656180   -3.583170    1.128935
    127          1           0       -4.298783    4.292394    1.612148
    128          1           0       -6.392103    4.240870   -0.448787
    129          1           0       -6.504038    4.869961    2.552234
    130          1           0       -7.613685    3.625671    2.018253
    131          1           0       -7.678031    5.153416    1.328567
    132          1           0       -4.375420    4.540939   -1.421206
    133          1           0       -2.938628    4.117437   -0.779939
    134          1           0       -3.501469    6.731456   -1.128707
    135          1           0       -2.579504    6.317607    0.327200
    136          1           0      -10.228568    1.808660   -0.988105
    137          1           0      -11.181600    0.571541   -0.239894
    138          1           0      -10.811709    0.653003   -2.052015
    139          1           0      -12.040740   -3.085340   -2.142881
    140          1           0      -11.642111   -1.375102   -2.479465
    141          1           0      -12.058900   -1.766706   -0.869875
    142          1           0       -5.481208   -5.375703   -1.054268
    143          1           0       -3.432780   -5.448628    1.090393
    144          1           0       -6.533203   -6.788717    0.634992
    145          1           0       -6.973870   -5.297832    1.434889
    146          1           0       -5.398767   -5.998902    1.826219
    147          1           0       -2.166185   -4.561616   -1.315187
    148          1           0       -3.484937   -5.455639   -1.928602
    149          1           0       -2.583262   -7.283713   -0.166702
    150          1           0       -1.104997   -6.354983   -0.438314
    151          1           0       -1.898784   -7.005154   -1.867675
    152          1           0        1.251523   -0.920238    2.028970
    153          1           0        0.601664   -2.447214    1.440068
    154          1           0        0.334383   -1.790182    3.128720
    155          1           0       -1.228166    3.291545    0.436599
    156          1           0       -1.108510    6.094045    4.022956
    157          1           0       -2.752577    6.262888    3.281876
    158          1           0       -1.369699    7.124580    2.680881
 ---------------------------------------------------------------------

 SCF Done:  E(RCAM-B3LYP) =  -4069.85511007     A.U. after   18 cycles

 Excitation energies and oscillator strengths:

 Excited State   1:      Singlet-A      1.6312 eV  760.06 nm  f=0.8661  <S**2>=0.000
     309 -> 315        0.14131
     311 -> 313        0.59673
     312 -> 313       -0.12864
     312 -> 314        0.30915
 This state for optimization and/or second-order correction.
 Total Energy, E(TD-HF/TD-DFT) =  -4069.79516342
 Copying the excited state density for this state as the 1-particle RhoCI density.

 Excited State   2:      Singlet-A      1.7456 eV  710.27 nm  f=0.0857  <S**2>=0.000
     310 -> 316       -0.16710
     311 -> 313       -0.32509
     312 -> 314        0.59386

 Excited State   3:      Singlet-A      2.0892 eV  593.45 nm  f=0.0011  <S**2>=0.000
     312 -> 313        0.67869
     312 -> 314        0.11949

 Excited State   4:      Singlet-A      2.1748 eV  570.10 nm  f=0.0596  <S**2>=0.000
     309 -> 313        0.62834
     311 -> 315       -0.26129

 Excited State   5:      Singlet-A      2.2473 eV  551.70 nm  f=0.0945  <S**2>=0.000
     310 -> 314        0.60480
     312 -> 316        0.29902

 The electronic state is 1-A.
 Alpha  occ. eigenvalues --  -46.88284 -46.87700 -19.26092 -19.24856 -19.18762
 Alpha  occ. eigenvalues --  -19.18650 -19.18631 -19.18166 -19.17913 -19.17729
 Alpha  occ. eigenvalues --  -14.42352 -14.41414 -14.41288 -14.41092 -14.39335
 Alpha  occ. eigenvalues --  -14.38927 -14.38642 -14.38510 -10.38717 -10.38391
 Alpha  occ. eigenvalues --  -10.35395 -10.34720 -10.34516 -10.33483 -10.31612
 Alpha  occ. eigenvalues --  -10.31517 -10.31342 -10.30805 -10.30522 -10.30492
 Alpha  occ. eigenvalues --  -10.30466 -10.30200 -10.30063 -10.29963 -10.29903
 Alpha  occ. eigenvalues --  -10.29614 -10.29604 -10.29590 -10.29411 -10.29365
 Alpha  occ. eigenvalues --  -10.29147 -10.28626 -10.28617 -10.28412 -10.28399
 Alpha  occ. eigenvalues --  -10.28270 -10.28025 -10.27945 -10.27747 -10.27660
 Alpha  occ. eigenvalues --  -10.27658 -10.27646 -10.27594 -10.27536 -10.27526
 Alpha  occ. eigenvalues --  -10.27494 -10.27422 -10.27294 -10.27147 -10.27074
 Alpha  occ. eigenvalues --  -10.26982 -10.26978 -10.26921 -10.26514 -10.26496
 Alpha  occ. eigenvalues --  -10.26441 -10.26371 -10.26347 -10.26294 -10.26181
 Alpha  occ. eigenvalues --  -10.26175 -10.26013 -10.26002 -10.25927 -10.25724
 Alpha  occ. eigenvalues --  -10.25462 -10.25460 -10.25457 -10.25450 -10.25434
 Alpha  occ. eigenvalues --  -10.25244 -10.25220 -10.24864 -10.24744 -10.24733
 Alpha  occ. eigenvalues --  -10.24486  -3.16713  -3.16445  -1.91634  -1.91325
 Alpha  occ. eigenvalues --   -1.91152  -1.91020  -1.90913  -1.90756  -1.16421
 Alpha  occ. eigenvalues --   -1.15301  -1.09542  -1.09064  -1.08475  -1.07163
 Alpha  occ. eigenvalues --   -1.06302  -1.06003  -1.04493  -1.04418  -1.03712
 Alpha  occ. eigenvalues --   -1.03496  -1.03171  -1.02810  -1.02340  -1.00391
 Alpha  occ. eigenvalues --   -0.91915  -0.91477  -0.89581  -0.89084  -0.88317
 Alpha  occ. eigenvalues --   -0.88223  -0.87974  -0.87736  -0.87619  -0.87223
 Alpha  occ. eigenvalues --   -0.87187  -0.86531  -0.86148  -0.85740  -0.84896
 Alpha  occ. eigenvalues --   -0.84000  -0.83146  -0.83127  -0.82940  -0.82578
 Alpha  occ. eigenvalues --   -0.81666  -0.81503  -0.81362  -0.80531  -0.80436
 Alpha  occ. eigenvalues --   -0.79880  -0.78724  -0.77859  -0.77186  -0.76868
 Alpha  occ. eigenvalues --   -0.76767  -0.76741  -0.75857  -0.75555  -0.74896
 Alpha  occ. eigenvalues --   -0.74378  -0.72698  -0.71956  -0.71626  -0.70882
 Alpha  occ. eigenvalues --   -0.70006  -0.68803  -0.68452  -0.68125  -0.67607
 Alpha  occ. eigenvalues --   -0.67198  -0.67116  -0.66317  -0.65209  -0.65134
 Alpha  occ. eigenvalues --   -0.65035  -0.64813  -0.64579  -0.64317  -0.64286
 Alpha  occ. eigenvalues --   -0.63651  -0.62219  -0.61868  -0.60415  -0.59704
 Alpha  occ. eigenvalues --   -0.59157  -0.58997  -0.58930  -0.58480  -0.58383
 Alpha  occ. eigenvalues --   -0.57775  -0.57606  -0.57445  -0.57266  -0.56627
 Alpha  occ. eigenvalues --   -0.56231  -0.55879  -0.55537  -0.55425  -0.55338
 Alpha  occ. eigenvalues --   -0.55015  -0.54787  -0.54481  -0.53802  -0.53767
 Alpha  occ. eigenvalues --   -0.53319  -0.53205  -0.53139  -0.53006  -0.52830
 Alpha  occ. eigenvalues --   -0.52773  -0.52605  -0.52507  -0.52278  -0.51957
 Alpha  occ. eigenvalues --   -0.51830  -0.51637  -0.51549  -0.51464  -0.51233
 Alpha  occ. eigenvalues --   -0.50778  -0.50527  -0.50309  -0.50070  -0.49945
 Alpha  occ. eigenvalues --   -0.49875  -0.49769  -0.49518  -0.49444  -0.49248
 Alpha  occ. eigenvalues --   -0.49125  -0.48930  -0.48669  -0.48609  -0.48532
 Alpha  occ. eigenvalues --   -0.48418  -0.48166  -0.47984  -0.47675  -0.47668
 Alpha  occ. eigenvalues --   -0.47568  -0.47252  -0.47174  -0.46924  -0.46848
 Alpha  occ. eigenvalues --   -0.46635  -0.46552  -0.46393  -0.46240  -0.46090
 Alpha  occ. eigenvalues --   -0.45905  -0.45717  -0.45678  -0.45269  -0.45171
 Alpha  occ. eigenvalues --   -0.45063  -0.44768  -0.44532  -0.44485  -0.44305
 Alpha  occ. eigenvalues --   -0.44123  -0.44104  -0.44031  -0.43963  -0.43902
 Alpha  occ. eigenvalues --   -0.43708  -0.43416  -0.43345  -0.43233  -0.43142
 Alpha  occ. eigenvalues --   -0.42995  -0.42843  -0.42620  -0.42555  -0.42489
 Alpha  occ. eigenvalues --   -0.42071  -0.42018  -0.41878  -0.41697  -0.41480
 Alpha  occ. eigenvalues --   -0.41442  -0.41200  -0.41101  -0.40861  -0.40819
 Alpha  occ. eigenvalues --   -0.40758  -0.40586  -0.40531  -0.40197  -0.40167
 Alpha  occ. eigenvalues --   -0.40093  -0.39778  -0.39552  -0.39320  -0.39232
 Alpha  occ. eigenvalues --   -0.38476  -0.37851  -0.37634  -0.37286  -0.37154
 Alpha  occ. eigenvalues --   -0.36804  -0.36571  -0.36323  -0.36068  -0.35919
 Alpha  occ. eigenvalues --   -0.35716  -0.35351  -0.34207  -0.33476  -0.33415
 Alpha  occ. eigenvalues --   -0.33020  -0.32875  -0.32460  -0.31287  -0.30986
 Alpha  occ. eigenvalues --   -0.30618  -0.30389  -0.30248  -0.29744  -0.29362
 Alpha  occ. eigenvalues --   -0.29220  -0.29027  -0.28763  -0.23990  -0.23219
 Alpha  occ. eigenvalues --   -0.21060  -0.20235
 Alpha virt. eigenvalues --   -0.08764  -0.07662  -0.01716  -0.01169  -0.00055
 Alpha virt. eigenvalues --    0.01261   0.01984   0.03313   0.03414   0.03800
 Alpha virt. eigenvalues --    0.04772   0.05268   0.05595   0.05818   0.06022

 Mulliken charges:
               1
     1  Mg  11.999826
     2  C    5.983227
     3  C    6.014087
     4  C    6.015000
     5  C    5.982359
     6  N    6.992542
     7  C    6.029534
     8  C    5.992803
     9  C    6.008000
    10  C    5.974428
    11  C    6.001563
    12  C    5.996582
    13  C    5.999923
    14  H    0.997870
    15  N    7.007074
    16  C    5.961414
    17  C    5.974320
    18  C    5.983972
    19  C    5.975347
    20  C    6.007014
    21  C    5.987141
    22  O    7.971727
    23  C    6.005252
    24  N    7.000979
    25  C    5.972507
    26  C    6.011917
    27  C    5.987970
    28  C    6.030594
    29  C    6.000582
    30  C    5.997075
    31  C    5.999893
    32  N    6.993382
    33  C    6.049312
    34  C    6.027966
    35  C    6.009078
    36  C    6.030328
    37  C    5.997572
    38  C    6.015783
    39  O    8.025312
    40  C    6.001186
    41  C    6.001548
    42  O    8.006508
    43  O    8.000749
    44  C    5.999249
    45  H    0.990979
    46  H    0.993049
    47  H    1.009103
    48  H    0.998116
    49  H    0.998642
    50  H    0.984159
    51  H    1.003853
    52  H    0.994994
    53  H    1.012632
    54  H    0.995348
    55  H    0.999847
    56  H    1.005372
    57  H    0.980035
    58  H    0.979238
    59  H    0.978549
    60  H    0.994667
    61  H    0.984906
    62  H    0.993182
    63  H    0.999177
    64  H    1.002126
    65  H    0.997848
    66  H    1.003896
    67  H    0.989083
    68  H    1.005948
    69  H    0.998007
    70  H    1.008377
    71  H    1.001119
    72  H    1.000178
    73  H    1.017593
    74  H    1.016271
    75  H    1.011704
    76  H    1.004428
    77  H    1.000457
    78  H    1.004575
    79  H    1.001421
    80  Mg  11.999546
    81  C    6.009281
    82  C    5.998609
    83  C    5.985333
    84  C    5.999977
    85  N    7.005461
    86  C    5.983589
    87  C    6.006606
    88  C    5.997740
    89  C    6.012971
    90  C    5.998483
    91  C    6.003089
    92  C    5.998954
    93  H    1.000819
    94  N    6.994640
    95  C    6.018053
    96  C    6.013854
    97  C    6.006499
    98  C    6.020445
    99  C    5.997011
   100  C    6.006082
   101  O    8.015018
   102  C    5.997451
   103  N    6.993400
   104  C    6.019182
   105  C    5.994440
   106  C    6.006175
   107  C    5.985386
   108  C    5.997787
   109  C    6.003379
   110  C    5.999789
   111  N    7.004347
   112  C    5.980491
   113  C    5.972694
   114  C    5.996371
   115  C    5.982471
   116  C    5.997215
   117  C    5.985372
   118  O    7.987999
   119  C    6.000549
   120  C    6.000631
   121  O    8.001349
   122  O    7.998531
   123  C    5.999682
   124  H    1.008902
   125  H    1.003382
   126  H    0.995155
   127  H    1.000912
   128  H    1.001100
   129  H    1.007820
   130  H    0.998924
   131  H    1.003618
   132  H    0.995949
   133  H    0.996948
   134  H    1.000312
   135  H    1.001905
   136  H    1.009649
   137  H    1.011977
   138  H    1.011045
   139  H    1.008753
   140  H    1.003614
   141  H    1.004269
   142  H    1.001169
   143  H    1.001631
   144  H    1.003014
   145  H    0.998025
   146  H    1.006553
   147  H    0.995423
   148  H    0.995427
   149  H    0.999880
   150  H    1.001672
   151  H    0.999676
   152  H    0.993017
   153  H    0.991166
   154  H    0.999310
   155  H    0.992859
   156  H    1.002312
   157  H    0.998367
   158  H    1.000141
 Sum of Mulliken charges = 624.00000

 Dipole moment (field-independent basis, Debye):
    X=            -16.3708    Y=              2.0104    Z=             -2.8227  Tot=             16.7336
 Quadrupole moment (field-independent basis, Debye-Ang):
   XX=            -39.3368   YY=              0.9549   ZZ=             -0.0772
   XY=             19.5927   XZ=             -0.9596   YZ=              3.0355

 Normal termination of Gaussian 16 at Wed Sep 22 12:07:09 2021.
