 Gaussian 16, Revision A.03,
 Gaussian 16:  ES64L-G16RevA.03 25-Dec-2016

 ----------------------------------------------------------
 #p cam-b3lyp/Def2SVP td=(nstates=5) density=(transition=1)
 ----------------------------------------------------------

 --------------------------------
 TDDFT excited states in gaussian
 --------------------------------
 Symbolic Z-matrix:
 Charge =  0 Multiplicity = 1

                         Standard orientation:
 ---------------------------------------------------------------------
 Center     Atomic      Atomic             Coordinates (Angstroms)
 Number     Number       Type             X           Y           Z
 ---------------------------------------------------------------------
      1         12           0       25.791271    0.398428   -0.274627
      2          6           0       22.888496   -1.265647    0.236719
      3          6           0       27.561329   -2.284412    1.042191
      4          6           0       28.694020    2.065648   -0.780486
      5          6           0       24.012205    3.244220   -1.122822
      6          7           0       25.241501   -1.516202    0.407647
      7          6           0       23.993269   -2.019841    0.579849
      8          6           0       24.007419   -3.483016    0.938067
      9          6           0       25.478189   -3.711328    1.455966
     10          6           0       26.154367   -2.415108    0.900669
     11          6           0       25.750866   -4.008674    2.989587
     12          6           0       23.725935   -4.405837   -0.331943
     13          6           0       23.151145   -5.799252    0.059014
     14          1           0       23.451152   -6.448806    1.420345
     15          7           0       27.880882    0.015819    0.144318
     16          6           0       28.370993   -1.198149    0.693195
     17          6           0       29.798861   -1.138361    0.782152
     18          6           0       30.170219    0.152809    0.262609
     19          6           0       28.868363    0.780954   -0.162257
     20          6           0       30.668231   -2.258474    1.235222
     21          6           0       31.554890    0.774133    0.117606
     22          8           0       31.796435    1.963476   -0.242812
     23          6           0       32.782844   -0.059702    0.441720
     24          7           0       26.291210    2.377682   -0.795884
     25          6           0       27.579881    2.794289   -1.133431
     26          6           0       27.642990    4.137969   -1.915615
     27          6           0       26.044182    4.435311   -2.030422
     28          6           0       25.391111    3.307478   -1.318952
     29          6           0       28.422414    5.165138   -1.084433
     30          6           0       25.554533    4.653345   -3.431718
     31          6           0       24.843432    5.962705   -3.621116
     32          7           0       23.932799    1.008973   -0.335464
     33          6           0       23.293444    2.180210   -0.722374
     34          6           0       21.889619    2.027862   -0.617441
     35          6           0       21.634500    0.695002   -0.196667
     36          6           0       22.897196    0.068471   -0.136703
     37          6           0       20.819170    3.005206   -0.918859
     38          6           0       20.613429   -0.228344    0.247493
     39          8           0       19.413098   -0.162555    0.427321
     40          6           0       21.445188   -1.579001    0.472063
     41          6           0       20.995306   -2.327428    1.674834
     42          8           0       20.737157   -1.863476    2.756002
     43          8           0       20.848765   -3.643656    1.457402
     44          6           0       20.412440   -4.420784    2.652269
     45          1           0       27.998648   -3.097856    1.625087
     46          1           0       29.623740    2.637369   -0.812754
     47          1           0       23.378083    4.057132   -1.482502
     48          1           0       23.382975   -3.706006    1.803031
     49          1           0       25.920840   -4.521577    0.877498
     50          1           0       24.780531   -4.112682    3.475251
     51          1           0       26.350041   -3.289253    3.545477
     52          1           0       26.333658   -4.929258    3.026193
     53          1           0       24.689124   -4.461478   -0.839466
     54          1           0       23.007161   -3.878413   -0.959189
     55          1           0       23.525983   -6.434695   -0.743572
     56          1           0       22.078192   -5.744931   -0.123259
     57          1           0       30.894998   -3.016571    0.485512
     58          1           0       30.159014   -2.684606    2.098726
     59          1           0       31.579027   -1.921731    1.729464
     60          1           0       32.909353    0.005321    1.522292
     61          1           0       33.607131    0.456013   -0.050303
     62          1           0       32.695986   -1.108482    0.157240
     63          1           0       28.212036    3.930289   -2.821870
     64          1           0       25.826149    5.355517   -1.487355
     65          1           0       28.670699    4.864550   -0.066327
     66          1           0       27.917195    6.128371   -1.151332
     67          1           0       29.396726    5.255062   -1.565647
     68          1           0       24.817511    3.915788   -3.749652
     69          1           0       26.327545    4.596398   -4.198184
     70          1           0       25.194165    6.518630   -4.490149
     71          1           0       24.974648    6.614410   -2.757716
     72          1           0       23.787236    5.691797   -3.625945
     73          1           0       21.068016    4.054132   -0.755102
     74          1           0       20.118230    2.864457   -0.095570
     75          1           0       20.436532    2.840124   -1.926109
     76          1           0       21.062489   -2.107490   -0.401542
     77          1           0       19.345844   -4.304927    2.849936
     78          1           0       21.058437   -4.243473    3.512287
     79          1           0       20.554659   -5.480058    2.436833
     80         12           0      -26.117680   -0.292269    0.362629
     81          6           0      -22.814563   -1.345255   -0.277067
     82          6           0      -24.899621    1.511937    2.983381
     83          6           0      -29.135568    1.305302    0.509487
     84          6           0      -26.981202   -1.849627   -2.724275
     85          7           0      -24.025135    0.158365    1.175036
     86          6           0      -22.846441   -0.469696    0.891011
     87          6           0      -21.668715    0.110142    1.693278
     88          6           0      -22.530626    0.698970    2.915127
     89          6           0      -23.915790    0.796976    2.325798
     90          6           0      -22.527724   -0.151944    4.213382
     91          6           0      -20.860955    1.264560    0.946137
     92          6           0      -19.418822    1.532001    1.348422
     93          1           0      -18.996476    2.820379    2.086143
     94          7           0      -27.012621    1.220373    1.601413
     95          6           0      -26.354730    1.704321    2.694662
     96          6           0      -27.208110    2.458818    3.501504
     97          6           0      -28.489315    2.412370    2.833270
     98          6           0      -28.280409    1.655236    1.566756
     99          6           0      -26.810327    3.130654    4.810249
    100          6           0      -29.725596    3.074624    3.398156
    101          8           0      -29.655807    3.686207    4.495338
    102          6           0      -31.149775    2.957106    2.749599
    103          7           0      -27.749173   -0.316762   -0.928569
    104          6           0      -28.924741    0.420497   -0.621479
    105          6           0      -30.061346   -0.041910   -1.490161
    106          6           0      -29.372712   -0.737049   -2.684659
    107          6           0      -27.975964   -1.071309   -2.084481
    108          6           0      -31.106661   -1.031308   -0.927315
    109          6           0      -29.207230    0.248231   -3.958207
    110          6           0      -30.378192    0.397904   -4.917733
    111          7           0      -25.120235   -1.534150   -1.085611
    112          6           0      -25.598019   -2.090423   -2.262685
    113          6           0      -24.600154   -2.744025   -2.960852
    114          6           0      -23.449129   -2.531291   -2.182971
    115          6           0      -23.822280   -1.766640   -1.064785
    116          6           0      -24.789004   -3.483262   -4.247848
    117          6           0      -22.130317   -2.865515   -2.050860
    118          8           0      -21.451266   -3.643961   -2.690945
    119          6           0      -21.616247   -1.903040   -0.959625
    120          6           0      -20.775406   -0.901931   -1.694165
    121          8           0      -21.176066   -0.217682   -2.583743
    122          8           0      -19.457274   -0.951079   -1.237051
    123          6           0      -18.585695   -0.141732   -2.015691
    124          1           0      -24.596076    1.933693    3.944066
    125          1           0      -30.174801    1.624053    0.617918
    126          1           0      -27.351253   -2.415754   -3.581345
    127          1           0      -21.041073   -0.665074    2.131559
    128          1           0      -22.075276    1.653326    3.178169
    129          1           0      -21.775809    0.351768    4.821485
    130          1           0      -22.197036   -1.175340    4.036569
    131          1           0      -23.489075   -0.106590    4.725354
    132          1           0      -21.346065    2.228340    1.101013
    133          1           0      -20.958791    1.065600   -0.121298
    134          1           0      -18.870842    1.474128    0.406841
    135          1           0      -19.091703    0.684384    1.950404
    136          1           0      -27.524183    3.175641    5.633421
    137          1           0      -26.518163    4.097041    4.400016
    138          1           0      -25.999490    2.574775    5.281087
    139          1           0      -31.463715    1.913647    2.751911
    140          1           0      -30.985205    3.376014    1.757052
    141          1           0      -31.920414    3.609417    3.160121
    142          1           0      -30.546955    0.859939   -1.861511
    143          1           0      -29.904318   -1.633256   -3.004725
    144          1           0      -31.096218   -2.023173   -1.378855
    145          1           0      -32.041313   -0.525392   -0.684403
    146          1           0      -30.742641   -1.245364    0.077431
    147          1           0      -28.354229   -0.223390   -4.445709
    148          1           0      -28.931599    1.253010   -3.637420
    149          1           0      -30.600992    1.456786   -5.046192
    150          1           0      -31.250506   -0.106166   -4.500775
    151          1           0      -30.131192    0.016416   -5.908808
    152          1           0      -24.008906   -3.120955   -4.916759
    153          1           0      -25.734552   -3.243690   -4.735878
    154          1           0      -24.671768   -4.561594   -4.138979
    155          1           0      -21.003916   -2.478053   -0.265850
    156          1           0      -18.142199   -0.741653   -2.809895
    157          1           0      -17.692560    0.177691   -1.477334
    158          1           0      -19.096997    0.709035   -2.462854
 ---------------------------------------------------------------------

 SCF Done:  E(RCAM-B3LYP) =  -4069.78809257     A.U. after   17 cycles

 Excitation energies and oscillator strengths:

 Excited State   1:      Singlet-A      1.6462 eV  753.17 nm  f=0.3945  <S**2>=0.000
     310 -> 316       -0.17001
     312 -> 314        0.68912
     310 <- 316       -0.10749
 This state for optimization and/or second-order correction.
 Total Energy, E(TD-HF/TD-DFT) =  -4069.72759681
 Copying the excited state density for this state as the 1-particle RhoCI density.

 Excited State   2:      Singlet-A      1.7067 eV  726.47 nm  f=0.4003  <S**2>=0.000
     309 -> 315        0.18535
     311 -> 313        0.68241
     309 <- 315        0.10819

 Excited State   3:      Singlet-A      2.1434 eV  578.46 nm  f=0.1304  <S**2>=0.000
     309 -> 313        0.65034
     311 -> 315       -0.26013

 Excited State   4:      Singlet-A      2.2270 eV  556.73 nm  f=0.1132  <S**2>=0.000
     310 -> 314        0.63824
     312 -> 316        0.29159

 Excited State   5:      Singlet-A      2.9313 eV  422.96 nm  f=0.0000  <S**2>=0.000
     312 -> 313        0.70710

 The electronic state is 1-A.
 Alpha  occ. eigenvalues --  -46.90314 -46.87143 -19.25390 -19.25162 -19.20921
 Alpha  occ. eigenvalues --  -19.19218 -19.18755 -19.18489 -19.18094 -19.17885
 Alpha  occ. eigenvalues --  -14.43177 -14.42848 -14.42670 -14.41679 -14.39821
 Alpha  occ. eigenvalues --  -14.39519 -14.39206 -14.38752 -10.39697 -10.38586
 Alpha  occ. eigenvalues --  -10.35219 -10.35141 -10.35026 -10.33356 -10.32402
 Alpha  occ. eigenvalues --  -10.32326 -10.32038 -10.31636 -10.31349 -10.30983
 Alpha  occ. eigenvalues --  -10.30946 -10.30941 -10.30723 -10.30715 -10.30476
 Alpha  occ. eigenvalues --  -10.30227 -10.30107 -10.29948 -10.29848 -10.29338
 Alpha  occ. eigenvalues --  -10.29232 -10.29092 -10.28942 -10.28848 -10.28738
 Alpha  occ. eigenvalues --  -10.28324 -10.28305 -10.28242 -10.28211 -10.28137
 Alpha  occ. eigenvalues --  -10.28061 -10.28051 -10.28026 -10.27958 -10.27864
 Alpha  occ. eigenvalues --  -10.27861 -10.27851 -10.27841 -10.27791 -10.27668
 Alpha  occ. eigenvalues --  -10.27647 -10.27550 -10.27529 -10.27507 -10.27469
 Alpha  occ. eigenvalues --  -10.27450 -10.27412 -10.27335 -10.27194 -10.26808
 Alpha  occ. eigenvalues --  -10.26588 -10.26493 -10.26482 -10.26368 -10.26083
 Alpha  occ. eigenvalues --  -10.25992 -10.25843 -10.25833 -10.25753 -10.25662
 Alpha  occ. eigenvalues --  -10.25600 -10.25470 -10.25378 -10.25233 -10.25115
 Alpha  occ. eigenvalues --  -10.24166  -3.18605  -3.16001  -1.93504  -1.93053
 Alpha  occ. eigenvalues --   -1.92903  -1.90892  -1.90435  -1.90346  -1.17638
 Alpha  occ. eigenvalues --   -1.17303  -1.10135  -1.10045  -1.09507  -1.07403
 Alpha  occ. eigenvalues --   -1.07321  -1.07251  -1.05756  -1.04651  -1.04520
 Alpha  occ. eigenvalues --   -1.03923  -1.03565  -1.02713  -1.01917  -1.01406
 Alpha  occ. eigenvalues --   -0.94343  -0.93368  -0.89712  -0.88967  -0.88805
 Alpha  occ. eigenvalues --   -0.88725  -0.88684  -0.88582  -0.87676  -0.87567
 Alpha  occ. eigenvalues --   -0.87220  -0.87103  -0.86411  -0.85913  -0.84388
 Alpha  occ. eigenvalues --   -0.84327  -0.83814  -0.83639  -0.82916  -0.82475
 Alpha  occ. eigenvalues --   -0.81892  -0.81656  -0.81053  -0.80695  -0.80503
 Alpha  occ. eigenvalues --   -0.80353  -0.78355  -0.78075  -0.77775  -0.77392
 Alpha  occ. eigenvalues --   -0.77356  -0.76952  -0.76526  -0.75970  -0.75695
 Alpha  occ. eigenvalues --   -0.75214  -0.73616  -0.72881  -0.72259  -0.71845
 Alpha  occ. eigenvalues --   -0.69492  -0.69089  -0.68686  -0.68482  -0.68436
 Alpha  occ. eigenvalues --   -0.68189  -0.67168  -0.66699  -0.66314  -0.65859
 Alpha  occ. eigenvalues --   -0.65370  -0.65353  -0.64774  -0.64754  -0.64224
 Alpha  occ. eigenvalues --   -0.64076  -0.62816  -0.62336  -0.60529  -0.60320
 Alpha  occ. eigenvalues --   -0.60158  -0.59931  -0.59616  -0.59191  -0.59029
 Alpha  occ. eigenvalues --   -0.58965  -0.58371  -0.58067  -0.57998  -0.57708
 Alpha  occ. eigenvalues --   -0.56509  -0.56086  -0.55786  -0.55498  -0.55313
 Alpha  occ. eigenvalues --   -0.55183  -0.55087  -0.54974  -0.53941  -0.53850
 Alpha  occ. eigenvalues --   -0.53557  -0.53342  -0.53203  -0.52997  -0.52889
 Alpha  occ. eigenvalues --   -0.52798  -0.52610  -0.52553  -0.52431  -0.52282
 Alpha  occ. eigenvalues --   -0.52144  -0.51974  -0.51834  -0.51446  -0.51308
 Alpha  occ. eigenvalues --   -0.51224  -0.51149  -0.50823  -0.50613  -0.50311
 Alpha  occ. eigenvalues --   -0.50156  -0.50096  -0.49977  -0.49835  -0.49750
 Alpha  occ. eigenvalues --   -0.49609  -0.49356  -0.49004  -0.49002  -0.48873
 Alpha  occ. eigenvalues --   -0.48819  -0.48440  -0.48385  -0.48223  -0.47994
 Alpha  occ. eigenvalues --   -0.47944  -0.47764  -0.47349  -0.47321  -0.47231
 Alpha  occ. eigenvalues --   -0.47213  -0.47009  -0.46706  -0.46603  -0.46599
 Alpha  occ. eigenvalues --   -0.46403  -0.46355  -0.46352  -0.46026  -0.45919
 Alpha  occ. eigenvalues --   -0.45788  -0.45286  -0.45193  -0.45082  -0.44908
 Alpha  occ. eigenvalues --   -0.44771  -0.44721  -0.44598  -0.44544  -0.44048
 Alpha  occ. eigenvalues --   -0.43889  -0.43853  -0.43771  -0.43510  -0.43338
 Alpha  occ. eigenvalues --   -0.43283  -0.43258  -0.43172  -0.42944  -0.42591
 Alpha  occ. eigenvalues --   -0.42501  -0.42407  -0.42345  -0.42188  -0.42042
 Alpha  occ. eigenvalues --   -0.41947  -0.41550  -0.41411  -0.41325  -0.41192
 Alpha  occ. eigenvalues --   -0.41018  -0.40977  -0.40889  -0.40510  -0.40492
 Alpha  occ. eigenvalues --   -0.40430  -0.40387  -0.40310  -0.40047  -0.39398
 Alpha  occ. eigenvalues --   -0.38492  -0.38247  -0.37967  -0.37809  -0.37647
 Alpha  occ. eigenvalues --   -0.37615  -0.37193  -0.37136  -0.37028  -0.36954
 Alpha  occ. eigenvalues --   -0.36611  -0.36584  -0.35499  -0.35055  -0.34593
 Alpha  occ. eigenvalues --   -0.34131  -0.33412  -0.33340  -0.31532  -0.31446
 Alpha  occ. eigenvalues --   -0.30730  -0.30709  -0.30447  -0.30032  -0.29945
 Alpha  occ. eigenvalues --   -0.29925  -0.29574  -0.29518  -0.24322  -0.24311
 Alpha  occ. eigenvalues --   -0.22036  -0.21033
 Alpha virt. eigenvalues --   -0.09591  -0.08961  -0.02480  -0.01616  -0.00078
 Alpha virt. eigenvalues --    0.00115   0.01424   0.02168   0.02599   0.03169
 Alpha virt. eigenvalues --    0.04302   0.04771   0.05155   0.05470   0.05510

 Mulliken charges:
               1
     1  Mg  12.004699
     2  C    5.973771
     3  C    6.009243
     4  C    6.035769
     5  C    6.009599
     6  N    6.986792
     7  C    6.036138
     8  C    5.987007
     9  C    6.010815
    10  C    5.963762
    11  C    6.005242
    12  C    5.997016
    13  C    5.999789
    14  H    1.006841
    15  N    7.007103
    16  C    5.950860
    17  C    5.987712
    18  C    5.974957
    19  C    5.963631
    20  C    6.004794
    21  C    5.986962
    22  O    7.961264
    23  C    6.005826
    24  N    7.021042
    25  C    5.961870
    26  C    6.010906
    27  C    5.987033
    28  C    6.018931
    29  C    6.000293
    30  C    5.993138
    31  C    5.999681
    32  N    6.994633
    33  C    6.025665
    34  C    6.035934
    35  C    6.001973
    36  C    6.035670
    37  C    5.995054
    38  C    6.012799
    39  O    8.025309
    40  C    6.004329
    41  C    6.002988
    42  O    8.002372
    43  O    8.002109
    44  C    5.997814
    45  H    0.984383
    46  H    1.002317
    47  H    1.015984
    48  H    0.999780
    49  H    0.995947
    50  H    0.983470
    51  H    1.000670
    52  H    0.996419
    53  H    1.012908
    54  H    0.992183
    55  H    1.002748
    56  H    0.995446
    57  H    0.979570
    58  H    0.985464
    59  H    0.984123
    60  H    0.989129
    61  H    0.984190
    62  H    0.992660
    63  H    1.003324
    64  H    1.004568
    65  H    1.004922
    66  H    0.991007
    67  H    1.004917
    68  H    0.997696
    69  H    1.013762
    70  H    1.007721
    71  H    1.004240
    72  H    0.995314
    73  H    1.019217
    74  H    1.017691
    75  H    1.023815
    76  H    1.003962
    77  H    1.000610
    78  H    1.005442
    79  H    1.005266
    80  Mg  12.000016
    81  C    6.000053
    82  C    5.999901
    83  C    5.999926
    84  C    6.000096
    85  N    6.999916
    86  C    5.999840
    87  C    6.000060
    88  C    5.999962
    89  C    6.000122
    90  C    5.999991
    91  C    5.999995
    92  C    6.000050
    93  H    0.999875
    94  N    6.999986
    95  C    6.000217
    96  C    6.000064
    97  C    6.000082
    98  C    6.000229
    99  C    5.999962
   100  C    6.000065
   101  O    8.000136
   102  C    5.999987
   103  N    7.000090
   104  C    6.000116
   105  C    5.999935
   106  C    6.000012
   107  C    5.999891
   108  C    6.000017
   109  C    6.000005
   110  C    5.999999
   111  N    6.999938
   112  C    5.999860
   113  C    5.999895
   114  C    5.999970
   115  C    5.999871
   116  C    6.000038
   117  C    5.999874
   118  O    7.999818
   119  C    6.000043
   120  C    5.999969
   121  O    7.999980
   122  O    7.999979
   123  C    6.000063
   124  H    0.999974
   125  H    1.000107
   126  H    1.000029
   127  H    0.999960
   128  H    0.999976
   129  H    0.999979
   130  H    1.000052
   131  H    1.000001
   132  H    0.999949
   133  H    1.000030
   134  H    0.999961
   135  H    0.999973
   136  H    1.000099
   137  H    1.000075
   138  H    1.000096
   139  H    1.000068
   140  H    1.000037
   141  H    1.000108
   142  H    1.000033
   143  H    1.000033
   144  H    1.000084
   145  H    1.000042
   146  H    0.999992
   147  H    1.000018
   148  H    0.999943
   149  H    0.999991
   150  H    1.000010
   151  H    1.000022
   152  H    0.999903
   153  H    0.999922
   154  H    0.999930
   155  H    0.999910
   156  H    0.999939
   157  H    0.999884
   158  H    0.999973
 Sum of Mulliken charges = 624.00000

 Dipole moment (field-independent basis, Debye):
    X=            -10.4329    Y=              3.7538    Z=             -1.8571  Tot=             11.2422
 Quadrupole moment (field-independent basis, Debye-Ang):
   XX=           -538.4648   YY=              6.1831   ZZ=              1.0390
   XY=             90.8492   XZ=            -50.8956   YZ=             -2.0924

 Normal termination of Gaussian 16 at Wed Sep 22 21:28:11 2021.
